 Entering Gaussian System
 *********************************************
 Gaussian 98:
 frequency output generated by the xtb code
 *********************************************
                         Standard orientation:
 --------------------------------------------------------------------
  Center     Atomic     Atomic              Coordinates (Angstroms)
  Number     Number      Type              X           Y           Z
 --------------------------------------------------------------------
    1          6             0        0.728355    0.037231    0.051486
    2          8             0       -0.642072   -0.151537    0.304688
    3          1             0        1.285263   -0.904145    0.112480
    4          1             0        1.094804    0.714300    0.820843
    5          1             0        0.900401    0.489969   -0.931105
    6          1             0       -1.004789   -0.748071   -0.358387
 --------------------------------------------------------------------
     1 basis functions        1 primitive gaussians
     1 alpha electrons        1 beta electrons

 Harmonic frequencies (cm**-1), IR intensities (km*mol⁻¹),
 Raman scattering activities (A**4/amu), Raman depolarization ratios,
 reduced masses (AMU), force constants (mDyne/A) and normal coordinates:
                      1                      2                      3
                        a                      a                      a 
 Frequencies --   373.8972              1031.0446              1090.7356
 Red. masses --     1.0752                 1.3007                 3.5984
 Frc consts  --     0.0000                 0.0000                 0.0000
 IR Inten    --   152.1768                86.5278                25.4268
 Raman Activ --     0.0000                 0.0000                 0.0000
 Depolar     --     0.0000                 0.0000                 0.0000
 Atom AN      X      Y      Z        X      Y      Z        X      Y      Z
   1   6    -0.01   0.02  -0.02    -0.24  -0.18  -0.15     0.65   0.04  -0.18
   2   8     0.06  -0.20   0.15     0.35   0.07  -0.03    -0.56  -0.08   0.10
   3   1     0.06   0.05   0.23     0.21   0.12   0.12     0.21   0.06   0.04
   4   1    -0.06   0.22  -0.16    -0.57  -0.01   0.19    -0.09   0.02   0.06
   5   1    -0.01  -0.22  -0.10     0.20   0.16   0.10     0.20   0.09   0.02
   6   1    -0.19   0.67  -0.50    -0.44   0.06   0.24    -0.32  -0.00   0.11
                      4                      5                      6
                        a                      a                      a 
 Frequencies --  1140.1007              1314.5346              1416.4406
 Red. masses --     1.2721                 1.3000                 1.1316
 Frc consts  --     0.0000                 0.0000                 0.0000
 IR Inten    --     2.8747                67.9647                 3.3251
 Raman Activ --     0.0000                 0.0000                 0.0000
 Depolar     --     0.0000                 0.0000                 0.0000
 Atom AN      X      Y      Z        X      Y      Z        X      Y      Z
   1   6    -0.09   0.33  -0.25     0.02   0.22   0.29    -0.33  -0.08   0.02
   2   8     0.05  -0.17   0.12     0.15  -0.15  -0.26    -0.08  -0.01   0.01
   3   1    -0.52  -0.20   0.23    -0.17  -0.07  -0.11     0.46   0.27  -0.02
   4   1     0.05  -0.19   0.14     0.35   0.04  -0.08     0.50  -0.03  -0.23
   5   1     0.59  -0.08  -0.02    -0.15  -0.14  -0.05     0.51   0.08   0.13
   6   1     0.01  -0.02   0.02    -0.68   0.02   0.28    -0.03  -0.00   0.01
                      7                      8                      9
                        a                      a                      a 
 Frequencies --  1485.1813              1489.7299              2918.4158
 Red. masses --     1.0534                 1.0527                 1.0930
 Frc consts  --     0.0000                 0.0000                 0.0000
 IR Inten    --     4.7174                 1.4165                68.0304
 Raman Activ --     0.0000                 0.0000                 0.0000
 Depolar     --     0.0000                 0.0000                 0.0000
 Atom AN      X      Y      Z        X      Y      Z        X      Y      Z
   1   6     0.05  -0.17   0.12     0.02  -0.12  -0.17     0.06  -0.23   0.17
   2   8     0.01  -0.03   0.02     0.03  -0.02  -0.04     0.00  -0.00   0.00
   3   1    -0.30  -0.20  -0.29    -0.13  -0.03   0.64    -0.34   0.58  -0.01
   4   1    -0.15   0.56  -0.42     0.27  -0.02  -0.12     0.01  -0.04   0.03
   5   1     0.27   0.33   0.20    -0.29   0.55   0.21     0.11   0.25  -0.62
   6   1     0.00  -0.01   0.00    -0.06  -0.00   0.02    -0.00   0.00  -0.00
                     10                     11                     12
                        a                      a                      a 
 Frequencies --  2937.8608              3033.6301              3558.5569
 Red. masses --     1.0460                 1.0686                 1.0659
 Frc consts  --     0.0000                 0.0000                 0.0000
 IR Inten    --    54.6092                17.5308                 7.8255
 Raman Activ --     0.0000                 0.0000                 0.0000
 Depolar     --     0.0000                 0.0000                 0.0000
 Atom AN      X      Y      Z        X      Y      Z        X      Y      Z
   1   6     0.09  -0.09  -0.15    -0.08  -0.15  -0.18    -0.00  -0.00  -0.00
   2   8     0.02   0.00  -0.01    -0.01  -0.00   0.00    -0.09  -0.15  -0.17
   3   1    -0.34   0.60  -0.07     0.00  -0.04  -0.03     0.00   0.00   0.00
   4   1     0.02   0.01   0.00     0.32   0.60   0.69    -0.00   0.01   0.01
   5   1    -0.08  -0.31   0.61    -0.00  -0.01  -0.04     0.00   0.00   0.00
   6   1    -0.00   0.00   0.00    -0.00  -0.01  -0.01     0.37   0.60   0.67
