20
 energy: -572.560348896232 gnorm: 0.042084047596 xtb: 6.7.1 (41059b4)
C            0.84209642057316        1.39970794572025       -0.62722651647794
C            1.58717447620332        0.18386384908147       -0.05792198392567
H            2.57031898713898        0.09819534964351       -0.54638372894212
C            0.78454401564765       -1.10705994629057       -0.33719507404942
H            1.22854427104440       -1.91742087674966        0.25206494381170
C           -0.67499586589911       -0.91584276050583        0.11589626535136
H           -1.28246496036829       -1.75552694727792       -0.24084811860673
C           -1.27533300206513        0.39732070137606       -0.44989834049936
H           -1.37036617700725        0.35007442265513       -1.54902343278641
O           -0.45298698360073        1.50059417086495       -0.09820835544352
O           -2.53173959232188        0.60684896866891        0.05834703332586
O           -0.79480852885220       -0.89770418909780        1.51426639597101
O            0.89035696779454       -1.51026445036924       -1.67483269514216
O            1.73361417856821        0.28532253982643        1.34267478269497
H            0.81301910266027        1.33501580299158       -1.72664692756512
H            1.34853283619757        2.32742854133135       -0.34657116745357
H           -2.49286982900466        0.40793064928076        1.00836304104683
H           -0.06432653422850       -0.36084912505990        1.86273984372543
H            0.42516243828840       -0.88771788309337       -2.24509919349486
H            2.11108456693548        1.14483144890731        1.56275543539250
20
 energy: -572.561820022148 gnorm: 0.020987314010 xtb: 6.7.1 (41059b4)
C            0.84498869656531        1.39535765285658       -0.62833062862565
C            1.59555743424526        0.18536490883055       -0.06494088519608
H            2.57346372836760        0.09290647197039       -0.56383762282439
C            0.78654833204587       -1.10138477170564       -0.32910257012764
H            1.22835031763152       -1.91387961364618        0.25936066329482
C           -0.67455211041990       -0.91324128123044        0.12176955270587
H           -1.27152154927919       -1.75571561028636       -0.24816295794952
C           -1.28151883716048        0.39094883696930       -0.44800208907543
H           -1.37326691096315        0.34760066052975       -1.54972044677168
O           -0.45811646968101        1.50244642281568       -0.09469894011577
O           -2.54495278544259        0.60838450041532        0.05539386702645
O           -0.79869275415189       -0.90036066354797        1.53114430917253
O            0.88808959742399       -1.49710430504596       -1.68208137276468
O            1.74445812134337        0.27714582133600        1.34890785843854
H            0.82199405667103        1.33290239976121       -1.73169238461613
H            1.36439177008176        2.32365034504624       -0.36470564447829
H           -2.50360005027825        0.39306956242205        1.00102057830098
H           -0.07537801823171       -0.35259131820988        1.87718965646686
H            0.41919086538509       -0.87148445309938       -2.24559553759289
H            2.10912231582475        1.14073281458837        1.57333636972853
20
 energy: -572.562280467947 gnorm: 0.004945801759 xtb: 6.7.1 (41059b4)
C            0.85333316550188        1.39540899180641       -0.62844873716126
C            1.59645676088453        0.18537244092745       -0.06953477772899
H            2.57120127356618        0.08847374879238       -0.57275037963105
C            0.78645393577617       -1.09726611314903       -0.32268053821157
H            1.22612737704275       -1.91377014594266        0.26088916047966
C           -0.67602174343496       -0.91227508672529        0.12207430799634
H           -1.26302924685136       -1.76021014850310       -0.25186168264575
C           -1.27925214099158        0.38748371957833       -0.44535967876053
H           -1.36959946727471        0.34523549114008       -1.54764858522615
O           -0.45467428311728        1.50863180205098       -0.09040208576783
O           -2.54822017287906        0.60775904916137        0.05663991624231
O           -0.80970871563276       -0.90101615064935        1.53965238053130
O            0.88110717568087       -1.49067846902853       -1.68831566458061
O            1.75669526753169        0.27424930892225        1.35466136314808
H            0.82847027804959        1.33007904978846       -1.73371731937168
H            1.37895308993259        2.32614773236965       -0.37993531991497
H           -2.50495107706567        0.36746979719200        0.99675456934020
H           -0.09210011034111       -0.34279818554430        1.88188618355062
H            0.40846389405366       -0.85902343009024       -2.24225848312242
H            2.10484952729062        1.14547507509146        1.57760665722453
20
 energy: -572.562330654876 gnorm: 0.002196942315 xtb: 6.7.1 (41059b4)
C            0.85615799014726        1.39320023014278       -0.62874579071408
C            1.59842927466166        0.18418850169430       -0.07098695979970
H            2.57384432418715        0.08573594606177       -0.57170036424425
C            0.78648791047669       -1.09522278335470       -0.32152823311609
H            1.22654502018518       -1.91315248261302        0.25897731109276
C           -0.67573382903485       -0.90986782897099        0.12078588584318
H           -1.26188829255401       -1.75840872831114       -0.25162740047727
C           -1.27893316520377        0.38769002373138       -0.44553235292465
H           -1.36868726271759        0.34886963027165       -1.54743829245979
O           -0.45172254348680        1.50886511902362       -0.08860426049179
O           -2.54739575676549        0.60844325882122        0.05880396895006
O           -0.81214935310871       -0.90048794001279        1.53990542646530
O            0.87835328564596       -1.49062160691857       -1.68910438274157
O            1.76085452946119        0.27408234378789        1.35504258635189
H            0.82787839431935        1.32736167898230       -1.73370095763737
H            1.38160507371891        2.32378508584417       -0.38116298085528
H           -2.50423994458630        0.35461775060469        0.99581027014428
H           -0.09735127049024       -0.33832222753787        1.88156305026550
H            0.40439948250380       -0.85644135061374       -2.23930728489127
H            2.09810069726671        1.15043387681010        1.57580191718561
20
 energy: -572.562351434564 gnorm: 0.001905372455 xtb: 6.7.1 (41059b4)
C            0.85870018635992        1.39242012037361       -0.62958805306295
C            1.59892372853511        0.18277556865912       -0.07209285831176
H            2.57526358298921        0.08299183937181       -0.57015868303452
C            0.78652450208706       -1.09521871678430       -0.32162611738096
H            1.22623018383609       -1.91424656909122        0.25706446962663
C           -0.67489347954212       -0.90897904839898        0.11977274691267
H           -1.26149117523653       -1.75744174420105       -0.25112631035932
C           -1.27739522665387        0.38876611469927       -0.44431754714246
H           -1.36686673600331        0.35300096422709       -1.54588568736816
O           -0.44777616772279        1.50921287295548       -0.08663122432520
O           -2.54457686979427        0.60961690876093        0.06171939829331
O           -0.81285058296928       -0.90039932199514        1.53925144125002
O            0.87682172666215       -1.49147239287597       -1.68986528849772
O            1.76195019755022        0.27441324456858        1.35425323340561
H            0.82695048532562        1.32583882879583       -1.73389356874554
H            1.38401707401363        2.32246752835258       -0.38177249265024
H           -2.50312353863559        0.34470401847218        0.99574167099875
H           -0.10099406115961       -0.33453491411865        1.88089460860839
H            0.40219432463408       -0.85525959420381       -2.23728002421586
H            2.08694642016823        1.15609279023791        1.57279147530203
20
 energy: -572.562363874194 gnorm: 0.001663092228 xtb: 6.7.1 (41059b4)
C            0.86093485302478        1.39119348555386       -0.63080647020212
C            1.60026432769412        0.18107254851168       -0.07276011895135
H            2.57741896326608        0.07992209623760       -0.56890205639445
C            0.78651962665148       -1.09572876107645       -0.32245868044460
H            1.22577614569069       -1.91548360957951        0.25537815723985
C           -0.67402344768817       -0.90881959062161        0.11936488585394
H           -1.26209329344254       -1.75631582843398       -0.25122915151849
C           -1.27565236571062        0.39065547487080       -0.44221015527646
H           -1.36496353298578        0.35772730228665       -1.54371741894124
O           -0.44333498811696        1.50955364375398       -0.08417237268604
O           -2.54084027443421        0.61199733064772        0.06550157304883
O           -0.81166038702095       -0.90213044439654        1.53864948620346
O            0.87568202352512       -1.49202143699920       -1.69073522861512
O            1.76215607995466        0.27530263351706        1.35319959415368
H            0.82593110253240        1.32407868432372       -1.73453328836818
H            1.38768759633560        2.32038961129837       -0.38364199775630
H           -2.50245863019618        0.33656684468332        0.99625584796092
H           -0.10290857793649       -0.33253724802804        1.88041533364587
H            0.40079622353775       -0.85455843495417       -2.23642713778344
H            2.06932336488068        1.16388415245911        1.57008061090212
20
 energy: -572.562372065083 gnorm: 0.001032387270 xtb: 6.7.1 (41059b4)
C            0.86186730635779        1.39083188160296       -0.63175001169730
C            1.60086991880507        0.18038836226410       -0.07286477610337
H            2.57796447371230        0.07867257497347       -0.56929707049518
C            0.78693868233045       -1.09691220947978       -0.32303749818322
H            1.22569629631568       -1.91690576077472        0.25518561150840
C           -0.67341760636972       -0.90895882931831        0.11975233886372
H           -1.26259445910988       -1.75512332704631       -0.25270187341129
C           -1.27477005138230        0.39221949230352       -0.44037820842179
H           -1.36450165734445        0.35949460012472       -1.54206150072013
O           -0.44115796995774        1.51028333320373       -0.08298266133220
O           -2.53897059817412        0.61440496635543        0.06826067765682
O           -0.81029707711492       -0.90446135102353        1.53869349011372
O            0.87607432981751       -1.49200407415355       -1.69124147765907
O            1.76182206845321        0.27580212460446        1.35273273425103
H            0.82578865332906        1.32280920259493       -1.73551393660714
H            1.39084830871298        2.31978327676320       -0.38702691486477
H           -2.50234809577263        0.33520306354413        0.99763503414880
H           -0.10202078268327       -0.33469381481253        1.88091154841002
H            0.40140257161572       -0.85473546352466       -2.23725634129348
H            2.05536084387177        1.16865030586171        1.57019258283302
20
 energy: -572.562378013518 gnorm: 0.001339989669 xtb: 6.7.1 (41059b4)
C            0.86385866282147        1.38975974372219       -0.63351470403491
C            1.60262033906775        0.17974997800230       -0.07342446169007
H            2.57976997603789        0.07768590046644       -0.56970850344058
C            0.78721042909172       -1.09722466577997       -0.32370802116426
H            1.22513125453616       -1.91740667533977        0.25509642251443
C           -0.67341181335654       -0.90918568246892        0.11988677615551
H           -1.26387402651319       -1.75332185241487       -0.25557120461271
C           -1.27324096020049        0.39424569292674       -0.43810019131394
H           -1.36474090367468        0.36212095613460       -1.53979695817249
O           -0.43779406744991        1.51152543625158       -0.08180746058519
O           -2.53606419186575        0.61828832818219        0.07315557784880
O           -0.80962981035312       -0.90806324782547        1.53865588434359
O            0.87657666709441       -1.49213367672398       -1.69158757824463
O            1.76236346217249        0.27633571065735        1.35223857480041
H            0.82567640407196        1.31989264850167       -1.73728518942898
H            1.39538757781375        2.31864718186569       -0.39293128293778
H           -2.50031576094644        0.33363262443675        1.00095343101673
H           -0.09993953132898       -0.34051012198513        1.88163525149462
H            0.40244570323627       -0.85563159382044       -2.23883985740084
H            2.03252637047886        1.17634143702946        1.57190585440140
20
 energy: -572.562381690765 gnorm: 0.000846741198 xtb: 6.7.1 (41059b4)
C            0.86422346458258        1.38961290819992       -0.63428829649808
C            1.60237868402205        0.17987676726758       -0.07337798191966
H            2.57976208037794        0.07763099349733       -0.56921762564719
C            0.78776889020748       -1.09758331231061       -0.32415693420171
H            1.22547564092918       -1.91748457951387        0.25524661552888
C           -0.67299139079497       -0.90843317126188        0.11943093731277
H           -1.26342743544921       -1.75198898704885       -0.25736956967313
C           -1.27327493357281        0.39531783623833       -0.43736861838204
H           -1.36616467326918        0.36253472140189       -1.53893315595524
O           -0.43729218975820        1.51235919157074       -0.08248452555498
O           -2.53580332669936        0.61969006162484        0.07529127692657
O           -0.80935179855430       -0.90916726726187        1.53805314729376
O            0.87756257703370       -1.49306190693083       -1.69153523416708
O            1.76182795122944        0.27656147468953        1.35228555558586
H            0.82581614721341        1.31818051466584       -1.73799715954696
H            1.39606631186111        2.31864485371925       -0.39520223348775
H           -2.49837135174041        0.33677540643882        1.00338009531303
H           -0.09677888575312       -0.34572498512774        1.88193722429993
H            0.40388216702381       -0.85704897481612       -2.23982562333266
H            2.02324826063744        1.17805642656658        1.57338482495848
20
 energy: -572.562381690765 gnorm: 0.000846741198 xtb: 6.7.1 (41059b4)
C            0.86422346458258        1.38961290819992       -0.63428829649808
C            1.60237868402205        0.17987676726758       -0.07337798191966
H            2.57976208037794        0.07763099349733       -0.56921762564719
C            0.78776889020748       -1.09758331231061       -0.32415693420171
H            1.22547564092918       -1.91748457951387        0.25524661552888
C           -0.67299139079497       -0.90843317126188        0.11943093731277
H           -1.26342743544921       -1.75198898704885       -0.25736956967313
C           -1.27327493357281        0.39531783623833       -0.43736861838204
H           -1.36616467326918        0.36253472140189       -1.53893315595524
O           -0.43729218975820        1.51235919157074       -0.08248452555498
O           -2.53580332669936        0.61969006162484        0.07529127692657
O           -0.80935179855430       -0.90916726726187        1.53805314729376
O            0.87756257703370       -1.49306190693083       -1.69153523416708
O            1.76182795122944        0.27656147468953        1.35228555558586
H            0.82581614721341        1.31818051466584       -1.73799715954696
H            1.39606631186111        2.31864485371925       -0.39520223348775
H           -2.49837135174041        0.33677540643882        1.00338009531303
H           -0.09677888575312       -0.34572498512774        1.88193722429993
H            0.40388216702381       -0.85704897481612       -2.23982562333266
H            2.02324826063744        1.17805642656658        1.57338482495848
