14
 energy: -24.474538657259 gnorm: 0.037016198087 xtb: 6.7.1 (41059b4)
C           -0.33817559628920       -1.21216714768206       -0.00001873742560
C            1.04673251457015       -1.21306522523271        0.00003446454216
C            1.74356219914417       -0.00168711432597        0.00004802600301
C            1.04999132012407        1.21099555352735        0.00003704576037
C           -0.33246821262209        1.21011673173419       -0.00001871820798
C           -1.04248416862963       -0.00074345135786       -0.00007996360317
C           -2.46399517041225        0.00007215119807       -0.00062625091296
N           -3.62269336950525       -0.00118325705016        0.00060779014876
O            3.10113172618378        0.06221742633988        0.00005340303324
H           -0.88449064206704       -2.14864712816251       -0.00008794190488
H            1.58894255674988       -2.15504071232621        0.00001584438692
H            1.61079165514436        2.13882640395030        0.00002165434874
H           -0.87786750503610        2.14718135924904       -0.00008820556396
H            3.46788904046975       -0.82967325494624        0.00006579494722
14
 energy: -24.475265477634 gnorm: 0.010594804847 xtb: 6.7.1 (41059b4)
C           -0.33754943168361       -1.20709000849215       -0.00009890478805
C            1.04268401453767       -1.20636043441642       -0.00002336771756
C            1.73947724981915       -0.00015370113897       -0.00000321612676
C            1.04235579891014        1.20824931026138       -0.00002620660541
C           -0.33520265235817        1.20875004825900       -0.00009763438494
C           -1.03825486942359        0.00034722462380       -0.00010568194648
C           -2.45187650881283       -0.00000703878044        0.00043803183084
N           -3.59623585112320       -0.00417205910414       -0.00021638719679
O            3.09452418439323        0.05586532918320        0.00002793531949
H           -0.88153004476137       -2.14115280849937       -0.00002161264616
H            1.58412154656203       -2.14408706083200        0.00003299449529
H            1.60169606213436        2.13103374270807        0.00003060657101
H           -0.87997353193659        2.14221177130253       -0.00001955990757
H            3.46263038156735       -0.83623198015939        0.00004720865496
14
 energy: -24.475305147815 gnorm: 0.002561659283 xtb: 6.7.1 (41059b4)
C           -0.33704169295565       -1.20620378462197       -0.00002235588746
C            1.04232383408945       -1.20421309342175        0.00008188584636
C            1.73960947311854        0.00090767558017        0.00010290163323
C            1.04068071684950        1.20810498224611        0.00009178078124
C           -0.33592466037053        1.20867253526913       -0.00002115461034
C           -1.03671068268663        0.00024654556554       -0.00012231850484
C           -2.44887970508341       -0.00173225248279       -0.00136672775961
N           -3.59556521650917       -0.00301800400386        0.00136035215628
O            3.09319500429169        0.05311858216982        0.00011334374476
H           -0.88026719887751       -2.13966179131146       -0.00023067490195
H            1.58430379020468       -2.14052801820529        0.00005185537262
H            1.60004160999293        2.12955317758606        0.00006204390727
H           -0.88083113128022        2.14092288189844       -0.00023075948527
H            3.46193220704088       -0.83896710135303        0.00009403325957
14
 energy: -24.475304840340 gnorm: 0.002010360087 xtb: 6.7.1 (41059b4)
C           -0.33767398310937       -1.20555060805338       -0.00007640672257
C            1.04167383218353       -1.20314927312452       -0.00018542703646
C            1.74013708403892        0.00155931776020       -0.00019881896614
C            1.04062735137432        1.20862106754247       -0.00021300937452
C           -0.33580251917067        1.20968351326689       -0.00008311846074
C           -1.03644824338935        0.00123859630826        0.00016618587845
C           -2.44816857661162        0.00080193588766        0.00329689518422
N           -3.59536883916957       -0.00943184187855       -0.00302189301957
O            3.09267692526685        0.05101586939753       -0.00016958110888
H           -0.88083924007496       -2.13872820580713        0.00035048853084
H            1.58414690231607       -2.13904114459704       -0.00005308275395
H            1.60064934139271        2.12952008795595       -0.00008720153073
H           -0.88049197383538        2.14168652724298        0.00034496712151
H            3.46174828661310       -0.84102350698620       -0.00010579218959
14
 energy: -24.475310535908 gnorm: 0.000628165860 xtb: 6.7.1 (41059b4)
C           -0.33753145198789       -1.20622087440100       -0.00008597834172
C            1.04187375840173       -1.20307087006086        0.00000168153233
C            1.74043240922832        0.00190070255180        0.00003576069292
C            1.04029164962323        1.20877032979919        0.00000479767156
C           -0.33625869408442        1.20941384555136       -0.00008329521793
C           -1.03660780846987        0.00050819443108       -0.00014769373756
C           -2.44833360529069       -0.00156799224902       -0.00023007575057
N           -3.59532939691736       -0.00512551635698        0.00041571928514
O            3.09251363253947        0.05080400832756        0.00008881901617
H           -0.88040329525978       -2.13955769345230       -0.00009908058394
H            1.58499862637234       -2.13871200943044        0.00003044656681
H            1.60035278665790        2.12983931698607        0.00003689571527
H           -0.88118035702868        2.14128363324320       -0.00009456458230
H            3.46204809404026       -0.84106274002455        0.00009077328569
14
 energy: -24.475310733465 gnorm: 0.000269379584 xtb: 6.7.1 (41059b4)
C           -0.33759492331839       -1.20631152065187       -0.00002219150755
C            1.04178842100954       -1.20326542669246       -0.00002091091100
C            1.74046472380641        0.00179219629416       -0.00000577007486
C            1.04055800414116        1.20875790589876       -0.00001887594241
C           -0.33605018298421        1.20931631486896       -0.00002121093452
C           -1.03679926416393        0.00056905771361        0.00001052561131
C           -2.44880932775966       -0.00129752091111        0.00006491789555
N           -3.59563835352444       -0.00536350593807        0.00000761060856
O            3.09259578324810        0.05103742210074        0.00004352497121
H           -0.88056206368418       -2.13973371875330       -0.00006270195318
H            1.58506179914303       -2.13901959121437       -0.00000752663383
H            1.60055485581848        2.13008266203539       -0.00000581802086
H           -0.88097489960469        2.14136769802942       -0.00006145981522
H            3.46227177569736       -0.84072963786476        0.00006409225866
14
 energy: -24.475310781259 gnorm: 0.000057887553 xtb: 6.7.1 (41059b4)
C           -0.33761645666838       -1.20629708569651       -0.00002373607279
C            1.04171655069229       -1.20315467259498       -0.00001054219629
C            1.74052245639991        0.00185976726343        0.00000978309052
C            1.04051479590931        1.20876903357036       -0.00001197777493
C           -0.33607553358691        1.20930631831353       -0.00002391613456
C           -1.03677974843845        0.00058805995705       -0.00002089233964
C           -2.44873058124439       -0.00134220080092        0.00002483086784
N           -3.59560580427082       -0.00538031512098        0.00001781331984
O            3.09252118467209        0.05083696290334        0.00003816314622
H           -0.88055539256999       -2.13969762000510       -0.00002911791798
H            1.58513373697943       -2.13880530818685       -0.00001592553219
H            1.60048179017722        2.13007584592831       -0.00001511708751
H           -0.88100255877157        2.14132493124330       -0.00002841877205
H            3.46234190854481       -0.84088138185886        0.00005325895539
