14
 energy: -20.782350683845 gnorm: 0.028267742587 xtb: 6.7.1 (41059b4)
C           -2.16467032417283        0.46640194216997       -0.69773842355734
C           -1.34001734881962        0.38491864637493        0.59526152109925
C            0.00139325805358       -0.24138994229190        0.31260657018320
O            0.24212440454138       -1.42549379312964        0.34406367980308
O            0.91438585897803        0.69792922241360       -0.04103531083462
C            2.20914549219325        0.17525238681169       -0.40646931959486
H           -3.14916807589223        0.89455377644654       -0.49252274649394
H           -1.66499096014194        1.09675739333441       -1.43833045974567
H           -2.30554250019634       -0.52904584214075       -1.12722103452649
H           -1.84869421265596       -0.24655630889816        1.32774020315279
H           -1.20080682435932        1.38367325247356        1.01775675156354
H            2.64410668583537       -0.38138452371094        0.42742586844854
H            2.81754509485775        1.04632615533378       -0.64897281109717
H            2.12072996178951       -0.48822186703499       -1.27077241788286
14
 energy: -20.783084736937 gnorm: 0.010582963044 xtb: 6.7.1 (41059b4)
C           -2.16090391951015        0.46509989810406       -0.69354861422963
C           -1.33859132038935        0.38356890901495        0.59401775919431
C           -0.00103692926996       -0.24531604720708        0.29424868007296
O            0.24048798026648       -1.42168883276837        0.33814625613453
O            0.91218864580215        0.68349307931828       -0.04964877753757
C            2.20349596582715        0.17942105120080       -0.40418375252877
H           -3.13901371545107        0.89436386783949       -0.48421202249218
H           -1.65678488781483        1.09117560679967       -1.42791762012403
H           -2.30012511499941       -0.52799830767223       -1.11729600574152
H           -1.85516844814528       -0.24154937877571        1.32452786288656
H           -1.18837886450411        1.38285590078828        1.00470852902765
H            2.63083412618733       -0.37527494544953        0.43225998802179
H            2.81002545689789        1.04955270031343       -0.64321305978329
H            2.11851153511378       -0.48398300335393       -1.26609715238335
14
 energy: -20.783198219021 gnorm: 0.004499066445 xtb: 6.7.1 (41059b4)
C           -2.15662252502070        0.46582964640973       -0.69338401467449
C           -1.33727572027784        0.38337859704246        0.59517816753629
C            0.00121380461857       -0.24861966509453        0.30043122916318
O            0.23871758247101       -1.42496416003231        0.33404226878343
O            0.90794838794165        0.67448030319078       -0.05090491587401
C            2.19513861472797        0.18224265804343       -0.40476253546588
H           -3.13301739843845        0.89526213693833       -0.48634941445746
H           -1.64984187651628        1.08948065583148       -1.42515723620652
H           -2.29497193066982       -0.52632653132968       -1.11491016167069
H           -1.85826056078717       -0.23841324597984        1.32360993588706
H           -1.18053098653224        1.38180571322467        1.00203039747443
H            2.62651325127503       -0.36965671532863        0.43127908042604
H            2.79888111837924        1.05281175333244       -0.64400588619014
H            2.11764874883966       -0.48359064809622       -1.26530484421379
14
 energy: -20.783217452135 gnorm: 0.001184445670 xtb: 6.7.1 (41059b4)
C           -2.15597595786346        0.46594207148927       -0.69331860549112
C           -1.33724288012451        0.38372579972733        0.59634595741433
C           -0.00043489990319       -0.25140285645176        0.29664666636986
O            0.23684862360976       -1.42891244285003        0.33383261790674
O            0.90531959942750        0.67148265530354       -0.05229348345582
C            2.19262581332504        0.18355984821209       -0.40394779727174
H           -3.13213401574259        0.89653292562070       -0.48706505459964
H           -1.64808405576418        1.08871804228851       -1.42539466019360
H           -2.29481234148170       -0.52661321524196       -1.11435245455382
H           -1.85784873151776       -0.23579926915853        1.32662106629455
H           -1.17648190629363        1.38227555539264        1.00143266089519
H            2.62727256337729       -0.36849032066865        0.43118383721433
H            2.79521426086060        1.05545461645508       -0.64237590268931
H            2.12127443810148       -0.48275291196613       -1.26552277732250
14
 energy: -20.783220212079 gnorm: 0.000903299567 xtb: 6.7.1 (41059b4)
C           -2.15579497316041        0.46619833029556       -0.69341848820339
C           -1.33749185039018        0.38335793671709        0.59699013002928
C           -0.00083331180773       -0.25357211502216        0.29819789911948
O            0.23446684678833       -1.43214487658786        0.33484508528402
O            0.90420625662439        0.66955243521762       -0.05185334671059
C            2.19196267600464        0.18440237416900       -0.40427711185460
H           -3.13225129770065        0.89823440481209       -0.48882189935795
H           -1.64614336687895        1.08837665309863       -1.42553216910494
H           -2.29523310162031       -0.52683790598007       -1.11439937107996
H           -1.85933429052166       -0.23410151845843        1.32811576873831
H           -1.17490568528180        1.38200162920194        1.00140979505759
H            2.62992990749212       -0.36767982707088        0.42994484802990
H            2.79313569085617        1.05801269056202       -0.64269138979629
H            2.12382700960665       -0.48207971280246       -1.26671767963341
14
 energy: -20.783220710413 gnorm: 0.000118295373 xtb: 6.7.1 (41059b4)
C           -2.15555282895233        0.46608346783054       -0.69342846381724
C           -1.33749185102704        0.38329459245977        0.59690885090105
C           -0.00090176756638       -0.25376869829241        0.29830076111674
O            0.23419085127394       -1.43201123160755        0.33525274223877
O            0.90441034878851        0.66938196318909       -0.05150062560910
C            2.19221002807999        0.18434481515175       -0.40437665573697
H           -3.13174361246944        0.89837385659754       -0.48873771741574
H           -1.64596059707660        1.08801579701108       -1.42562994124790
H           -2.29547974275454       -0.52678262810063       -1.11435727365013
H           -1.85957103178694       -0.23407397361148        1.32796222346737
H           -1.17502651576837        1.38199309438888        1.00127395833449
H            2.63006350893578       -0.36772183097944        0.42971184511168
H            2.79303745837028        1.05815608492747       -0.64259406543382
H            2.12335626196378       -0.48156481081251       -1.26699356774174
14
 energy: -20.783220761371 gnorm: 0.000030464233 xtb: 6.7.1 (41059b4)
C           -2.15536851555727        0.46606757281881       -0.69345713220862
C           -1.33751717275242        0.38325882868866        0.59694578656661
C           -0.00096807914315       -0.25405037475112        0.29849494513830
O            0.23407648665469       -1.43225704067866        0.33553307181987
O            0.90430128949748        0.66919138003282       -0.05121232496034
C            2.19212062372482        0.18441760828438       -0.40445514269319
H           -3.13139563618740        0.89877914962652       -0.48897661408731
H           -1.64542591409314        1.08759707732053       -1.42571505931024
H           -2.29560049247745       -0.52682280262246       -1.11415445440147
H           -1.85977242030178       -0.23396876565155        1.32797969125282
H           -1.17494660013963        1.38196945139169        1.00121276835491
H            2.63021540784612       -0.36775325775807        0.42936338937504
H            2.79267254074278        1.05842609688364       -0.64248687384068
H            2.12314899219699       -0.48113442543308       -1.26727998048826
