
                                 *****************
                                 * O   R   C   A *
                                 *****************

                                            #,                                       
                                            ###                                      
                                            ####                                     
                                            #####                                    
                                            ######                                   
                                           ########,                                 
                                     ,,################,,,,,                         
                               ,,#################################,,                 
                          ,,##########################################,,             
                       ,#########################################, ''#####,          
                    ,#############################################,,   '####,        
                  ,##################################################,,,,####,       
                ,###########''''           ''''###############################       
              ,#####''   ,,,,##########,,,,          '''####'''          '####       
            ,##' ,,,,###########################,,,                        '##       
           ' ,,###''''                  '''############,,,                           
         ,,##''                                '''############,,,,        ,,,,,,###''
      ,#''                                            '''#######################'''  
     '                                                          ''''####''''         
             ,#######,   #######,   ,#######,      ##                                
            ,#'     '#,  ##    ##  ,#'     '#,    #''#        ,####,   ,####,        
            ##       ##  ##   ,#'  ##            #'  '#       #'       #'  '#        
            ##       ##  #######   ##           ,######,      #####,   #    #        
            '#,     ,#'  ##    ##  '#,     ,#' ,#      #,     #,   #   #,  ,#        
             '#######'   ##     ##  '#######'  #'      '#     '####' # '####'        



                #########################################################
                #                        -***-                          #
                #          Department of theory and spectroscopy        #
                #                                                       #
                #                      Frank Neese                      #
                #                                                       #
                #     Directorship, Architecture, Infrastructure        #
                #                    SHARK, DRIVERS                     #
                #        Core code/Algorithms in most modules           #
                #                                                       #
                #        Max Planck Institute fuer Kohlenforschung      #
                #                Kaiser Wilhelm Platz 1                 #
                #                 D-45470 Muelheim/Ruhr                 #
                #                      Germany                          #
                #                                                       #
                #                  All rights reserved                  #
                #                        -***-                          #
                #########################################################


                         Program Version 6.0.1  -  RELEASE   -


 With contributions from (in alphabetic order):
[Max-Planck-Institut fuer Kohlenforschung]                               
  Daniel Aravena         : Magnetic Suceptibility                        
  Michael Atanasov       : Ab Initio Ligand Field Theory (pilot matlab implementation)
  Alexander A. Auer      : GIAO ZORA, VPT2 properties, NMR spectrum      
  Ute Becker             : All parallelization in ORCA, NUMFREQ, NUMCALC 
  Giovanni Bistoni       : ED, misc. LED, open-shell LED, HFLD           
  Martin Brehm           : Molecular dynamics                            
  Dmytro Bykov           : pre 5.0 version of the SCF Hessian            
  Marcos Casanova-Páez   : Triplet and SCS-CIS(D). UHF-(DLPNO)-IP/EA/STEOM-CCSD. UHF-CVS-IP/STEOM-CCSD   
  Vijay G. Chilkuri      : MRCI spin determinant printing, contributions to CSF-ICE 
  Pauline Colinet        : FMM embedding                                 
  Dipayan Datta          : RHF DLPNO-CCSD density                        
  Achintya Kumar Dutta   : EOM-CC, STEOM-CC                              
  Nicolas Foglia         : Exact transition moments, OPA infrastructure, MCD improvements    
  Dmitry Ganyushin       : Spin-Orbit,Spin-Spin,Magnetic field MRCI      
  Miquel Garcia-Rates    : C-PCM and meta-GGA Hessian, CCSD/C-PCM, Gaussian charge scheme 
  Tiago L. C. Gouveia    : GS-ROHF, GS-ROCIS                             
  Yang Guo               : DLPNO-NEVPT2, F12-NEVPT2, CIM, IAO-localization        
  Andreas Hansen         : Spin unrestricted coupled pair/coupled cluster methods 
  Ingolf Harden          : AUTO-CI MPn and infrastructure                
  Benjamin Helmich-Paris : MC-RPA, TRAH-(SCF,CASSCF), AVAS, COSX integrals, SCF dyn. polar. 
  Lee Huntington         : MR-EOM, pCC                                   
  Robert Izsak           : Overlap fitted RIJCOSX, COSX-SCS-MP3, EOM     
  Riya Kayal             : Wick's Theorem for AUTO-CI, AUTO-CI UHF-CCSDT 
  Emily Kempfer          : AUTO-CI, RHF CISDT and CCSDT                  
  Christian Kollmar      : KDIIS, OOCD, Brueckner-CCSD(T), CCSD density, CASPT2, CASPT2-K, improved NEVPT2 
  Axel Koslowski         : Symmetry handling                             
  Simone Kossmann        : meta-GGA functionals, TD-DFT gradient, OOMP2, (MP2 Hessian; deprecated post 5.0) 
  Lucas Lang             : DCDCAS                                        
  Marvin Lechner         : AUTO-CI (C++ implementation), FIC-MRCC        
  Spencer Leger          : CASSCF response                               
  Dagmar Lenk            : GEPOL surface, SMD, ORCA-2-JSON               
  Dimitrios Liakos       : Extrapolation schemes; Compound Job, initial MDCI parallelization 
  Dimitrios Manganas     : Further ROCIS development; embedding schemes. LFT, Crystal Embedding 
  Dimitrios Pantazis     : SARC Basis sets                               
  Anastasios Papadopoulos: AUTO-CI, single reference methods and gradients 
  Taras Petrenko         : pre 6.0 DFT Hessian and TD-DFT gradient, (ASA, deprecated), ECA, 1-Electron XAS/XES, NRVS 
  Peter Pinski           : DLPNO-MP2, DLPNO-MP2 Gradient                 
  Christoph Reimann      : Effective Core Potentials                     
  Marius Retegan         : Local ZFS, SOC                                
  Christoph Riplinger    : Optimizer, TS searches, QM/MM, DLPNO-CCSD(T), (RO)-DLPNO pert. Triples 
  Michael Roemelt        : Original ROCIS implementation                 
  Masaaki Saitow         : Open-shell DLPNO-CCSD energy and density      
  Barbara Sandhoefer     : DKH picture change effects                    
  Kantharuban Sivalingam : CASSCF convergence/infrastructure, NEVPT2 and variants, FIC-MRCI 
  Bernardo de Souza      : ESD, SOC TD-DFT                               
  Georgi L. Stoychev     : AutoAux, RI-MP2 NMR, DLPNO-MP2 response, X2C  
  Van Anh Tran           : RI-MP2 g-tensors                              
  Willem Van den Heuvel  : Paramagnetic NMR                              
  Zikuan Wang            : NOTCH, Electric field optimization            
  Frank Wennmohs         : Technical directorship and infrastructure     
  Hang Xu                : AUTO-CI-Response properties                   
                                                                         
[FACCTs GmbH]                                                            
  Markus Bursch, Miquel Garcia-Rates, Christoph Riplinger, Bernardo de Souza, Georgi L. Stoychev 
                                                                 
  APM, Basis sets (HGBS, AHGBS, def-TZVP (Ac-Lr), def2-XVPD (La-Lu)), CI-OPT, improved COSX, DLPNO-Multilevel,           
  DOCKER, DRACO, updates on ESD, GOAT, IRC, LR-CPCM, MBIS, meta-GGA TD-DFT gradient, ML-optimized integration grids, 
  MM, NACMEs, nearIR, NEB, NEB-TS, NL-DFT gradient (VV10), 2- and 3-layer-ONIOM, interface openCOSMO-RS, QMMM,   
  Crystal-QMMM, SF, symmetry and pop. for TD-DFT, r2SCAN hybrids, SOLVATOR                                   
                                                                         
[Other institutions]                                                     
  V. Asgeirsson          : NEB                                           
  Christoph Bannwarth    : sTDA-DFT, sTD-DFT, PBEh-3c, B97-3c, D3        
  Sebastian Ehlert       : rSCAN, r2SCAN, r2SCAN-3c, D4, dhf basis sets  
  Marvin Friede          : D4 for Fr, Ra, Ac-Lr                          
  Lars Goerigk           : TD-DFT with DH, B97 family of functionals     
  Stefan Grimme          : VdW corrections, initial TS optimization, DFT functionals, gCP, sTDA/sTD-DF 
  Waldemar Hujo          : DFT-NL                                        
  H. Jonsson             : NEB                                           
  Holger Kruse           : gCP                                           
  Marcel Mueller         : wB97X-3c, vDZP basis set                      
  Hagen Neugebauer       : wr2SCAN                                       
  Tobias Risthaus        : range-separated hybrid DFT                    
  Lukas Wittmann         : regularized MP2, r2SCAN double-hybrids, wr2SCAN        
                                                                         
We gratefully acknowledge several colleagues who have allowed us to      
interface, adapt or use parts of their codes:                            
  Ed Valeev, F. Pavosevic, A. Kumar             : LibInt (2-el integral package), F12 methods 
  Garnet Chan, S. Sharma, J. Yang, R. Olivares  : DMRG                   
  Ulf Ekstrom                                   : XCFun DFT Library      
  Mihaly Kallay                                 : mrcc  (arbitrary order and MRCC methods)
  Frank Weinhold                                : gennbo (NPA and NBO analysis)           
  Simon Mueller                                 : openCOSMO-RS                            
  Christopher J. Cramer and Donald G. Truhlar   : smd solvation model                     
  S Lehtola, MJT Oliveira, MAL Marques          : LibXC Library                           
  Liviu Ungur et al                             : ANISO software                          


 Your calculation uses the libint2 library for the computation of 2-el integrals
 For citations please refer to: http://libint.valeyev.net

 Your ORCA version has been built with support for libXC version: 6.2.2
 For citations please refer to: https://libxc.gitlab.io

 This ORCA versions uses:
   CBLAS   interface :  Fast vector & matrix operations
   LAPACKE interface :  Fast linear algebra routines
   SCALAPACK package :  Parallel linear algebra routines
   Shared memory     :  Shared parallel matrices
   BLAS/LAPACK       :  OpenBLAS 0.3.27  USE64BITINT DYNAMIC_ARCH NO_AFFINITY Zen SINGLE_THREADED
        Core in use  :  Zen
   Copyright (c) 2011-2014, The OpenBLAS Project


Your calculation utilizes the geometrical counterpoise correction gCP
Please cite in your paper:
H.Kruse, S. Grimme J.Chem.Phys., 136, (2012), 154101 
   

Your calculation utilizes the DFT-NL dispersion correction.
Cite in your paper:
Vydrov, O. A.; Van Voorhis, T. J. Chem. Phys. 2010, 133, 244103
Hujo, W.; Grimme, S. J. Chem. Theory Comput. 2011, 7, 3866 
   

================================================================================

----- Orbital basis set information -----
Your calculation utilizes the basis: def2-TZVP
   F. Weigend and R. Ahlrichs, Phys. Chem. Chem. Phys. 7, 3297 (2005).

----- AuxJ basis set information -----
Your calculation utilizes the auxiliary basis: def2/J
   F. Weigend, Phys. Chem. Chem. Phys. 8, 1057 (2006).

================================================================================
                                        WARNINGS
                       Please study these warnings very carefully!
================================================================================

WARNING: Old DensityContainer found on disk!
         Will remove this file - 
         If you want to keep old densities, please start your calculation with a different basename. 


================================================================================
                                       INPUT FILE
================================================================================
NAME = sp.inp
|  1> ! wb97x-v def2-tzvp def2/J RIJCOSX DEFGRID2 scfconv7 GCP(DFT/TZ) printgap
|  2> %output
|  3>     printlevel normal
|  4> end
|  5> * xyz 0 1
|  6> C -1.2502211696358825 -0.9671224789943907 1.2588175166243245
|  7> C -1.0086026008421105 -0.1160565058426951 0.00011955184076489699
|  8> C -1.936425412604956 1.1000082203268982 0.000845392718668667
|  9> C -1.2503674036501753 -0.9657376294279142 -1.2594786472124075
| 10> C 0.43846083518746415 0.3723659295940889 0.00039033790919903397
| 11> O 0.7947142480823391 1.5277519512163447 0.0013299947989453185
| 12> O 1.3103920689409136 -0.6669856173243862 -0.00047998626022077603
| 13> C 2.702525253853316 -0.289378827502686 -0.0001902134759304949
| 14> H -1.0621249397122978 -0.38507297240720145 2.1667691479676994
| 15> H -2.294052350895402 -1.2969971009499952 1.2781242209825665
| 16> H -0.6067206668587101 -1.8498311690997842 1.2722555055934974
| 17> H -1.7685846601541915 1.721326837907963 0.8839935145274571
| 18> H -2.9781674967574845 0.7644849286212293 0.0003299284273317381
| 19> H -1.7681473189234458 1.7227106503613292 -0.8812437731645117
| 20> H -2.294151494460354 -1.2957540540717387 -1.2789079837408448
| 21> H -1.0625719301710796 -0.38264769294688833 -2.1668234454012363
| 22> H -0.6067424080999124 -1.848335823735463 -1.274054415335218
| 23> H 2.9381091535882167 0.29727867997212426 0.8915852811210921
| 24> H 2.936952593536918 0.30317986449185896 -0.8883307084918759
| 25> H 3.2589577990421748 -1.2266512100528877 -0.003574325732721493
| 26> *
| 27> 
| 28>                          ****END OF INPUT****
================================================================================

                       ****************************
                       * Single Point Calculation *
                       ****************************

---------------------------------
CARTESIAN COORDINATES (ANGSTROEM)
---------------------------------
  C     -1.250221   -0.967122    1.258818
  C     -1.008603   -0.116057    0.000120
  C     -1.936425    1.100008    0.000845
  C     -1.250367   -0.965738   -1.259479
  C      0.438461    0.372366    0.000390
  O      0.794714    1.527752    0.001330
  O      1.310392   -0.666986   -0.000480
  C      2.702525   -0.289379   -0.000190
  H     -1.062125   -0.385073    2.166769
  H     -2.294052   -1.296997    1.278124
  H     -0.606721   -1.849831    1.272256
  H     -1.768585    1.721327    0.883994
  H     -2.978167    0.764485    0.000330
  H     -1.768147    1.722711   -0.881244
  H     -2.294151   -1.295754   -1.278908
  H     -1.062572   -0.382648   -2.166823
  H     -0.606742   -1.848336   -1.274054
  H      2.938109    0.297279    0.891585
  H      2.936953    0.303180   -0.888331
  H      3.258958   -1.226651   -0.003574

----------------------------
CARTESIAN COORDINATES (A.U.)
----------------------------
  NO LB      ZA    FRAG     MASS         X           Y           Z
   0 C     6.0000    0    12.011   -2.362576   -1.827597    2.378820
   1 C     6.0000    0    12.011   -1.905983   -0.219315    0.000226
   2 C     6.0000    0    12.011   -3.659314    2.078714    0.001598
   3 C     6.0000    0    12.011   -2.362852   -1.824980   -2.380070
   4 C     6.0000    0    12.011    0.828571    0.703670    0.000738
   5 O     8.0000    0    15.999    1.501792    2.887033    0.002513
   6 O     8.0000    0    15.999    2.476282   -1.260420   -0.000907
   7 C     6.0000    0    12.011    5.107033   -0.546847   -0.000359
   8 H     1.0000    0     1.008   -2.007125   -0.727682    4.094600
   9 H     1.0000    0     1.008   -4.335131   -2.450969    2.415305
  10 H     1.0000    0     1.008   -1.146536   -3.495674    2.404214
  11 H     1.0000    0     1.008   -3.342141    3.252836    1.670506
  12 H     1.0000    0     1.008   -5.627921    1.444667    0.000623
  13 H     1.0000    0     1.008   -3.341314    3.255451   -1.665309
  14 H     1.0000    0     1.008   -4.335318   -2.448620   -2.416786
  15 H     1.0000    0     1.008   -2.007970   -0.723099   -4.094703
  16 H     1.0000    0     1.008   -1.146577   -3.492849   -2.407614
  17 H     1.0000    0     1.008    5.552222    0.561775    1.684852
  18 H     1.0000    0     1.008    5.550036    0.572927   -1.678702
  19 H     1.0000    0     1.008    6.158538   -2.318035   -0.006754

--------------------------------
INTERNAL COORDINATES (ANGSTROEM)
--------------------------------
 C      0   0   0     0.000000000000     0.00000000     0.00000000
 C      1   0   0     1.538510120211     0.00000000     0.00000000
 C      2   1   0     1.529597697143   110.12913287     0.00000000
 C      2   1   3     1.538504421414   109.85429086   238.53062033
 C      2   1   3     1.527268521465   108.99955891   119.15615894
 O      5   2   1     1.209063371422   125.78760448   239.96771481
 O      5   2   1     1.356656357351   111.34298902    59.96357704
 C      7   5   2     1.442436056199   114.81794545   180.00441013
 H      1   2   3     1.094777595993   110.94237468   300.25796174
 H      1   2   3     1.094885176634   109.31825646    59.28114765
 H      1   2   3     1.092450506069   111.37842784   179.21540933
 H      3   2   1     1.092775341866   111.05375516    59.38990358
 H      3   2   1     1.094441736629   109.48992210   299.32547131
 H      3   2   1     1.092774967572   111.05360658   179.26049662
 H      4   2   1     1.094885184794   109.31749332    62.17678581
 H      4   2   1     1.094776505359   110.94321448   181.20024776
 H      4   2   1     1.092449156944   111.37871204   302.24362080
 H      8   7   5     1.093128692174   110.40508276    60.45283820
 H      8   7   5     1.093103618115   110.40954463   299.84338117
 H      8   7   5     1.090003737908   105.52036249   180.14199449

---------------------------
INTERNAL COORDINATES (A.U.)
---------------------------
 C      0   0   0     0.000000000000     0.00000000     0.00000000
 C      1   0   0     2.907362781466     0.00000000     0.00000000
 C      2   1   0     2.890520742678   110.12913287     0.00000000
 C      2   1   3     2.907352012300   109.85429086   238.53062033
 C      2   1   3     2.886119238527   108.99955891   119.15615894
 O      5   2   1     2.284798650543   125.78760448   239.96771481
 O      5   2   1     2.563708973237   111.34298902    59.96357704
 C      7   5   2     2.725809111909   114.81794545   180.00441013
 H      1   2   3     2.068829833980   110.94237468   300.25796174
 H      1   2   3     2.069033131929   109.31825646    59.28114765
 H      1   2   3     2.064432271333   111.37842784   179.21540933
 H      3   2   1     2.065046122029   111.05375516    59.38990358
 H      3   2   1     2.068195151761   109.48992210   299.32547131
 H      3   2   1     2.065045414716   111.05360658   179.26049662
 H      4   2   1     2.069033147348   109.31749332    62.17678581
 H      4   2   1     2.068827772979   110.94321448   181.20024776
 H      4   2   1     2.064429721858   111.37871204   302.24362080
 H      8   7   5     2.065713857341   110.40508276    60.45283820
 H      8   7   5     2.065666474236   110.40954463   299.84338117
 H      8   7   5     2.059808549596   105.52036249   180.14199449

---------------------
BASIS SET INFORMATION
---------------------
There are 3 groups of distinct atoms

 Group   1 Type C   : 11s6p2d1f contracted to 5s3p2d1f pattern {62111/411/11/1}
 Group   2 Type O   : 11s6p2d1f contracted to 5s3p2d1f pattern {62111/411/11/1}
 Group   3 Type H   : 5s1p contracted to 3s1p pattern {311/1}

Atom   0C    basis set group =>   1
Atom   1C    basis set group =>   1
Atom   2C    basis set group =>   1
Atom   3C    basis set group =>   1
Atom   4C    basis set group =>   1
Atom   5O    basis set group =>   2
Atom   6O    basis set group =>   2
Atom   7C    basis set group =>   1
Atom   8H    basis set group =>   3
Atom   9H    basis set group =>   3
Atom  10H    basis set group =>   3
Atom  11H    basis set group =>   3
Atom  12H    basis set group =>   3
Atom  13H    basis set group =>   3
Atom  14H    basis set group =>   3
Atom  15H    basis set group =>   3
Atom  16H    basis set group =>   3
Atom  17H    basis set group =>   3
Atom  18H    basis set group =>   3
Atom  19H    basis set group =>   3
---------------------------------
AUXILIARY/J BASIS SET INFORMATION
---------------------------------
There are 3 groups of distinct atoms

 Group   1 Type C   : 12s5p4d2f1g contracted to 6s4p3d1f1g pattern {711111/2111/211/2/1}
 Group   2 Type O   : 12s5p4d2f1g contracted to 6s4p3d1f1g pattern {711111/2111/211/2/1}
 Group   3 Type H   : 5s2p1d contracted to 3s1p1d pattern {311/2/1}

Atom   0C    basis set group =>   1
Atom   1C    basis set group =>   1
Atom   2C    basis set group =>   1
Atom   3C    basis set group =>   1
Atom   4C    basis set group =>   1
Atom   5O    basis set group =>   2
Atom   6O    basis set group =>   2
Atom   7C    basis set group =>   1
Atom   8H    basis set group =>   3
Atom   9H    basis set group =>   3
Atom  10H    basis set group =>   3
Atom  11H    basis set group =>   3
Atom  12H    basis set group =>   3
Atom  13H    basis set group =>   3
Atom  14H    basis set group =>   3
Atom  15H    basis set group =>   3
Atom  16H    basis set group =>   3
Atom  17H    basis set group =>   3
Atom  18H    basis set group =>   3
Atom  19H    basis set group =>   3

Checking for AutoStart:
The File: sp.gbw exists
Trying to determine its content:
     ... Fine, the file contains calculation information
     ... Fine, the calculation information was read
     ... Fine, the file contains a basis set
     ... Fine, the basis set was read
     ... Fine, the file contains a geometry
     ... Fine, the geometry was read
     ... Fine, the file contains a set of orbitals
     ... Fine, the orbitals can be read
     => possible old guess file was deleted
     => GBW file was renamed to GES file
     => GES file is set as startup file
     => Guess is set to MORead
     ... now leaving AutoStart

------------------------------------------------------------------------------
                             ORCA STARTUP CALCULATIONS
                           -- RI-GTO INTEGRALS CHOSEN --
------------------------------------------------------------------------------
------------------------------------------------------------------------------
                   ___                                                        
                  /   \      - P O W E R E D   B Y -                         
                 /     \                                                     
                 |  |  |   _    _      __       _____    __    __             
                 |  |  |  | |  | |    /  \     |  _  \  |  |  /  |          
                  \  \/   | |  | |   /    \    | | | |  |  | /  /          
                 / \  \   | |__| |  /  /\  \   | |_| |  |  |/  /          
                |  |  |   |  __  | /  /__\  \  |    /   |      \           
                |  |  |   | |  | | |   __   |  |    \   |  |\   \          
                \     /   | |  | | |  |  |  |  | |\  \  |  | \   \       
                 \___/    |_|  |_| |__|  |__|  |_| \__\ |__|  \__/        
                                                                              
                      - O R C A' S   B I G   F R I E N D -                    
                                      &                                       
                       - I N T E G R A L  F E E D E R -                       
                                                                              
 v1 FN, 2020, v2 2021, v3 2022-2024                                           
------------------------------------------------------------------------------


----------------------
SHARK INTEGRAL PACKAGE
----------------------

Number of atoms                             ...     20
Number of basis functions                   ...    320
Number of shells                            ...    136
Maximum angular momentum                    ...      3
Integral batch strategy                     ... SHARK/LIBINT Hybrid
RI-J (if used) integral strategy            ... SPLIT-RIJ (Revised 2003 algorithm where possible)
Printlevel                                  ...      1
Contraction scheme used                     ... SEGMENTED contraction
Prescreening option                         ... SCHWARTZ
   Thresh                                   ... 3.000e-11
   Tcut                                     ... 1.000e-12
   Tpresel                                  ... 1.000e-12 
Coulomb Range Separation                    ... NOT USED
Exchange Range Separation                   ... Long Range
   Mu parameter                             ... 3.000e-01
   Scaling (regular/separated)              ... 1.670e-01 8.330e-01
Multipole approximations                    ... NOT USED
Finite Nucleus Model                        ... NOT USED
CABS basis                                  ... NOT available
Auxiliary Coulomb fitting basis             ... AVAILABLE
   # of basis functions in Aux-J            ...    524
   # of shells in Aux-J                     ...    180
   Maximum angular momentum in Aux-J        ...      4
Auxiliary J/K fitting basis                 ... NOT available
Auxiliary Correlation fitting basis         ... NOT available
Auxiliary 'external' fitting basis          ... NOT available

Checking pre-screening integrals            ... done (  0.0 sec) Dimension = 136
Check shell pair data                       ... done (  0.0 sec)
Shell pair information
Shell pair cut-off parameter TPreSel        ...   1.0e-12
Total number of shell pairs                 ...      9316
Shell pairs after pre-screening             ...      8573
Total number of primitive shell pairs       ...     27240
Primitive shell pairs kept                  ...     18838
          la=0 lb=0:   2591 shell pairs
          la=1 lb=0:   2527 shell pairs
          la=1 lb=1:    629 shell pairs
          la=2 lb=0:   1140 shell pairs
          la=2 lb=1:    557 shell pairs
          la=2 lb=2:    132 shell pairs
          la=3 lb=0:    558 shell pairs
          la=3 lb=1:    277 shell pairs
          la=3 lb=2:    126 shell pairs
          la=3 lb=3:     36 shell pairs

Calculating one electron integrals          ... done (  0.0 sec)
Calculating RI/J V-Matrix + Cholesky decomp.... done (  0.0 sec)
Calculating Nuclear repulsion               ... done (  0.0 sec) ENN=    410.907820787365 Eh

Diagonalization of the overlap matrix:
Smallest eigenvalue                        ... 1.057e-04
Time for diagonalization                   ...    0.007 sec
Threshold for overlap eigenvalues          ... 1.000e-07
Number of eigenvalues below threshold      ... 0
Time for construction of square roots      ...    0.003 sec
Total time needed                          ...    0.012 sec

-------------------
DFT GRID GENERATION
-------------------

General Integration Accuracy     IntAcc      ... 4.388
Radial Grid Type                 RadialGrid  ... OptM3 with GC (2021)
Angular Grid (max. ang.)         AngularGrid ... 4 (Lebedev-302)
Angular grid pruning method      GridPruning ... 4 (adaptive)
Weight generation scheme         WeightScheme... mBecke (2022)
Basis function cutoff            BFCut       ... 1.0000e-11
Integration weight cutoff        WCut        ... 1.0000e-14
Partially contracted basis set               ... off
Rotationally invariant grid construction     ... off
Angular grids for H and He will be reduced by one unit

Total number of grid points                  ...    86598
Total number of batches                      ...     1364
Average number of points per batch           ...       63
Average number of grid points per atom       ...     4330

--------------------
COSX GRID GENERATION
--------------------

GRIDX 1
-------
General Integration Accuracy     IntAcc      ... 3.816
Radial Grid Type                 RadialGrid  ... OptM3 with GC (2021)
Angular Grid (max. ang.)         AngularGrid ... 1 (Lebedev-50)
Angular grid pruning method      GridPruning ... 4 (adaptive)
Weight generation scheme         WeightScheme... mBecke (2022)
Basis function cutoff            BFCut       ... 1.0000e-11
Integration weight cutoff        WCut        ... 1.0000e-14
Partially contracted basis set               ... on
Rotationally invariant grid construction     ... off
Angular grids for H and He will be reduced by one unit

Total number of grid points                  ...    11116
Total number of batches                      ...       98
Average number of points per batch           ...      113
Average number of grid points per atom       ...      556
UseSFitting                                  ... on

GRIDX 2
-------
General Integration Accuracy     IntAcc      ... 4.020
Radial Grid Type                 RadialGrid  ... OptM3 with GC (2021)
Angular Grid (max. ang.)         AngularGrid ... 2 (Lebedev-110)
Angular grid pruning method      GridPruning ... 4 (adaptive)
Weight generation scheme         WeightScheme... mBecke (2022)
Basis function cutoff            BFCut       ... 1.0000e-11
Integration weight cutoff        WCut        ... 1.0000e-14
Partially contracted basis set               ... on
Rotationally invariant grid construction     ... off
Angular grids for H and He will be reduced by one unit

Total number of grid points                  ...    23420
Total number of batches                      ...      192
Average number of points per batch           ...      121
Average number of grid points per atom       ...     1171
UseSFitting                                  ... on

GRIDX 3
-------
General Integration Accuracy     IntAcc      ... 4.338
Radial Grid Type                 RadialGrid  ... OptM3 with GC (2021)
Angular Grid (max. ang.)         AngularGrid ... 3 (Lebedev-194)
Angular grid pruning method      GridPruning ... 4 (adaptive)
Weight generation scheme         WeightScheme... mBecke (2022)
Basis function cutoff            BFCut       ... 1.0000e-11
Integration weight cutoff        WCut        ... 1.0000e-14
Partially contracted basis set               ... on
Rotationally invariant grid construction     ... off
Angular grids for H and He will be reduced by one unit

Total number of grid points                  ...    51087
Total number of batches                      ...      410
Average number of points per batch           ...      124
Average number of grid points per atom       ...     2554
UseSFitting                                  ... on
Initializing property integral containers    ... done (  0.0 sec)

SHARK setup successfully completed in   1.4 seconds

Maximum memory used throughout the entire STARTUP-calculation: 52.3 MB
-------------------------------------------------------------------------------
                                 ORCA GUESS
                   Start orbitals & Density for SCF / CASSCF
-------------------------------------------------------------------------------

------------
SCF SETTINGS
------------
Hamiltonian:
 Density Functional     Method          .... DFT(GTOs)
 Exchange Functional    Exchange        .... WB97X-V
 Correlation Functional Correlation     .... WB97X-V
 Gradients option       PostSCFGGA      .... off
 Hybrid DFT is turned on
   Fraction HF Exchange ScalHFX         ....  0.167000
   Scaling of DF-GGA-X  ScalDFX         ....  0.000000
   Scaling of DF-GGA-C  ScalDFC         ....  1.000000
   Scaling of DF-LDA-C  ScalLDAC        ....  1.000000
   Perturbative correction              ....  0.000000
 Long-range corrected/Screened/Range-Separated Hybrid DFT is turned on
   Amount of maximum screened exact exchange              ....  0.833000
   Range separation parameter mu (erf(mu*r12)/r12)        ....  0.300000
   NL short-range parameter             ....  6.000000
   NL long-range parameter              ....  0.010000
 RI-approximation to the Coulomb term is turned on
   Number of AuxJ basis functions       .... 524
   RIJ-COSX (HFX calculated with COS-X)).... on


General Settings:
 Integral files         IntName         .... sp
 Hartree-Fock type      HFTyp           .... RHF
 Total Charge           Charge          ....    0
 Multiplicity           Mult            ....    1
 Number of Electrons    NEL             ....   64
 Basis Dimension        Dim             ....  320
 Nuclear Repulsion      ENuc            ....    410.9078207874 Eh

Convergence Acceleration:
 AO-DIIS                CNVDIIS         .... on
   Start iteration      DIISMaxIt       ....    12
   Startup error        DIISStart       ....  0.200000
   # of expansion vecs  DIISMaxEq       ....     5
   Bias factor          DIISBfac        ....   1.050
   Max. coefficient     DIISMaxC        ....  10.000
 MO-DIIS                CNVKDIIS        .... off
 Trust-Rad. Augm. Hess. CNVTRAH         .... auto
   Auto Start mean grad. ratio tolernc. ....  1.125000
   Auto Start start iteration           ....     1
   Auto Start num. interpolation iter.  ....    10
   Max. Number of Micro iterations      ....    24
   Max. Number of Macro iterations      .... Maxiter - #DIIS iter
   Number of Davidson start vectors     ....     2
   Converg. threshold    (grad. norm)   ....   1.000e-04
   Grad. Scal. Fac. for Micro threshold ....   0.100
   Minimum threshold for Micro iter.    ....   1.000e-02
   NR start threshold (gradient norm)   ....   1.000e-04
   Initial trust radius                 ....   0.400
   Minimum AH scaling param. (alpha)    ....   1.000
   Maximum AH scaling param. (alpha)    .... 1000.000
   Quad. conv. algorithm                .... NR
   White noise on init. David. guess    .... on
   Maximum white noise                  ....   0.010
   Pseudo random numbers                .... off
   Inactive MOs                         .... canonical
   Orbital update algorithm             .... Taylor
   Preconditioner                       .... Diag
   Full preconditioner red. dimension   ....   250
 SOSCF                  CNVSOSCF        .... on
   Start iteration      SOSCFMaxIt      ....   150
   Startup grad/error   SOSCFStart      ....  0.003300
   Hessian update       SOSCFHessUp     .... L-BFGS
 Level Shifting         CNVShift        .... on
   Level shift para.    LevelShift      ....    0.2500
   Turn off err/grad.   ShiftErr        ....    0.0010
 Zerner damping         CNVZerner       .... off
 Static damping         CNVDamp         .... on
   Fraction old density DampFac         ....    0.7000
   Max. Damping (<1)    DampMax         ....    0.9800
   Min. Damping (>=0)   DampMin         ....    0.0000
   Turn off err/grad.   DampErr         ....    0.1000

SCF Procedure:
 Maximum # iterations   MaxIter         ....   125
 SCF integral mode      SCFMode         .... Direct
   Integral package                     .... SHARK and LIBINT hybrid scheme
 Reset frequency        DirectResetFreq ....    20
 Integral Threshold     Thresh          ....  3.000e-11 Eh
 Primitive CutOff       TCut            ....  1.000e-12 Eh

Convergence Tolerance:
 Convergence Check Mode ConvCheckMode   .... Total+1el-Energy
 Convergence forced     ConvForced      .... 0
 Energy Change          TolE            ....  1.000e-07 Eh
 1-El. energy change                    ....  1.000e-04 Eh
 Orbital Gradient       TolG            ....  1.000e-04
 Orbital Rotation angle TolX            ....  1.000e-04
 DIIS Error             TolErr          ....  1.000e-07

---------------------
INITIAL GUESS: MOREAD
---------------------
Guess MOs are being read from file: sp.ges
Input Geometry matches current geometry (good)
Atom 0: N(Shells)= 11 and 9 - projection required
Input basis set needs projection
NBasis(read)= 222
NBasis(calc)= 320
Basis set overlap was calculated
Using GuessMode=FMatrix for the initial guess
C*T matrix was formed
Effective Fockian was calculated
Effective Fockian was diagonalized
Initial density was built
                      ------------------
                      INITIAL GUESS DONE (   0.0 sec)
                      ------------------
             **** ENERGY FILE WAS UPDATED (sp.en.tmp) ****
Finished Guess after   0.1 sec
Maximum memory used throughout the entire GUESS-calculation: 31.4 MB

-------------------------------------------------------------------------------------------
                                      ORCA LEAN-SCF
                              memory conserving SCF solver
-------------------------------------------------------------------------------------------

----------------------------------------D-I-I-S--------------------------------------------
Iteration    Energy (Eh)           Delta-E    RMSDP     MaxDP     DIISErr   Damp  Time(sec)
-------------------------------------------------------------------------------------------
               ***  Starting incremental Fock matrix formation  ***
    1    -386.5935273306428712     0.00e+00  9.55e-04  7.21e-02  6.10e-02  0.700  13.9
    2    -386.5984840542265033    -4.96e-03  8.14e-04  5.87e-02  4.44e-02  0.700   6.5
                               ***Turning on AO-DIIS***
    3    -386.6022343788228568    -3.75e-03  6.63e-04  4.57e-02  3.18e-02  0.700   6.6
    4    -386.6050015814058156    -2.77e-03  1.64e-03  1.11e-01  2.24e-02  0.000   6.5
                              *** Initializing SOSCF ***
---------------------------------------S-O-S-C-F--------------------------------------
Iteration    Energy (Eh)           Delta-E    RMSDP     MaxDP     MaxGrad    Time(sec)
--------------------------------------------------------------------------------------
    5    -386.6120748397254943    -7.07e-03  6.11e-05  2.00e-03  1.60e-03     7.0
               *** Restarting incremental Fock matrix formation ***
    6    -386.6120880798915209    -1.32e-05  2.78e-05  9.37e-04  5.39e-04    13.9
    7    -386.6120938685260739    -5.79e-06  1.54e-05  5.54e-04  1.86e-04    10.5
    8    -386.6120946540171985    -7.85e-07  3.19e-06  1.84e-04  8.90e-05     9.9
    9    -386.6120948195970755    -1.66e-07  1.84e-06  6.53e-05  5.40e-05     8.8
   10    -386.6120948486691873    -2.91e-08  4.78e-07  2.73e-05  1.97e-05     8.0
                 **** Energy Check signals convergence ****

               *****************************************************
               *                     SUCCESS                       *
               *           SCF CONVERGED AFTER  10 CYCLES          *
               *****************************************************


------------------
NL GRID GENERATION
------------------

General Integration Accuracy     IntAcc      ... 4.004
Radial Grid Type                 RadialGrid  ... OptM3 with GC (2021)
Angular Grid (max. ang.)         AngularGrid ... 2 (Lebedev-110)
Angular grid pruning method      GridPruning ... 4 (adaptive)
Weight generation scheme         WeightScheme... mBecke (2022)
Basis function cutoff            BFCut       ... 1.0000e-10
Integration weight cutoff        WCut        ... 1.0000e-14
Partially contracted basis set               ... off
Rotationally invariant grid construction     ... off
Angular grids for H and He will be reduced by one unit

Total number of grid points                  ...    26221
Total number of batches                      ...      419
Average number of points per batch           ...       62
Average number of grid points per atom       ...     1311
Final grid set up in    0.2 sec

-------------------------------------------------------------------------------
                    post-SCF DFT-NL dispersion correction                      
-------------------------------------------------------------------------------

SCF Energy:     -386.612094849 
NL    Energy:      0.243829250 
SC+NL Energy:   -386.368265599 
NL done in  :              2.2 sec
-------------------------------------------------------------------------------
Recomputing exchange energy using gridx3       ... done (   25.963 sec)
Old exchange energy                            :    -17.017262477 Eh
New exchange energy                            :    -17.017289406 Eh
Exchange energy change after final integration :     -0.000026929 Eh
Total energy after final integration           :   -386.368292528 Eh
             **** ENERGY FILE WAS UPDATED (sp.en.tmp) ****

----------------
TOTAL SCF ENERGY
----------------

Total Energy       :       -386.36829252800169 Eh          -10513.61574 eV

Components:
Nuclear Repulsion  :        410.90782078736510 Eh           11181.37025 eV
Electronic Energy  :       -797.51991563603428 Eh          -21701.62019 eV
One Electron Energy:      -1338.79714050430175 Eh          -36430.52229 eV
Two Electron Energy:        541.27722486826747 Eh           14728.90209 eV

Virial components:
Potential Energy   :       -771.15119492385929 Eh          -20984.09082 eV
Kinetic Energy     :        384.78290239585755 Eh           10470.47508 eV
Virial Ratio       :          2.00412021979738

DFT components:
N(Alpha)           :       31.999968990959 electrons
N(Beta)            :       31.999968990959 electrons
N(Total)           :       63.999937981919 electrons
E(X)               :      -34.790036869113 Eh       
E(C)               :       -2.629516078085 Eh       
NL Energy, E(C,NL) :        0.243829249749 Eh       
E(XC)              :      -37.175723697449 Eh       

---------------
SCF CONVERGENCE
---------------

  Last Energy change         ...    2.9072e-08  Tolerance :   1.0000e-07
  Last MAX-Density change    ...    2.7310e-05  Tolerance :   1.0000e-05
  Last RMS-Density change    ...    4.7803e-07  Tolerance :   1.0000e-06
  Last DIIS Error            ...    1.6041e-03  Tolerance :   1.0000e-07
  Last Orbital Gradient      ...    1.9745e-05  Tolerance :   1.0000e-04
  Last Orbital Rotation      ...    2.4095e-05  Tolerance :   1.0000e-04


----------------
ORBITAL ENERGIES
----------------

  NO   OCC          E(Eh)            E(eV) 
   0   2.0000     -19.258791      -524.0583 
   1   2.0000     -19.199298      -522.4395 
   2   2.0000     -10.396454      -282.9019 
   3   2.0000     -10.325885      -280.9816 
   4   2.0000     -10.299262      -280.2572 
   5   2.0000     -10.267110      -279.3823 
   6   2.0000     -10.267101      -279.3820 
   7   2.0000     -10.258148      -279.1384 
   8   2.0000      -1.236460       -33.6458 
   9   2.0000      -1.145829       -31.1796 
  10   2.0000      -0.966369       -26.2962 
  11   2.0000      -0.857807       -23.3421 
  12   2.0000      -0.825794       -22.4710 
  13   2.0000      -0.818430       -22.2706 
  14   2.0000      -0.739633       -20.1264 
  15   2.0000      -0.667238       -18.1565 
  16   2.0000      -0.614194       -16.7131 
  17   2.0000      -0.604001       -16.4357 
  18   2.0000      -0.593710       -16.1557 
  19   2.0000      -0.557522       -15.1709 
  20   2.0000      -0.554341       -15.0844 
  21   2.0000      -0.543056       -14.7773 
  22   2.0000      -0.514557       -14.0018 
  23   2.0000      -0.503702       -13.7064 
  24   2.0000      -0.486434       -13.2365 
  25   2.0000      -0.482571       -13.1314 
  26   2.0000      -0.475489       -12.9387 
  27   2.0000      -0.459256       -12.4970 
  28   2.0000      -0.438673       -11.9369 
  29   2.0000      -0.438383       -11.9290 
  30   2.0000      -0.412142       -11.2150 
  31   2.0000      -0.378264       -10.2931 
  32   0.0000       0.099210         2.6996 
  33   0.0000       0.104280         2.8376 
  34   0.0000       0.134882         3.6703 
  35   0.0000       0.153976         4.1899 
  36   0.0000       0.163163         4.4399 
  37   0.0000       0.165045         4.4911 
  38   0.0000       0.170219         4.6319 
  39   0.0000       0.174596         4.7510 
  40   0.0000       0.181880         4.9492 
  41   0.0000       0.199708         5.4343 
  42   0.0000       0.205070         5.5802 
*Only the first 10 virtual orbitals were printed.

                    ********************************
                    * MULLIKEN POPULATION ANALYSIS *
                    ********************************

-----------------------
MULLIKEN ATOMIC CHARGES
-----------------------
   0 C :   -0.383241
   1 C :    0.136616
   2 C :   -0.343838
   3 C :   -0.383277
   4 C :    0.279858
   5 O :   -0.328048
   6 O :   -0.250551
   7 C :   -0.195471
   8 H :    0.120153
   9 H :    0.115504
  10 H :    0.130276
  11 H :    0.120169
  12 H :    0.111978
  13 H :    0.120177
  14 H :    0.115504
  15 H :    0.120145
  16 H :    0.130280
  17 H :    0.128323
  18 H :    0.128467
  19 H :    0.126975
Sum of atomic charges:    0.0000000

--------------------------------
MULLIKEN REDUCED ORBITAL CHARGES
--------------------------------
  0 C s       :     3.261142  s :     3.261142
      pz      :     0.968527  p :     3.062013
      px      :     1.061538
      py      :     1.031948
      dz2     :     0.018307  d :     0.056782
      dxz     :     0.006367
      dyz     :     0.011836
      dx2y2   :     0.008051
      dxy     :     0.012221
      f0      :     0.000553  f :     0.003304
      f+1     :     0.000317
      f-1     :     0.001071
      f+2     :     0.000299
      f-2     :     0.000373
      f+3     :     0.000439
      f-3     :     0.000253

  1 C s       :     2.963732  s :     2.963732
      pz      :     0.903535  p :     2.719986
      px      :     0.895695
      py      :     0.920756
      dz2     :     0.040261  d :     0.169890
      dxz     :     0.024130
      dyz     :     0.039642
      dx2y2   :     0.035705
      dxy     :     0.030151
      f0      :     0.001900  f :     0.009776
      f+1     :     0.000937
      f-1     :     0.001416
      f+2     :     0.000934
      f-2     :     0.001651
      f+3     :     0.001362
      f-3     :     0.001575

  2 C s       :     3.239460  s :     3.239460
      pz      :     1.085620  p :     3.045775
      px      :     0.989564
      py      :     0.970590
      dz2     :     0.007081  d :     0.055226
      dxz     :     0.003069
      dyz     :     0.020713
      dx2y2   :     0.015861
      dxy     :     0.008501
      f0      :     0.000332  f :     0.003378
      f+1     :     0.000121
      f-1     :     0.000931
      f+2     :    -0.000017
      f-2     :     0.000507
      f+3     :     0.000569
      f-3     :     0.000934

  3 C s       :     3.261172  s :     3.261172
      pz      :     0.968402  p :     3.062015
      px      :     1.061538
      py      :     1.032075
      dz2     :     0.018290  d :     0.056785
      dxz     :     0.006377
      dyz     :     0.011862
      dx2y2   :     0.008043
      dxy     :     0.012214
      f0      :     0.000554  f :     0.003304
      f+1     :     0.000318
      f-1     :     0.001071
      f+2     :     0.000299
      f-2     :     0.000372
      f+3     :     0.000438
      f-3     :     0.000253

  4 C s       :     3.114330  s :     3.114330
      pz      :     0.728627  p :     2.318402
      px      :     0.856626
      py      :     0.733150
      dz2     :     0.007931  d :     0.263255
      dxz     :     0.024331
      dyz     :     0.071322
      dx2y2   :     0.070583
      dxy     :     0.089089
      f0      :     0.002919  f :     0.024154
      f+1     :     0.001041
      f-1     :     0.001422
      f+2     :     0.001787
      f-2     :     0.003644
      f+3     :     0.005896
      f-3     :     0.007445

  5 O s       :     3.791182  s :     3.791182
      pz      :     1.393786  p :     4.502903
      px      :     1.735306
      py      :     1.373811
      dz2     :     0.002733  d :     0.032050
      dxz     :     0.001048
      dyz     :     0.010800
      dx2y2   :     0.008829
      dxy     :     0.008639
      f0      :     0.000190  f :     0.001913
      f+1     :     0.000033
      f-1     :     0.000165
      f+2     :     0.000335
      f-2     :     0.000153
      f+3     :     0.000507
      f-3     :     0.000530

  6 O s       :     3.743602  s :     3.743602
      pz      :     1.726877  p :     4.466022
      px      :     1.206478
      py      :     1.532667
      dz2     :     0.004393  d :     0.038908
      dxz     :     0.005097
      dyz     :     0.004474
      dx2y2   :     0.010135
      dxy     :     0.014810
      f0      :     0.000266  f :     0.002019
      f+1     :     0.000363
      f-1     :     0.000194
      f+2     :     0.000100
      f-2     :     0.000214
      f+3     :     0.000437
      f-3     :     0.000444

  7 C s       :     3.239368  s :     3.239368
      pz      :     1.094520  p :     2.858791
      px      :     0.702642
      py      :     1.061629
      dz2     :     0.008567  d :     0.090086
      dxz     :     0.027404
      dyz     :     0.012919
      dx2y2   :     0.016228
      dxy     :     0.024968
      f0      :     0.000908  f :     0.007225
      f+1     :     0.000601
      f-1     :     0.001057
      f+2     :     0.001285
      f-2     :     0.000214
      f+3     :     0.001811
      f-3     :     0.001349

  8 H s       :     0.858893  s :     0.858893
      pz      :     0.010374  p :     0.020954
      px      :     0.004364
      py      :     0.006216

  9 H s       :     0.863447  s :     0.863447
      pz      :     0.004126  p :     0.021048
      px      :     0.011819
      py      :     0.005104

 10 H s       :     0.848507  s :     0.848507
      pz      :     0.004124  p :     0.021217
      px      :     0.007266
      py      :     0.009827

 11 H s       :     0.858583  s :     0.858583
      pz      :     0.009544  p :     0.021248
      px      :     0.004327
      py      :     0.007378

 12 H s       :     0.867111  s :     0.867111
      pz      :     0.004198  p :     0.020911
      px      :     0.012051
      py      :     0.004662

 13 H s       :     0.858574  s :     0.858574
      pz      :     0.009530  p :     0.021248
      px      :     0.004328
      py      :     0.007391

 14 H s       :     0.863448  s :     0.863448
      pz      :     0.004126  p :     0.021048
      px      :     0.011818
      py      :     0.005104

 15 H s       :     0.858901  s :     0.858901
      pz      :     0.010366  p :     0.020954
      px      :     0.004363
      py      :     0.006224

 16 H s       :     0.848503  s :     0.848503
      pz      :     0.004124  p :     0.021217
      px      :     0.007267
      py      :     0.009825

 17 H s       :     0.851524  s :     0.851524
      pz      :     0.010114  p :     0.020153
      px      :     0.003109
      py      :     0.006930

 18 H s       :     0.851376  s :     0.851376
      pz      :     0.010063  p :     0.020157
      px      :     0.003104
      py      :     0.006989

 19 H s       :     0.852732  s :     0.852732
      pz      :     0.004178  p :     0.020293
      px      :     0.005399
      py      :     0.010716


------------------------
MULLIKEN OVERLAP CHARGES
------------------------
B(  0-C ,  1-C ) :   0.6646 B(  0-C ,  2-C ) :  -0.1207 B(  0-C ,  3-C ) :  -0.1063 
B(  0-C ,  4-C ) :  -0.0771 B(  0-C ,  8-H ) :   0.8121 B(  0-C ,  9-H ) :   0.8242 
B(  0-C , 10-H ) :   0.8122 B(  1-C ,  2-C ) :   0.6844 B(  1-C ,  3-C ) :   0.6644 
B(  1-C ,  4-C ) :   0.5386 B(  1-C ,  5-O ) :  -0.2074 B(  1-C ,  6-O ) :  -0.2083 
B(  1-C ,  8-H ) :  -0.0674 B(  1-C ,  9-H ) :  -0.0773 B(  1-C , 10-H ) :  -0.0514 
B(  1-C , 12-H ) :  -0.1083 B(  1-C , 14-H ) :  -0.0773 B(  1-C , 15-H ) :  -0.0674 
B(  1-C , 16-H ) :  -0.0514 B(  2-C ,  3-C ) :  -0.1207 B(  2-C ,  4-C ) :  -0.1261 
B(  2-C , 11-H ) :   0.8011 B(  2-C , 12-H ) :   0.8526 B(  2-C , 13-H ) :   0.8012 
B(  3-C ,  4-C ) :  -0.0770 B(  3-C , 14-H ) :   0.8242 B(  3-C , 15-H ) :   0.8121 
B(  3-C , 16-H ) :   0.8122 B(  4-C ,  5-O ) :   1.4117 B(  4-C ,  6-O ) :   0.7635 
B(  4-C ,  7-C ) :  -0.0871 B(  5-O ,  6-O ) :  -0.1837 B(  6-O ,  7-C ) :   0.4831 
B(  6-O , 17-H ) :  -0.0727 B(  6-O , 18-H ) :  -0.0727 B(  6-O , 19-H ) :  -0.0649 
B(  7-C , 17-H ) :   0.8428 B(  7-C , 18-H ) :   0.8428 B(  7-C , 19-H ) :   0.7928 
B( 11-H , 12-H ) :  -0.0504 B( 12-H , 13-H ) :  -0.0503 B( 17-H , 18-H ) :  -0.0748 
B( 17-H , 19-H ) :  -0.0512 B( 18-H , 19-H ) :  -0.0512 


                     *******************************
                     * LOEWDIN POPULATION ANALYSIS *
                     *******************************

----------------------
LOEWDIN ATOMIC CHARGES
----------------------
   0 C :   -0.247425
   1 C :   -0.325860
   2 C :   -0.247805
   3 C :   -0.247433
   4 C :   -0.420452
   5 O :    0.109976
   6 O :    0.226930
   7 C :   -0.296558
   8 H :    0.124440
   9 H :    0.123745
  10 H :    0.124029
  11 H :    0.126020
  12 H :    0.120960
  13 H :    0.126022
  14 H :    0.123742
  15 H :    0.124437
  16 H :    0.124028
  17 H :    0.110993
  18 H :    0.111029
  19 H :    0.109180

-------------------------------
LOEWDIN REDUCED ORBITAL CHARGES
-------------------------------
  0 C s       :     2.822020  s :     2.822020
      pz      :     1.024760  p :     3.140628
      px      :     1.065782
      py      :     1.050086
      dz2     :     0.081485  d :     0.260609
      dxz     :     0.025338
      dyz     :     0.060888
      dx2y2   :     0.037158
      dxy     :     0.055740
      f0      :     0.003487  f :     0.024168
      f+1     :     0.004444
      f-1     :     0.004763
      f+2     :     0.003756
      f-2     :     0.003274
      f+3     :     0.002658
      f-3     :     0.001786

  1 C s       :     2.695546  s :     2.695546
      pz      :     0.993644  p :     2.951938
      px      :     0.959872
      py      :     0.998422
      dz2     :     0.137311  d :     0.612001
      dxz     :     0.084425
      dyz     :     0.141130
      dx2y2   :     0.123196
      dxy     :     0.125939
      f0      :     0.011957  f :     0.066376
      f+1     :     0.008424
      f-1     :     0.007462
      f+2     :     0.008042
      f-2     :     0.011179
      f+3     :     0.008565
      f-3     :     0.010747

  2 C s       :     2.818726  s :     2.818726
      pz      :     1.073092  p :     3.142288
      px      :     1.038319
      py      :     1.030877
      dz2     :     0.038531  d :     0.262130
      dxz     :     0.011926
      dyz     :     0.091027
      dx2y2   :     0.073801
      dxy     :     0.046845
      f0      :     0.002215  f :     0.024661
      f+1     :     0.002701
      f-1     :     0.003795
      f+2     :     0.001889
      f-2     :     0.004106
      f+3     :     0.003666
      f-3     :     0.006289

  3 C s       :     2.822019  s :     2.822019
      pz      :     1.024703  p :     3.140636
      px      :     1.065783
      py      :     1.050151
      dz2     :     0.081424  d :     0.260609
      dxz     :     0.025378
      dyz     :     0.060989
      dx2y2   :     0.037118
      dxy     :     0.055699
      f0      :     0.003493  f :     0.024168
      f+1     :     0.004451
      f-1     :     0.004759
      f+2     :     0.003757
      f-2     :     0.003268
      f+3     :     0.002654
      f-3     :     0.001785

  4 C s       :     2.751919  s :     2.751919
      pz      :     0.706594  p :     2.600297
      px      :     0.939727
      py      :     0.953976
      dz2     :     0.062582  d :     0.918999
      dxz     :     0.076465
      dyz     :     0.187925
      dx2y2   :     0.268921
      dxy     :     0.323105
      f0      :     0.009384  f :     0.149238
      f+1     :     0.006219
      f-1     :     0.012386
      f+2     :     0.012095
      f-2     :     0.022745
      f+3     :     0.038563
      f-3     :     0.047846

  5 O s       :     3.392788  s :     3.392788
      pz      :     1.313288  p :     4.424062
      px      :     1.605511
      py      :     1.505264
      dz2     :     0.008133  d :     0.067098
      dxz     :     0.001222
      dyz     :     0.013012
      dx2y2   :     0.023434
      dxy     :     0.021297
      f0      :     0.000413  f :     0.006075
      f+1     :     0.000167
      f-1     :     0.000898
      f+2     :     0.000618
      f-2     :     0.000226
      f+3     :     0.001843
      f-3     :     0.001910

  6 O s       :     3.259886  s :     3.259886
      pz      :     1.590418  p :     4.402057
      px      :     1.269107
      py      :     1.542532
      dz2     :     0.011001  d :     0.104648
      dxz     :     0.016179
      dyz     :     0.007005
      dx2y2   :     0.031156
      dxy     :     0.039307
      f0      :     0.000548  f :     0.006481
      f+1     :     0.000741
      f-1     :     0.000383
      f+2     :     0.000439
      f-2     :     0.000643
      f+3     :     0.001723
      f-3     :     0.002003

  7 C s       :     2.863061  s :     2.863061
      pz      :     1.116424  p :     3.019037
      px      :     0.807865
      py      :     1.094748
      dz2     :     0.048358  d :     0.362994
      dxz     :     0.082735
      dyz     :     0.052263
      dx2y2   :     0.069460
      dxy     :     0.110178
      f0      :     0.005257  f :     0.051465
      f+1     :     0.007031
      f-1     :     0.003707
      f+2     :     0.009143
      f-2     :     0.002320
      f+3     :     0.012132
      f-3     :     0.011876

  8 H s       :     0.815153  s :     0.815153
      pz      :     0.027475  p :     0.060406
      px      :     0.013768
      py      :     0.019163

  9 H s       :     0.815995  s :     0.815995
      pz      :     0.012491  p :     0.060260
      px      :     0.032934
      py      :     0.014835

 10 H s       :     0.814488  s :     0.814488
      pz      :     0.012433  p :     0.061483
      px      :     0.021469
      py      :     0.027582

 11 H s       :     0.813205  s :     0.813205
      pz      :     0.027664  p :     0.060775
      px      :     0.013271
      py      :     0.019840

 12 H s       :     0.819071  s :     0.819071
      pz      :     0.013340  p :     0.059968
      px      :     0.031909
      py      :     0.014720

 13 H s       :     0.813202  s :     0.813202
      pz      :     0.027628  p :     0.060775
      px      :     0.013274
      py      :     0.019873

 14 H s       :     0.815998  s :     0.815998
      pz      :     0.012490  p :     0.060260
      px      :     0.032932
      py      :     0.014837

 15 H s       :     0.815156  s :     0.815156
      pz      :     0.027454  p :     0.060406
      px      :     0.013766
      py      :     0.019187

 16 H s       :     0.814488  s :     0.814488
      pz      :     0.012432  p :     0.061484
      px      :     0.021472
      py      :     0.027579

 17 H s       :     0.827603  s :     0.827603
      pz      :     0.030649  p :     0.061405
      px      :     0.009653
      py      :     0.021102

 18 H s       :     0.827548  s :     0.827548
      pz      :     0.030510  p :     0.061423
      px      :     0.009640
      py      :     0.021273

 19 H s       :     0.830501  s :     0.830501
      pz      :     0.013530  p :     0.060319
      px      :     0.015080
      py      :     0.031708


---------------------------------
LOEWDIN BOND ORDERS (THRESH 0.050000)
---------------------------------
B(  0-C ,  1-C ) :   1.1458 B(  0-C ,  2-C ) :   0.1410 B(  0-C ,  3-C ) :   0.1406 
B(  0-C ,  4-C ) :   0.1451 B(  0-C ,  8-H ) :   0.8971 B(  0-C ,  9-H ) :   0.8927 
B(  0-C , 10-H ) :   0.8972 B(  1-C ,  2-C ) :   1.1586 B(  1-C ,  3-C ) :   1.1458 
B(  1-C ,  4-C ) :   1.0304 B(  1-C ,  5-O ) :   0.1443 B(  1-C ,  6-O ) :   0.1195 
B(  1-C ,  8-H ) :   0.0750 B(  1-C ,  9-H ) :   0.0785 B(  1-C , 10-H ) :   0.0744 
B(  1-C , 11-H ) :   0.0767 B(  1-C , 12-H ) :   0.0799 B(  1-C , 13-H ) :   0.0767 
B(  1-C , 14-H ) :   0.0785 B(  1-C , 15-H ) :   0.0750 B(  1-C , 16-H ) :   0.0744 
B(  2-C ,  3-C ) :   0.1410 B(  2-C ,  4-C ) :   0.1416 B(  2-C , 11-H ) :   0.8941 
B(  2-C , 12-H ) :   0.8928 B(  2-C , 13-H ) :   0.8940 B(  3-C ,  4-C ) :   0.1450 
B(  3-C , 14-H ) :   0.8927 B(  3-C , 15-H ) :   0.8971 B(  3-C , 16-H ) :   0.8972 
B(  4-C ,  5-O ) :   2.6400 B(  4-C ,  6-O ) :   1.6340 B(  4-C ,  7-C ) :   0.1979 
B(  5-O ,  6-O ) :   0.1714 B(  5-O ,  7-C ) :   0.0685 B(  6-O ,  7-C ) :   1.3802 
B(  6-O , 19-H ) :   0.0518 B(  7-C , 17-H ) :   0.9369 B(  7-C , 18-H ) :   0.9368 
B(  7-C , 19-H ) :   0.9402 

------------------------------------------
LOEWDIN REDUCED ORBITAL POPULATIONS PER MO
-------------------------------------------
THRESHOLD FOR PRINTING IS 0.1%%
                      0         1         2         3         4         5   
                 -19.25879 -19.19930 -10.39645 -10.32589 -10.29926 -10.26711
                   2.00000   2.00000   2.00000   2.00000   2.00000   2.00000
                  --------  --------  --------  --------  --------  --------
 0 C  s               0.0       0.0       0.0       0.0       0.0      75.7
 1 C  s               0.0       0.0       0.0       0.0      99.0       0.0
 1 C  pz              0.0       0.0       0.0       0.0       0.0       0.1
 1 C  dyz             0.0       0.0       0.0       0.0       0.0       0.2
 2 C  dxy             0.0       0.0       0.0       0.0       0.1       0.0
 3 C  s               0.0       0.0       0.0       0.0       0.0      23.7
 4 C  s               0.0       0.0      99.0       0.0       0.0       0.0
 5 O  s               0.0      99.6       0.0       0.0       0.0       0.0
 5 O  py              0.0       0.0       0.2       0.0       0.0       0.0
 5 O  dx2y2           0.0       0.0       0.1       0.0       0.0       0.0
 6 O  s              99.7       0.0       0.0       0.0       0.0       0.0
 7 C  s               0.0       0.0       0.0      99.6       0.0       0.0

                      6         7         8         9        10        11   
                 -10.26710 -10.25815  -1.23646  -1.14583  -0.96637  -0.85781
                   2.00000   2.00000   2.00000   2.00000   2.00000   2.00000
                  --------  --------  --------  --------  --------  --------
 0 C  s              23.7       0.0       0.1       0.0       9.4       0.4
 0 C  pz              0.0       0.0       0.1       0.0       2.6       0.0
 0 C  px              0.0       0.0       0.2       0.0       0.1       0.3
 0 C  py              0.0       0.0       0.1       0.0       1.1       0.0
 0 C  dz2             0.0       0.0       0.0       0.0       0.2       0.0
 0 C  dyz             0.0       0.0       0.0       0.0       0.4       0.0
 1 C  s               0.0       0.0       1.0       0.1      23.4       0.3
 1 C  px              0.0       0.0       2.2       0.0       0.2       3.9
 1 C  py              0.0       0.1       0.1       0.7       0.1       0.3
 1 C  dz2             0.1       0.0       0.1       0.0       0.0       0.0
 1 C  dx2y2           0.0       0.0       0.2       0.0       0.0       0.5
 1 C  dxy             0.0       0.1       0.1       0.3       0.0       0.1
 1 C  f-1             0.0       0.0       0.0       0.0       0.2       0.0
 2 C  s               0.0      99.4       0.1       0.1       8.4       4.1
 2 C  px              0.0       0.0       0.3       0.3       1.1       0.0
 2 C  py              0.0       0.0       0.0       0.0       2.6       0.1
 2 C  dz2             0.0       0.0       0.0       0.0       0.2       0.0
 2 C  dxy             0.0       0.0       0.0       0.0       0.5       0.0
 3 C  s              75.8       0.0       0.1       0.0       9.4       0.4
 3 C  pz              0.0       0.0       0.1       0.0       2.6       0.0
 3 C  px              0.0       0.0       0.2       0.0       0.1       0.3
 3 C  py              0.0       0.0       0.1       0.0       1.1       0.0
 3 C  dz2             0.0       0.0       0.0       0.0       0.2       0.0
 3 C  dyz             0.0       0.0       0.0       0.0       0.4       0.0
 4 C  s               0.0       0.0      17.9       3.2       2.0       3.2
 4 C  px              0.0       0.0       4.6       0.3       7.9       0.3
 4 C  py              0.0       0.0       0.1      23.5       2.2       4.1
 4 C  dz2             0.0       0.0       1.8       0.1       0.1       0.0
 4 C  dx2y2           0.0       0.0       0.7       1.4       0.6       0.3
 4 C  dxy             0.0       0.0       0.6       4.0       0.2       0.2
 4 C  f+1             0.0       0.0       0.1       0.0       0.0       0.0
 4 C  f-1             0.0       0.0       0.0       0.4       0.0       0.1
 4 C  f+3             0.0       0.0       0.6       0.0       0.0       0.1
 4 C  f-3             0.0       0.0       0.3       0.0       0.0       0.0
 5 O  s               0.0       0.0      14.6      35.3       1.2       0.5
 5 O  px              0.0       0.0       0.0       0.6       0.3       0.0
 5 O  py              0.0       0.0       3.4       2.5       0.1       0.4
 5 O  dx2y2           0.0       0.0       0.2       0.1       0.0       0.0
 5 O  dxy             0.0       0.0       0.0       0.1       0.0       0.0
 6 O  s               0.0       0.0      32.6      18.5       0.2       0.6
 6 O  px              0.0       0.0       0.0       0.4       2.3      21.9
 6 O  py              0.0       0.0       2.8       0.4       0.0       0.7
 6 O  dz2             0.0       0.0       0.1       0.0       0.0       0.0
 6 O  dx2y2           0.0       0.0       0.0       0.1       0.0       0.3
 6 O  dxy             0.0       0.0       0.1       0.0       0.1       0.5
 7 C  s               0.0       0.0       4.1       2.5       1.1      26.4
 7 C  px              0.0       0.0       5.5       1.9       0.1       0.5
 7 C  py              0.0       0.0       0.1       0.5       0.0       0.1
 7 C  dz2             0.0       0.0       0.6       0.2       0.0       0.0
 7 C  dx2y2           0.0       0.0       1.3       0.6       0.0       0.2
 7 C  dxy             0.0       0.0       0.2       0.3       0.0       0.0
 7 C  f+1             0.0       0.0       0.1       0.1       0.0       0.0
 7 C  f+3             0.0       0.0       0.1       0.1       0.0       0.0
 8 H  s               0.0       0.0       0.0       0.0       1.7       0.1
 8 H  pz              0.0       0.0       0.0       0.0       0.1       0.0
 9 H  s               0.0       0.0       0.0       0.0       1.8       0.2
 9 H  px              0.0       0.0       0.0       0.0       0.1       0.0
10 H  s               0.0       0.0       0.1       0.0       1.7       0.0
10 H  py              0.0       0.0       0.0       0.0       0.1       0.0
11 H  s               0.0       0.1       0.0       0.0       1.4       1.0
12 H  s               0.0       0.1       0.0       0.0       1.6       1.2
12 H  px              0.0       0.0       0.0       0.0       0.1       0.1
13 H  s               0.0       0.1       0.0       0.0       1.4       1.0
14 H  s               0.0       0.0       0.0       0.0       1.8       0.2
14 H  px              0.0       0.0       0.0       0.0       0.1       0.0
15 H  s               0.0       0.0       0.0       0.0       1.7       0.1
15 H  pz              0.0       0.0       0.0       0.0       0.1       0.0
16 H  s               0.0       0.0       0.1       0.0       1.7       0.0
16 H  py              0.0       0.0       0.0       0.0       0.1       0.0
17 H  s               0.0       0.0       0.6       0.2       0.2       6.8
17 H  pz              0.0       0.0       0.0       0.0       0.0       0.5
17 H  py              0.0       0.0       0.0       0.0       0.0       0.2
18 H  s               0.0       0.0       0.6       0.2       0.2       6.8
18 H  pz              0.0       0.0       0.0       0.0       0.0       0.5
18 H  py              0.0       0.0       0.0       0.0       0.0       0.2
19 H  s               0.0       0.0       0.5       0.4       0.2       8.1
19 H  px              0.0       0.0       0.0       0.0       0.0       0.2
19 H  py              0.0       0.0       0.0       0.0       0.0       0.6

                     12        13        14        15        16        17   
                  -0.82579  -0.81843  -0.73963  -0.66724  -0.61419  -0.60400
                   2.00000   2.00000   2.00000   2.00000   2.00000   2.00000
                  --------  --------  --------  --------  --------  --------
 0 C  s              19.4       7.4       2.5       0.3       0.5       0.2
 0 C  pz              0.9       0.0       0.9       0.9       7.5       0.3
 0 C  px              0.0       0.0       1.4       0.2       2.8       0.9
 0 C  py              0.0       1.0       1.0       0.5       1.7       1.1
 0 C  dz2             0.1       0.1       0.0       0.0       0.3       0.0
 0 C  dxz             0.0       0.0       0.2       0.0       0.0       0.0
 0 C  dyz             0.0       0.1       0.2       0.1       0.5       0.0
 0 C  dxy             0.0       0.0       0.1       0.0       0.0       0.0
 1 C  s               0.0       0.0       3.8       2.4       3.8       0.0
 1 C  pz             16.1       0.0       0.0       0.0       0.0       2.0
 1 C  px              0.0       0.7      10.3       0.2       9.8       0.0
 1 C  py              0.0      14.2       0.9       0.2       1.2       0.0
 1 C  dz2             0.0       1.4       0.2       0.0       0.0       0.0
 1 C  dxz             0.2       0.0       0.0       0.0       0.0       0.5
 1 C  dyz             2.2       0.0       0.0       0.0       0.0       0.2
 1 C  dx2y2           0.0       0.1       0.6       0.1       0.0       0.0
 1 C  dxy             0.0       1.2       0.3       0.2       0.0       0.0
 2 C  s               0.0      22.7       3.1       1.1       0.6       0.0
 2 C  pz              1.0       0.0       0.0       0.0       0.0       0.8
 2 C  px              0.0       0.1       2.9       2.6       0.1       0.0
 2 C  py              0.0       0.7       0.4       1.1      11.8       0.0
 2 C  dz2             0.0       0.0       0.1       0.1       0.3       0.0
 2 C  dyz             0.2       0.0       0.0       0.0       0.0       0.0
 2 C  dx2y2           0.0       0.1       0.1       0.0       0.3       0.0
 2 C  dxy             0.0       0.0       0.4       0.2       0.2       0.0
 3 C  s              19.4       7.4       2.5       0.3       0.5       0.2
 3 C  pz              0.9       0.0       0.9       0.9       7.5       0.3
 3 C  px              0.0       0.0       1.4       0.2       2.8       0.9
 3 C  py              0.0       1.0       1.0       0.5       1.7       1.1
 3 C  dz2             0.1       0.1       0.0       0.0       0.3       0.0
 3 C  dxz             0.0       0.0       0.2       0.0       0.0       0.0
 3 C  dyz             0.0       0.1       0.2       0.1       0.5       0.0
 3 C  dxy             0.0       0.0       0.1       0.0       0.0       0.0
 4 C  s               0.0       0.1       5.1       1.2       0.5       0.0
 4 C  pz              1.1       0.0       0.0       0.0       0.0      16.0
 4 C  px              0.0       0.2       8.5       8.2       3.6       0.0
 4 C  py              0.0       0.3       1.3       1.9       0.1       0.0
 4 C  dz2             0.0       0.0       0.0       0.2       0.0       0.0
 4 C  dxz             0.2       0.0       0.0       0.0       0.0       0.6
 4 C  dx2y2           0.0       0.1       0.8       0.1       0.9       0.0
 4 C  dxy             0.0       0.5       0.3       0.1       0.2       0.0
 4 C  f0              0.0       0.0       0.0       0.0       0.0       0.3
 5 O  s               0.0       0.3       2.2       1.2       0.0       0.0
 5 O  pz              0.0       0.0       0.0       0.0       0.0       8.6
 5 O  px              0.0       0.2       1.4       2.8       3.7       0.0
 5 O  py              0.0       0.1       1.3       3.1       0.2       0.0
 5 O  dyz             0.0       0.0       0.0       0.0       0.0       0.3
 5 O  dx2y2           0.0       0.0       0.0       0.2       0.0       0.0
 5 O  dxy             0.0       0.0       0.2       0.1       0.1       0.0
 6 O  s               0.0       0.2       2.6       3.6       0.3       0.0
 6 O  pz              0.1       0.0       0.0       0.0       0.0      28.7
 6 O  px              0.0       0.4       1.0      10.4       1.4       0.0
 6 O  py              0.0       0.0       0.9      20.0       6.1       0.0
 6 O  dyz             0.0       0.0       0.0       0.0       0.0       0.2
 6 O  dx2y2           0.0       0.0       0.2       0.2       0.1       0.0
 6 O  dxy             0.0       0.0       0.1       0.1       0.0       0.0
 7 C  s               0.0       1.0       6.0       1.4       0.2       0.0
 7 C  pz              0.0       0.0       0.0       0.0       0.0      21.1
 7 C  px              0.0       0.1       5.1       5.1       2.5       0.0
 7 C  py              0.0       0.0       0.4      10.9       3.2       0.0
 7 C  dz2             0.0       0.0       0.2       0.4       0.0       0.0
 7 C  dxz             0.0       0.0       0.0       0.0       0.0       0.4
 7 C  dyz             0.0       0.0       0.0       0.0       0.0       0.2
 7 C  dx2y2           0.0       0.0       0.4       0.1       0.1       0.0
 7 C  dxy             0.0       0.0       0.2       1.0       0.0       0.0
 7 C  f-3             0.0       0.0       0.0       0.2       0.0       0.0
 8 H  s               6.5       1.7       0.9       0.3       2.5       0.0
 8 H  pz              0.4       0.1       0.0       0.0       0.0       0.0
 8 H  py              0.2       0.1       0.1       0.0       0.2       0.0
 9 H  s               5.3       2.2       2.5       0.5       0.0       1.0
 9 H  px              0.5       0.2       0.2       0.0       0.0       0.1
10 H  s               5.2       2.9       1.1       0.3       3.1       0.2
10 H  px              0.2       0.1       0.1       0.0       0.0       0.0
10 H  py              0.3       0.2       0.0       0.0       0.1       0.0
11 H  s               0.1       6.8       1.2       0.7       2.9       0.2
11 H  pz              0.0       0.5       0.1       0.0       0.2       0.0
11 H  py              0.0       0.2       0.0       0.0       0.0       0.0
12 H  s               0.0       6.1       2.8       1.6       0.0       0.0
12 H  px              0.0       0.5       0.2       0.1       0.0       0.0
12 H  py              0.0       0.1       0.0       0.1       0.1       0.0
13 H  s               0.1       6.8       1.2       0.7       2.9       0.2
13 H  pz              0.0       0.5       0.1       0.0       0.2       0.0
13 H  py              0.0       0.2       0.0       0.0       0.0       0.0
14 H  s               5.3       2.2       2.5       0.5       0.0       1.0
14 H  px              0.5       0.2       0.2       0.0       0.0       0.1
15 H  s               6.5       1.7       0.9       0.3       2.5       0.0
15 H  pz              0.4       0.1       0.0       0.0       0.0       0.0
15 H  py              0.2       0.1       0.1       0.0       0.2       0.0
16 H  s               5.2       2.9       1.1       0.3       3.1       0.2
16 H  px              0.2       0.1       0.1       0.0       0.0       0.0
16 H  py              0.3       0.2       0.0       0.0       0.1       0.0
17 H  s               0.0       0.3       3.2       4.1       0.0       5.3
17 H  pz              0.0       0.0       0.2       0.3       0.0       0.0
17 H  py              0.0       0.0       0.1       0.0       0.0       0.2
18 H  s               0.0       0.3       3.2       4.1       0.0       5.3
18 H  pz              0.0       0.0       0.2       0.3       0.0       0.0
18 H  py              0.0       0.0       0.1       0.0       0.0       0.2
19 H  s               0.0       0.4       3.0       0.0       2.9       0.0
19 H  pz              0.0       0.0       0.0       0.0       0.0       0.2
19 H  px              0.0       0.0       0.0       0.1       0.0       0.0
19 H  py              0.0       0.0       0.3       0.0       0.1       0.0

                     18        19        20        21        22        23   
                  -0.59371  -0.55752  -0.55434  -0.54306  -0.51456  -0.50370
                   2.00000   2.00000   2.00000   2.00000   2.00000   2.00000
                  --------  --------  --------  --------  --------  --------
 0 C  s               0.2       0.2       0.1       0.0       0.0       0.0
 0 C  pz              3.6       0.6       5.2       4.5       0.0       0.6
 0 C  px              0.5       0.1       0.7       6.0      13.5      10.9
 0 C  py              0.3      11.5       3.3       4.8       0.6       3.4
 0 C  dz2             0.0       0.1       0.0       0.0       0.0       0.4
 0 C  dx2y2           0.0       0.1       0.1       0.0       0.2       0.2
 0 C  dxy             0.0       0.1       0.0       0.2       0.2       0.2
 1 C  s               0.2       0.0       0.1       0.1       0.0       0.1
 1 C  pz              0.0      10.8       0.0       0.0       0.1       0.0
 1 C  px              0.0       0.0       0.4       2.1       0.0       0.1
 1 C  py              3.4       0.0       3.3       3.4       0.0       1.6
 1 C  dz2             0.1       0.0       0.9       0.2       0.0       1.2
 1 C  dxz             0.0       0.2       0.0       0.0       3.1       0.0
 1 C  dyz             0.0       0.7       0.0       0.0       0.3       0.0
 1 C  dx2y2           0.0       0.0       0.0       1.3       0.0       0.3
 1 C  dxy             0.4       0.0       0.2       0.0       0.0       1.1
 2 C  s               0.1       0.0       0.1       0.2       0.0       0.0
 2 C  pz              0.0      18.0       0.0       0.0       6.2       0.0
 2 C  px              1.2       0.0       5.9       0.0       0.0      12.2
 2 C  py              0.1       0.0       0.0       6.6       0.0       3.3
 2 C  dz2             0.0       0.0       0.0       0.1       0.0       0.1
 2 C  dxz             0.0       0.3       0.0       0.0       0.0       0.0
 2 C  dyz             0.0       0.1       0.0       0.0       0.1       0.0
 2 C  dx2y2           0.0       0.0       0.0       0.0       0.0       0.2
 2 C  dxy             0.1       0.0       0.2       0.0       0.0       0.0
 3 C  s               0.2       0.2       0.1       0.0       0.0       0.0
 3 C  pz              3.6       0.6       5.2       4.4       0.0       0.6
 3 C  px              0.5       0.1       0.7       6.0      13.5      11.0
 3 C  py              0.3      11.5       3.3       4.8       0.6       3.4
 3 C  dz2             0.0       0.1       0.0       0.0       0.0       0.4
 3 C  dx2y2           0.0       0.1       0.1       0.0       0.1       0.2
 3 C  dxy             0.0       0.1       0.0       0.2       0.2       0.2
 4 C  s               2.0       0.0       1.2       0.1       0.0       0.0
 4 C  pz              0.0       1.3       0.0       0.0       6.1       0.0
 4 C  px              0.2       0.0       0.6       0.2       0.0       1.1
 4 C  py              5.3       0.0       2.6       0.4       0.0       0.5
 4 C  dz2             0.4       0.0       0.2       0.0       0.0       0.1
 4 C  dxz             0.0       0.8       0.0       0.0       0.0       0.0
[...]
 1 C  dxy             0.1       0.0       0.0       0.0       0.1       0.0
 1 C  f+3             0.3       0.0       0.1       0.0       0.1       0.0
 1 C  f-3             0.1       0.0       0.0       0.0       0.1       0.0
 4 C  s               0.3       0.0       0.7       3.7       1.5       0.1
 4 C  pz              0.0       0.2       0.0       0.0       0.0       0.0
 4 C  px              0.1       0.0       0.9       0.7       0.5       0.1
 4 C  py              0.0       0.0       1.3       1.2       0.1       0.1
 4 C  dz2             0.1       0.0       0.1       0.2       0.1       0.0
 4 C  dyz             0.0       2.7       0.0       0.0       0.0       0.0
 4 C  dx2y2           0.4       0.0       0.1       0.5       0.4       1.9
 4 C  dxy             2.6       0.0       1.8       0.3       3.2       0.3
 4 C  f+1             0.0       0.0       0.0       0.0       0.2       0.0
 4 C  f-1             0.0       0.0       0.3       0.3       0.1       0.1
 4 C  f-2             0.0       0.4       0.0       0.0       0.0       0.0
 4 C  f+3             3.0       0.0       0.0       0.6       2.6       1.0
 4 C  f-3             6.8       0.0       0.0       2.8       1.7       0.7
 5 O  s               0.1       0.0       0.4       1.6       0.0       0.4
 5 O  pz              0.0       1.3       0.0       0.0       0.0       0.0
 5 O  px              0.9       0.0       1.4       0.3       2.3       0.0
 5 O  py              0.1       0.0       0.2       2.9       0.1       0.1
 5 O  dz2             4.2       0.0       4.2      12.5       0.7       0.8
 5 O  dxz             0.0       4.5       0.0       0.0       0.0       0.0
 5 O  dyz             0.0      30.3       0.0       0.0       0.0       0.0
 5 O  dx2y2           5.0       0.0       0.5      44.2       1.5       0.8
 5 O  dxy             7.3       0.0      46.9       2.5       9.8       1.8
 5 O  f0              0.0       3.1       0.0       0.0       0.0       0.0
 5 O  f+1             0.3       0.0       0.6       0.0       1.4       0.1
 5 O  f-1             0.0       0.0       0.8       4.6       0.1       0.4
 5 O  f+2             0.0       5.5       0.0       0.0       0.0       0.0
 5 O  f-2             0.0       1.4       0.0       0.0       0.0       0.0
 5 O  f+3             3.3       0.0       6.5       0.1       6.7       0.0
 5 O  f-3             9.2       0.0       0.7       9.6       8.4       0.8
 6 O  s               0.8       0.0       0.5       0.4       1.0       2.8
 6 O  px              2.2       0.0       0.1       0.0       0.7       0.4
 6 O  py              1.1       0.0       0.2       0.1       0.5       0.1
 6 O  dz2             9.5       0.0      11.9       6.1       1.3       8.0
 6 O  dxz             0.0      39.8       0.0       0.0       0.0       0.0
 6 O  dyz             0.0       2.9       0.0       0.0       0.0       0.0
 6 O  dx2y2           0.7       0.0       0.0       0.3       0.8      62.3
 6 O  dxy            26.5       0.0      16.7       2.2      40.6       0.7
 6 O  f+1             1.6       0.0       0.2       0.2       0.3       0.4
 6 O  f-1             1.4       0.0       0.6       0.3       0.3       0.0
 6 O  f+2             0.0       1.4       0.0       0.0       0.0       0.0
 6 O  f-2             0.0       5.2       0.0       0.0       0.0       0.0
 6 O  f+3             5.9       0.0       1.0       0.4       9.5       0.0
 6 O  f-3             3.1       0.0       0.1       0.5       1.3      10.2
 7 C  s               0.7       0.0       0.0       0.0       0.1       1.5
 7 C  px              0.6       0.0       0.0       0.0       0.1       1.7
 7 C  py              0.0       0.0       0.1       0.0       0.1       0.3
 7 C  dz2             0.1       0.0       0.0       0.0       0.0       0.2
 7 C  dxz             0.0       0.3       0.0       0.0       0.0       0.0
 7 C  dx2y2           0.2       0.0       0.1       0.0       0.1       0.5
 7 C  dxy             0.1       0.0       0.0       0.0       0.5       0.3
 7 C  f+2             0.0       0.2       0.0       0.0       0.0       0.0
 7 C  f+3             0.1       0.0       0.0       0.0       0.2       0.0
 7 C  f-3             0.0       0.0       0.0       0.0       0.2       0.0

                    312       313       314       315       316       317   
                  22.39582  22.50244  22.50905  22.55705  22.76498  23.38945
                   0.00000   0.00000   0.00000   0.00000   0.00000   0.00000
                  --------  --------  --------  --------  --------  --------
 0 C  s               2.3      33.5      49.2      13.4       0.1       0.1
 1 C  s               0.2       0.5       0.0       0.0      98.6       0.0
 1 C  pz              0.0       0.0       0.1       0.0       0.0       0.0
 1 C  py              0.0       0.0       0.0       0.1       0.0       0.0
 1 C  dyz             0.0       0.0       0.2       0.0       0.0       0.0
 2 C  s               0.2      28.9       0.0      69.3       0.1       0.0
 3 C  s               2.3      33.3      49.4      13.3       0.1       0.1
 4 C  s               0.4       0.2       0.0       0.3       0.1      95.3
 4 C  px              0.0       0.0       0.0       0.0       0.1       0.3
 4 C  dz2             0.0       0.0       0.0       0.0       0.0       0.1
 5 O  s               0.0       0.0       0.0       0.0       0.0       0.9
 5 O  py              0.0       0.0       0.0       0.0       0.0       0.6
 6 O  s               0.2       0.0       0.0       0.0       0.0       0.4
 6 O  px              0.2       0.0       0.0       0.0       0.0       0.2
 6 O  py              0.0       0.0       0.0       0.0       0.0       0.3
 6 O  dxy             0.0       0.0       0.0       0.0       0.0       0.1
 7 C  s              93.0       2.3       0.0       2.2       0.3       0.6
 9 H  s               0.0       0.1       0.1       0.0       0.0       0.0
10 H  s               0.0       0.1       0.1       0.0       0.0       0.0
11 H  s               0.0       0.1       0.0       0.1       0.0       0.0
12 H  s               0.0       0.1       0.0       0.1       0.0       0.0
13 H  s               0.0       0.1       0.0       0.1       0.0       0.0
14 H  s               0.0       0.1       0.1       0.0       0.0       0.0
16 H  s               0.0       0.1       0.1       0.0       0.0       0.0
17 H  s               0.2       0.0       0.0       0.0       0.0       0.0
18 H  s               0.2       0.0       0.0       0.0       0.0       0.0
19 H  s               0.2       0.0       0.0       0.0       0.0       0.0

                    318       319   
                  44.00699  44.20153
                   0.00000   0.00000
                  --------  --------
 5 O  s              99.9       0.0
 6 O  s               0.0      99.7


                      *****************************
                      * MAYER POPULATION ANALYSIS *
                      *****************************

  NA   - Mulliken gross atomic population
  ZA   - Total nuclear charge
  QA   - Mulliken gross atomic charge
  VA   - Mayer's total valence
  BVA  - Mayer's bonded valence
  FA   - Mayer's free valence

  ATOM       NA         ZA         QA         VA         BVA        FA
  0 C      6.3832     6.0000    -0.3832     3.8964     3.8964     0.0000
  1 C      5.8634     6.0000     0.1366     3.8215     3.8215     0.0000
  2 C      6.3438     6.0000    -0.3438     3.9128     3.9128     0.0000
  3 C      6.3833     6.0000    -0.3833     3.8964     3.8964     0.0000
  4 C      5.7201     6.0000     0.2799     4.2220     4.2220    -0.0000
  5 O      8.3280     8.0000    -0.3280     2.1919     2.1919    -0.0000
  6 O      8.2506     8.0000    -0.2506     2.1150     2.1150    -0.0000
  7 C      6.1955     6.0000    -0.1955     3.9027     3.9027     0.0000
  8 H      0.8798     1.0000     0.1202     0.9771     0.9771     0.0000
  9 H      0.8845     1.0000     0.1155     0.9761     0.9761     0.0000
 10 H      0.8697     1.0000     0.1303     0.9833     0.9833     0.0000
 11 H      0.8798     1.0000     0.1202     0.9837     0.9837     0.0000
 12 H      0.8880     1.0000     0.1120     0.9729     0.9729     0.0000
 13 H      0.8798     1.0000     0.1202     0.9837     0.9837     0.0000
 14 H      0.8845     1.0000     0.1155     0.9761     0.9761     0.0000
 15 H      0.8799     1.0000     0.1201     0.9771     0.9771     0.0000
 16 H      0.8697     1.0000     0.1303     0.9833     0.9833     0.0000
 17 H      0.8717     1.0000     0.1283     0.9708     0.9708     0.0000
 18 H      0.8715     1.0000     0.1285     0.9708     0.9708     0.0000
 19 H      0.8730     1.0000     0.1270     0.9659     0.9659     0.0000

  Mayer bond orders larger than 0.100000
B(  0-C ,  1-C ) :   0.9606 B(  0-C ,  8-H ) :   0.9767 B(  0-C ,  9-H ) :   0.9758 
B(  0-C , 10-H ) :   0.9728 B(  1-C ,  2-C ) :   1.0000 B(  1-C ,  3-C ) :   0.9606 
B(  1-C ,  4-C ) :   0.9349 B(  2-C , 11-H ) :   0.9694 B(  2-C , 12-H ) :   0.9813 
B(  2-C , 13-H ) :   0.9695 B(  3-C , 14-H ) :   0.9758 B(  3-C , 15-H ) :   0.9767 
B(  3-C , 16-H ) :   0.9728 B(  4-C ,  5-O ) :   2.0835 B(  4-C ,  6-O ) :   1.1871 
B(  6-O ,  7-C ) :   0.9173 B(  7-C , 17-H ) :   0.9792 B(  7-C , 18-H ) :   0.9792 
B(  7-C , 19-H ) :   0.9734 

-------
TIMINGS
-------

Total SCF time: 0 days 0 hours 2 min 0 sec 

Total time                  ....     120.291 sec
Sum of individual times     ....     118.012 sec  ( 98.1%)

SCF preparation             ....       0.062 sec  (  0.1%)
Fock matrix formation       ....     117.373 sec  ( 97.6%)
  Startup                   ....       0.006 sec  (  0.0% of F)
  Split-RI-J                ....       4.526 sec  (  3.9% of F)
  Chain of spheres X        ....     104.354 sec  ( 88.9% of F)
  XC integration            ....      10.698 sec  (  9.1% of F)
    Basis function eval.    ....       2.661 sec  ( 24.9% of XC)
    Density eval.           ....       2.519 sec  ( 23.5% of XC)
    XC-Functional eval.     ....       2.622 sec  ( 24.5% of XC)
    XC-Potential eval.      ....       2.756 sec  ( 25.8% of XC)
Diagonalization             ....       0.000 sec  (  0.0%)
Density matrix formation    ....       0.022 sec  (  0.0%)
Total Energy calculation    ....       0.005 sec  (  0.0%)
Population analysis         ....       0.204 sec  (  0.2%)
Orbital Transformation      ....       0.030 sec  (  0.0%)
Orbital Orthonormalization  ....       0.000 sec  (  0.0%)
DIIS solution               ....       0.104 sec  (  0.1%)
  MO trafo                  ....       0.000 sec  (  0.0 % of DIIS)
  Orb grad                  ....       0.000 sec  (  0.0 % of DIIS)
  Energy W gradient         ....       0.000 sec  (  0.0 % of DIIS)
  DIIS error                ....       0.015 sec  ( 14.4 % of DIIS)
  DIIS work                 ....       0.073 sec  ( 70.1 % of DIIS)
  Form Q                    ....       0.000 sec  (  0.0 % of DIIS)
  Form QpQm                 ....       0.000 sec  (  0.0 % of DIIS)
  Exp/Cayley                ....       0.000 sec  (  0.0 % of DIIS)
  Orb update                ....       0.000 sec  (  0.0 % of DIIS)
  Wake-sleep                ....       0.001 sec  (  0.8 % of DIIS)
SOSCF solution              ....       0.061 sec  (  0.1%)
  MO trafo                  ....       0.032 sec  ( 52.5 % of SOSCF)
  Orb grad                  ....       0.000 sec  (  0.6 % of SOSCF)
  Rot update                ....       0.002 sec  (  2.5 % of SOSCF)
  Step                      ....       0.027 sec  ( 44.3 % of SOSCF)
Grid generation             ....       0.151 sec  (  0.1%)
Finished LeanSCF after 120.3 sec

Maximum memory used throughout the entire LEANSCF-calculation: 45.7 MB
------------------   -----------------
gCP correction             0.014185072
------------------   -----------------

-------------------------   --------------------
FINAL SINGLE POINT ENERGY      -386.354107456102
-------------------------   --------------------


------------------------------------------------------------------------------
                              ORCA PROPERTY CALCULATIONS
------------------------------------------------------------------------------

GBWName                                 ... sp.gbw
Number of atoms                         ...     20
Number of basis functions               ...    320
Max core memory                         ...   1024 MB

Electric properties:
Dipole moment                           ... YES
Quadrupole moment                       ...  NO
Static polarizability (Dipole/Dipole)   ...  NO
Static polarizability (Dipole/Quad.)    ...  NO
Static polarizability (Quad./Quad.)     ...  NO
Static polarizability (Velocity)        ...  NO

Atomic electric properties:
Dipole moment                           ...  NO
Quadrupole moment                       ...  NO
Static polarizability                   ...  NO

Choice of electric origin               ... Center of mass
Position of electric origin             ...     0.010558    -0.002169     0.000322

General magnetic properties:
Magnetizability                         ...  NO

EPR properties:
g-Tensor (aka g-matrix)                 ...  NO
Zero-Field splitting spin-orbit         ...  NO
Zero-field splitting spin-spin          ...  NO
Hyperfine couplings                     ...  NO (   0 nuclei)
Quadrupole couplings                    ...  NO (   0 nuclei)
Contact density                         ...  NO (   0 nuclei)

NMR properties:
Chemical shifts                         ...  NO (   0 nuclei)
Spin-rotation constants                 ...  NO (   0 nuclei)
Spin-spin couplings                     ...  NO (   0 nuclei,    0 pairs)

Choice of magnetic origin               ... GIAO
Position of magnetic origin             ...     0.000000     0.000000     0.000000

Properties with geometric perturbations:
SCF Hessian                             ...  NO
IR spectrum                             ...  NO
VCD spectrum                            ...  NO
X-ray spectroscopy properties:
SCF XES/XAS/RIXS spectra                ...  NO


-------------
DIPOLE MOMENT
-------------

Method             : SCF
Type of density    : Electron Density
Multiplicity       :   1
Irrep              :   0
Energy             :  -386.3682925280016889 Eh
Relativity type    : 
Basis              : AO
                                X                 Y                 Z
Electronic contribution:      5.044370103       2.518854446       0.001205736
Nuclear contribution   :     -5.011061376      -3.235707835      -0.001793792
                        -----------------------------------------
Total Dipole Moment    :      0.033308727      -0.716853388      -0.000588056
                        -----------------------------------------
Magnitude (a.u.)       :      0.717627060
Magnitude (Debye)      :      1.824063027



--------------------
Rotational spectrum 
--------------------
 
Rotational constants in cm-1:             0.105112             0.050070             0.044073 
Rotational constants in MHz :          3151.169999          1501.070468          1321.270329 

Dipole components along the rotational axes: 
x,y,z [a.u.] :     0.028218    -0.717072    -0.000002 
x,y,z [Debye]:     0.071726    -1.822652    -0.000006 

 

Dipole moment calculation done in   0.0 sec 

Maximum memory used throughout the entire PROP-calculation: 28.6 MB

--------------------------------
SUGGESTED CITATIONS FOR THIS RUN
--------------------------------

Below you find a list of papers that are relevant to this ORCA run
We neither can nor want to force you to cite these papers, but we appreciate if you do
You receive ORCA, which is the product of decades of hard work by many enthusiastic individuals, for free
The only thing we kindly ask in return is that you cite our papers,
We deeply appreciate it, if you show your appreciation for ORCA by not just citing the generic ORCA reference.

Please note that relegating all ORCA citations to the supporting information does *not* help us.
SI sections are not indexed - citations you put there will not count into any citation statistics
But we need these citations in order to attract the funding resources that allow us to do what we are doing

Therefore, if you are a happy ORCA user, please consider citing a few of the papers listed below in the main body of your paper

In addition to the list printed below, the program has created the file sp.bibtex that contains the list in bibtex format
You can import this file easily into all common literature databanks and citation aid programs


List of essential papers. We consider these as the minimum necessary citations

  1. Neese,F.
     Software update: the ORCA program system, version 5.0
     WIRES Comput. Molec. Sci., 2022 12(1)e1606
     doi.org/10.1002/wcms.1606

List of papers to cite with high priority. The work reported in these papers was absolutely
necessary for this run to complete.
Our perspective: the developers of density functionals and basis sets usually get cited in chemistry papers
Good! But without the algorithms to do something with them, the functionals or basis sets would not do anything.
Hence, in our opinion, the algorithm design and method developments papers are equally worthy of getting cited

  1. Neese,F.
     An improvement of the resolution of the identity approximation for the formation of the Coulomb matrix
     J. Comp. Chem., 2003 24(14)1740-1747
     doi.org/10.1002/jcc.10318
  2. Neese,F.; Wennmohs,F.; Hansen,A.; Becker,U.
     Efficient, approximate and parallel Hartree-Fock and hybrid DFT calculations. A 'chain-of-spheres' algorithm for the Hartree-Fock exchange
     Chem. Phys., 2009 356(1-3)98-109
     doi.org/10.1016/j.chemphys.2008.10.036
  3. Helmich-Paris,B.; de Souza,B.; Neese,F.; Izsák,R.
     An improved chain of spheres for exchange algorithm
     J. Chem. Phys., 2021 155 104109
     doi.org/doi: 10.1063/5.0058766.
  4. Neese,F.
     The SHARK Integral Generation and Digestion System
     J. Comp. Chem., 2022  1-16
     doi.org/10.1002/jcc.26942

List of suggested additional citations. These are papers that are important in the 'surrounding' of 
of this run, or papers that preceded the highly important papers. If you like your results we are grateful for a citation.

  1. Izsak,R.; Neese,F.
     An overlap fitted chain of spheres exchange method
     J. Chem. Phys., 2011 135 144105
     doi.org/10.1063/1.3646921
  2. Izsak,R.; Hansen,A.; Neese,F.
     The resolution of identity and chain of spheres approximations for the LPNO-CCSD singles Fock term
     Molec. Phys., 2012 110 2413-2417
     doi.org/10.1080/00268976.2012.687466
  3. Neese,F.
     The ORCA program system
     WIRES Comput. Molec. Sci., 2012 2(1)73-78
     doi.org/10.1002/wcms.81
  4. Izsak,R.; Neese,F.; Klopper,W.
     Robust fitting techniques in the chain of spheres approximation to the Fock exchange: The role of the complementary space
     J. Chem. Phys., 2013 139 
     doi.org/10.1063/1.4819264
  5. Neese,F.
     Software update: the ORCA program system, version 4.0
     WIRES Comput. Molec. Sci., 2018 8(1)1-6
     doi.org/10.1002/wcms.1327
  6. Neese,F.; Wennmohs,F.; Becker,U.; Riplinger,C.
     The ORCA quantum chemistry program package
     J. Chem. Phys., 2020 152 Art. No. L224108
     doi.org/10.1063/5.0004608

List of optional additional citations

  1. Neese,F.
     Approximate second-order SCF convergence for spin unrestricted wavefunctions
     Chem. Phys. Lett., 2000 325(1-3)93-98
     doi.org/10.1016/s0009-2614(00)00662-x

Timings for individual modules:

Sum of individual times          ...      121.920 sec (=   2.032 min)
Startup calculation              ...        1.462 sec (=   0.024 min)   1.2 %
SCF iterations                   ...      120.409 sec (=   2.007 min)  98.8 %
Property calculations            ...        0.049 sec (=   0.001 min)   0.0 %
                             ****ORCA TERMINATED NORMALLY****
TOTAL RUN TIME: 0 days 0 hours 2 minutes 1 seconds 977 msec
