      -----------------------------------------------------------      
     |                   =====================                   |     
     |                           x T B                           |     
     |                   =====================                   |     
     |                         S. Grimme                         |     
     |          Mulliken Center for Theoretical Chemistry        |     
     |                    University of Bonn                     |     
      -----------------------------------------------------------      

   * xtb version 6.7.1 (41059b4) compiled by 'michael@archlinux' on 2025-03-24

   xtb is free software: you can redistribute it and/or modify it under
   the terms of the GNU Lesser General Public License as published by
   the Free Software Foundation, either version 3 of the License, or
   (at your option) any later version.
   
   xtb is distributed in the hope that it will be useful,
   but WITHOUT ANY WARRANTY; without even the implied warranty of
   MERCHANTABILITY or FITNESS FOR A PARTICULAR PURPOSE.  See the
   GNU Lesser General Public License for more details.
   
   Cite this work as:
   * C. Bannwarth, E. Caldeweyher, S. Ehlert, A. Hansen, P. Pracht,
     J. Seibert, S. Spicher, S. Grimme, WIREs Comput. Mol. Sci., 2020, 11,
     e01493. DOI: 10.1002/wcms.1493
   
   for GFN2-xTB:
   * C. Bannwarth, S. Ehlert and S. Grimme., J. Chem. Theory Comput., 2019,
     15, 1652-1671. DOI: 10.1021/acs.jctc.8b01176
   for GFN1-xTB:
   * S. Grimme, C. Bannwarth, P. Shushkov, J. Chem. Theory Comput., 2017,
     13, 1989-2009. DOI: 10.1021/acs.jctc.7b00118
   for GFN0-xTB:
   * P. Pracht, E. Caldeweyher, S. Ehlert, S. Grimme, ChemRxiv, 2019, preprint.
     DOI: 10.26434/chemrxiv.8326202.v1
   for GFN-FF:
   * S. Spicher and S. Grimme, Angew. Chem. Int. Ed., 2020, 59, 15665-15673.
     DOI: 10.1002/anie.202004239
   
   for ALPB and GBSA implicit solvation:
   * S. Ehlert, M. Stahn, S. Spicher, S. Grimme, J. Chem. Theory Comput.,
     2021, 17, 4250-4261. DOI: 10.1021/acs.jctc.1c00471
   
   for ddCOSMO and CPCM-X implicit solvation:
   * M. Stahn, S. Ehlert, S. Grimme, J. Phys. Chem. A,
     2023, XX, XXXX-XXXX. DOI: 10.1021/acs.jpca.3c04382
   
   for DFT-D4:
   * E. Caldeweyher, C. Bannwarth and S. Grimme, J. Chem. Phys., 2017,
     147, 034112. DOI: 10.1063/1.4993215
   * E. Caldeweyher, S. Ehlert, A. Hansen, H. Neugebauer, S. Spicher,
     C. Bannwarth and S. Grimme, J. Chem. Phys., 2019, 150, 154122.
     DOI: 10.1063/1.5090222
   * E. Caldeweyher, J.-M. Mewes, S. Ehlert and S. Grimme, Phys. Chem. Chem. Phys.
     2020, 22, 8499-8512. DOI: 10.1039/D0CP00502A
   
   for sTDA-xTB:
   * S. Grimme and C. Bannwarth, J. Chem. Phys., 2016, 145, 054103.
     DOI: 10.1063/1.4959605
   
   in the mass-spec context:
   * V. Asgeirsson, C. Bauer and S. Grimme, Chem. Sci., 2017, 8, 4879.
     DOI: 10.1039/c7sc00601b
   * J. Koopman and S. Grimme, ACS Omega 2019, 4, 12, 15120-15133.
     DOI: 10.1021/acsomega.9b02011
   
   for metadynamics refer to:
   * S. Grimme, J. Chem. Theory Comput., 2019, 155, 2847-2862
     DOI: 10.1021/acs.jctc.9b00143
   
   for SPH calculations refer to:
   * S. Spicher and S. Grimme, J. Chem. Theory Comput., 2021, 17, 1701-1714
     DOI: 10.1021/acs.jctc.0c01306
   
   for ONIOM refer to:
   * C. Plett, A. Katbashev, S. Ehlert, S. Grimme, M. Bursch,
     Phys. Chem. Chem. Phys., 2023, 25, 17860-17868. DOI: 10.1039/D3CP02178E
   
   for DIPRO refer to:
   * J. Kohn, N. Gildemeister, S. Grimme, D. Fazzi, A. Hansen,
     J. Chem. Phys., 2023, just accepted.
   
   for PTB refer to:
   * S. Grimme, M. Mueller, A. Hansen, J. Chem. Phys., 2023, 158, 124111.
     DOI: 10.1063/5.0137838
   
   with help from (in alphabetical order)
   P. Atkinson, C. Bannwarth, F. Bohle, G. Brandenburg, E. Caldeweyher
   M. Checinski, S. Dohm, S. Ehlert, S. Ehrlich, I. Gerasimov, C. Hölzer
   A. Katbashev, J. Kohn, J. Koopman, C. Lavigne, S. Lehtola, F. März, M. Müller,
   F. Musil, H. Neugebauer, J. Pisarek, C. Plett, P. Pracht, F. Pultar,
   J. Seibert, P. Shushkov, S. Spicher, M. Stahn, M. Steiner, T. Strunk,
   J. Stückrath, T. Rose, and J. Unsleber
   
 * started run on 2025/04/08 at 22:35:00.172     
   ID    Z sym.   atoms
    1    6 C      1-3, 6
    2    8 O      4, 5
    3    1 H      7-14

           -------------------------------------------------
          |                Calculation Setup                |
           -------------------------------------------------

          program call               : /usr/bin/xtb xtb_opt.coord --opt normal --orca -I xtb_opt-xcontrol-inp
          coordinate file            : xtb_opt.coord
          omp threads                :                    16

           -------------------------------------------------
          |                   Orca driver                   |
           -------------------------------------------------
orca executable           : /home/michael/Documents/CHEM4561/orca_avx2/orca
orca input file           : xtb_opt.inp
orca input line           : 
orca parallel             : true
orca number of threads    : 16
                         * ORCA takes the control...
  ------------------------------------------------------------------------

                                 *****************
                                 * O   R   C   A *
                                 *****************

                                            #,                                       
                                            ###                                      
                                            ####                                     
                                            #####                                    
                                            ######                                   
                                           ########,                                 
                                     ,,################,,,,,                         
                               ,,#################################,,                 
                          ,,##########################################,,             
                       ,#########################################, ''#####,          
                    ,#############################################,,   '####,        
                  ,##################################################,,,,####,       
                ,###########''''           ''''###############################       
              ,#####''   ,,,,##########,,,,          '''####'''          '####       
            ,##' ,,,,###########################,,,                        '##       
           ' ,,###''''                  '''############,,,                           
         ,,##''                                '''############,,,,        ,,,,,,###''
      ,#''                                            '''#######################'''  
     '                                                          ''''####''''         
             ,#######,   #######,   ,#######,      ##                                
            ,#'     '#,  ##    ##  ,#'     '#,    #''#        ,####,   ,####,        
            ##       ##  ##   ,#'  ##            #'  '#       #'       #'  '#        
            ##       ##  #######   ##           ,######,      #####,   #    #        
            '#,     ,#'  ##    ##  '#,     ,#' ,#      #,     #,   #   #,  ,#        
             '#######'   ##     ##  '#######'  #'      '#     '####' # '####'        



                #########################################################
                #                        -***-                          #
                #          Department of theory and spectroscopy        #
                #                                                       #
                #                      Frank Neese                      #
                #                                                       #
                #     Directorship, Architecture, Infrastructure        #
                #                    SHARK, DRIVERS                     #
                #        Core code/Algorithms in most modules           #
                #                                                       #
                #        Max Planck Institute fuer Kohlenforschung      #
                #                Kaiser Wilhelm Platz 1                 #
                #                 D-45470 Muelheim/Ruhr                 #
                #                      Germany                          #
                #                                                       #
                #                  All rights reserved                  #
                #                        -***-                          #
                #########################################################


                         Program Version 6.0.1  -  RELEASE   -


 With contributions from (in alphabetic order):
[Max-Planck-Institut fuer Kohlenforschung]                               
  Daniel Aravena         : Magnetic Suceptibility                        
  Michael Atanasov       : Ab Initio Ligand Field Theory (pilot matlab implementation)
  Alexander A. Auer      : GIAO ZORA, VPT2 properties, NMR spectrum      
  Ute Becker             : All parallelization in ORCA, NUMFREQ, NUMCALC 
  Giovanni Bistoni       : ED, misc. LED, open-shell LED, HFLD           
  Martin Brehm           : Molecular dynamics                            
  Dmytro Bykov           : pre 5.0 version of the SCF Hessian            
  Marcos Casanova-Páez   : Triplet and SCS-CIS(D). UHF-(DLPNO)-IP/EA/STEOM-CCSD. UHF-CVS-IP/STEOM-CCSD   
  Vijay G. Chilkuri      : MRCI spin determinant printing, contributions to CSF-ICE 
  Pauline Colinet        : FMM embedding                                 
  Dipayan Datta          : RHF DLPNO-CCSD density                        
  Achintya Kumar Dutta   : EOM-CC, STEOM-CC                              
  Nicolas Foglia         : Exact transition moments, OPA infrastructure, MCD improvements    
  Dmitry Ganyushin       : Spin-Orbit,Spin-Spin,Magnetic field MRCI      
  Miquel Garcia-Rates    : C-PCM and meta-GGA Hessian, CCSD/C-PCM, Gaussian charge scheme 
  Tiago L. C. Gouveia    : GS-ROHF, GS-ROCIS                             
  Yang Guo               : DLPNO-NEVPT2, F12-NEVPT2, CIM, IAO-localization        
  Andreas Hansen         : Spin unrestricted coupled pair/coupled cluster methods 
  Ingolf Harden          : AUTO-CI MPn and infrastructure                
  Benjamin Helmich-Paris : MC-RPA, TRAH-(SCF,CASSCF), AVAS, COSX integrals, SCF dyn. polar. 
  Lee Huntington         : MR-EOM, pCC                                   
  Robert Izsak           : Overlap fitted RIJCOSX, COSX-SCS-MP3, EOM     
  Riya Kayal             : Wick's Theorem for AUTO-CI, AUTO-CI UHF-CCSDT 
  Emily Kempfer          : AUTO-CI, RHF CISDT and CCSDT                  
  Christian Kollmar      : KDIIS, OOCD, Brueckner-CCSD(T), CCSD density, CASPT2, CASPT2-K, improved NEVPT2 
  Axel Koslowski         : Symmetry handling                             
  Simone Kossmann        : meta-GGA functionals, TD-DFT gradient, OOMP2, (MP2 Hessian; deprecated post 5.0) 
  Lucas Lang             : DCDCAS                                        
  Marvin Lechner         : AUTO-CI (C++ implementation), FIC-MRCC        
  Spencer Leger          : CASSCF response                               
  Dagmar Lenk            : GEPOL surface, SMD, ORCA-2-JSON               
  Dimitrios Liakos       : Extrapolation schemes; Compound Job, initial MDCI parallelization 
  Dimitrios Manganas     : Further ROCIS development; embedding schemes. LFT, Crystal Embedding 
  Dimitrios Pantazis     : SARC Basis sets                               
  Anastasios Papadopoulos: AUTO-CI, single reference methods and gradients 
  Taras Petrenko         : pre 6.0 DFT Hessian and TD-DFT gradient, (ASA, deprecated), ECA, 1-Electron XAS/XES, NRVS 
  Peter Pinski           : DLPNO-MP2, DLPNO-MP2 Gradient                 
  Christoph Reimann      : Effective Core Potentials                     
  Marius Retegan         : Local ZFS, SOC                                
  Christoph Riplinger    : Optimizer, TS searches, QM/MM, DLPNO-CCSD(T), (RO)-DLPNO pert. Triples 
  Michael Roemelt        : Original ROCIS implementation                 
  Masaaki Saitow         : Open-shell DLPNO-CCSD energy and density      
  Barbara Sandhoefer     : DKH picture change effects                    
  Kantharuban Sivalingam : CASSCF convergence/infrastructure, NEVPT2 and variants, FIC-MRCI 
  Bernardo de Souza      : ESD, SOC TD-DFT                               
  Georgi L. Stoychev     : AutoAux, RI-MP2 NMR, DLPNO-MP2 response, X2C  
  Van Anh Tran           : RI-MP2 g-tensors                              
  Willem Van den Heuvel  : Paramagnetic NMR                              
  Zikuan Wang            : NOTCH, Electric field optimization            
  Frank Wennmohs         : Technical directorship and infrastructure     
  Hang Xu                : AUTO-CI-Response properties                   
                                                                         
[FACCTs GmbH]                                                            
  Markus Bursch, Miquel Garcia-Rates, Christoph Riplinger, Bernardo de Souza, Georgi L. Stoychev 
                                                                 
  APM, Basis sets (HGBS, AHGBS, def-TZVP (Ac-Lr), def2-XVPD (La-Lu)), CI-OPT, improved COSX, DLPNO-Multilevel,           
  DOCKER, DRACO, updates on ESD, GOAT, IRC, LR-CPCM, MBIS, meta-GGA TD-DFT gradient, ML-optimized integration grids, 
  MM, NACMEs, nearIR, NEB, NEB-TS, NL-DFT gradient (VV10), 2- and 3-layer-ONIOM, interface openCOSMO-RS, QMMM,   
  Crystal-QMMM, SF, symmetry and pop. for TD-DFT, r2SCAN hybrids, SOLVATOR                                   
                                                                         
[Other institutions]                                                     
  V. Asgeirsson          : NEB                                           
  Christoph Bannwarth    : sTDA-DFT, sTD-DFT, PBEh-3c, B97-3c, D3        
  Sebastian Ehlert       : rSCAN, r2SCAN, r2SCAN-3c, D4, dhf basis sets  
  Marvin Friede          : D4 for Fr, Ra, Ac-Lr                          
  Lars Goerigk           : TD-DFT with DH, B97 family of functionals     
  Stefan Grimme          : VdW corrections, initial TS optimization, DFT functionals, gCP, sTDA/sTD-DF 
  Waldemar Hujo          : DFT-NL                                        
  H. Jonsson             : NEB                                           
  Holger Kruse           : gCP                                           
  Marcel Mueller         : wB97X-3c, vDZP basis set                      
  Hagen Neugebauer       : wr2SCAN                                       
  Tobias Risthaus        : range-separated hybrid DFT                    
  Lukas Wittmann         : regularized MP2, r2SCAN double-hybrids, wr2SCAN        
                                                                         
We gratefully acknowledge several colleagues who have allowed us to      
interface, adapt or use parts of their codes:                            
  Ed Valeev, F. Pavosevic, A. Kumar             : LibInt (2-el integral package), F12 methods 
  Garnet Chan, S. Sharma, J. Yang, R. Olivares  : DMRG                   
  Ulf Ekstrom                                   : XCFun DFT Library      
  Mihaly Kallay                                 : mrcc  (arbitrary order and MRCC methods)
  Frank Weinhold                                : gennbo (NPA and NBO analysis)           
  Simon Mueller                                 : openCOSMO-RS                            
  Christopher J. Cramer and Donald G. Truhlar   : smd solvation model                     
  S Lehtola, MJT Oliveira, MAL Marques          : LibXC Library                           
  Liviu Ungur et al                             : ANISO software                          


 Your calculation uses the libint2 library for the computation of 2-el integrals
 For citations please refer to: http://libint.valeyev.net

 Your ORCA version has been built with support for libXC version: 6.2.2
 For citations please refer to: https://libxc.gitlab.io

 This ORCA versions uses:
   CBLAS   interface :  Fast vector & matrix operations
   LAPACKE interface :  Fast linear algebra routines
   SCALAPACK package :  Parallel linear algebra routines
   Shared memory     :  Shared parallel matrices
   BLAS/LAPACK       :  OpenBLAS 0.3.27  USE64BITINT DYNAMIC_ARCH NO_AFFINITY Zen SINGLE_THREADED
        Core in use  :  Zen
   Copyright (c) 2011-2014, The OpenBLAS Project




***************************************
The coordinates will be read from file: xtb_opt.xyz
***************************************


Your calculation utilizes the geometrical counterpoise correction gCP
Please cite in your paper:
H.Kruse, S. Grimme J.Chem.Phys., 136, (2012), 154101 
   

Your calculation utilizes the atom-pairwise dispersion correction
based on EEQ partial charges (D4)


================================================================================

----- Orbital basis set information -----
Your calculation utilizes the basis: def2-mTZVPP
   Stefan Grimme, Andreas Hansen, Sebastian Ehlert, and Jan-Michael Mewes 
   J. Chem. Phys. 154, 064103 (2021). DOI: 10.1063/5.0040021

----- AuxJ basis set information -----
Your calculation utilizes the auxiliary basis: def2/J
   F. Weigend, Phys. Chem. Chem. Phys. 8, 1057 (2006).

================================================================================
                                        WARNINGS
                       Please study these warnings very carefully!
================================================================================

WARNING: Old DensityContainer found on disk!
         Will remove this file - 
         If you want to keep old densities, please start your calculation with a different basename. 



WARNING: SCAN, rSCAN, or r2SCAN functional requested.
  ===> : libXC variant has now been activated.



================================================================================
                                       INPUT FILE
================================================================================
NAME = xtb_opt.inp
|  1> ! r2scan-3c def2/J RI DEFGRID2 scfconv7 ENGRAD tightSCF miniprint
|  2> * xyzfile 0 1 xtb_opt.xyz
|  3> 
|  4>                          ****END OF INPUT****
================================================================================

                     *******************************
                     * Energy+Gradient Calculation *
                     *******************************

---------------------------------
CARTESIAN COORDINATES (ANGSTROEM)
---------------------------------
  C     -2.479717    0.076282    0.380260
  C     -1.236959    0.670826   -0.267249
  C      0.031402   -0.020840    0.170364
  O      0.094397   -1.028101    0.836279
  O      1.121936    0.637715   -0.296644
  C      2.385916    0.031536    0.046755
  H     -2.559103   -0.991190    0.161087
  H     -2.443290    0.186009    1.467440
  H     -3.378186    0.577855    0.010717
  H     -1.134207    1.739861   -0.050452
  H     -1.283577    0.595664   -1.361057
  H      2.503953   -0.015985    1.132283
  H      3.146698    0.674111   -0.395797
  H      2.447334   -0.979798   -0.363243

----------------------------
CARTESIAN COORDINATES (A.U.)
----------------------------
  NO LB      ZA    FRAG     MASS         X           Y           Z
   0 C     6.0000    0    12.011   -4.685986    0.144153    0.718588
   1 C     6.0000    0    12.011   -2.337515    1.267678   -0.505028
   2 C     6.0000    0    12.011    0.059342   -0.039383    0.321942
   3 O     8.0000    0    15.999    0.178385   -1.942829    1.580339
   4 O     8.0000    0    15.999    2.120151    1.205106   -0.560576
   5 C     6.0000    0    12.011    4.508728    0.059595    0.088353
   6 H     1.0000    0     1.008   -4.836004   -1.873077    0.304410
   7 H     1.0000    0     1.008   -4.617149    0.351506    2.773060
   8 H     1.0000    0     1.008   -6.383846    1.091987    0.020251
   9 H     1.0000    0     1.008   -2.143340    3.287861   -0.095341
  10 H     1.0000    0     1.008   -2.425610    1.125642   -2.572024
  11 H     1.0000    0     1.008    4.731786   -0.030207    2.139705
  12 H     1.0000    0     1.008    5.946397    1.273885   -0.747949
  13 H     1.0000    0     1.008    4.624791   -1.851549   -0.686429

------------------------------------------------------------------------------
                   ___                                                        
                  /   \      - P O W E R E D   B Y -                         
                 /     \                                                     
                 |  |  |   _    _      __       _____    __    __             
                 |  |  |  | |  | |    /  \     |  _  \  |  |  /  |          
                  \  \/   | |  | |   /    \    | | | |  |  | /  /          
                 / \  \   | |__| |  /  /\  \   | |_| |  |  |/  /          
                |  |  |   |  __  | /  /__\  \  |    /   |      \           
                |  |  |   | |  | | |   __   |  |    \   |  |\   \          
                \     /   | |  | | |  |  |  |  | |\  \  |  | \   \       
                 \___/    |_|  |_| |__|  |__|  |_| \__\ |__|  \__/        
                                                                              
                      - O R C A' S   B I G   F R I E N D -                    
                                      &                                       
                       - I N T E G R A L  F E E D E R -                       
                                                                              
 v1 FN, 2020, v2 2021, v3 2022-2024                                           
------------------------------------------------------------------------------


----------------------
SHARK INTEGRAL PACKAGE
----------------------

Number of atoms                             ...     14
Number of basis functions                   ...    164
Number of shells                            ...     80
Maximum angular momentum                    ...      2
Integral batch strategy                     ... SHARK/LIBINT Hybrid
RI-J (if used) integral strategy            ... SPLIT-RIJ (Revised 2003 algorithm where possible)
Printlevel                                  ...      1
Contraction scheme used                     ... SEGMENTED contraction
Prescreening option                         ... SCHWARTZ
   Thresh                                   ... 3.000e-11
   Tcut                                     ... 1.000e-12
   Tpresel                                  ... 1.000e-12 
Coulomb Range Separation                    ... NOT USED
Exchange Range Separation                   ... NOT USED
Multipole approximations                    ... NOT USED
Finite Nucleus Model                        ... NOT USED
CABS basis                                  ... NOT available
Auxiliary Coulomb fitting basis             ... AVAILABLE
   # of basis functions in Aux-J            ...    382
   # of shells in Aux-J                     ...    130
   Maximum angular momentum in Aux-J        ...      4
Auxiliary J/K fitting basis                 ... NOT available
Auxiliary Correlation fitting basis         ... NOT available
Auxiliary 'external' fitting basis          ... NOT available

Checking pre-screening integrals            ... done (  0.0 sec) Dimension = 80
Check shell pair data                       ... done (  0.0 sec)
Shell pair information
Shell pair cut-off parameter TPreSel        ...   1.0e-12
Total number of shell pairs                 ...      3240
Shell pairs after pre-screening             ...      2995
Total number of primitive shell pairs       ...     11481
Primitive shell pairs kept                  ...      7904
          la=0 lb=0:    976 shell pairs
          la=1 lb=0:   1107 shell pairs
          la=1 lb=1:    326 shell pairs
          la=2 lb=0:    351 shell pairs
          la=2 lb=1:    199 shell pairs
          la=2 lb=2:     36 shell pairs

Calculating one electron integrals          ... done (  0.0 sec)
Calculating RI/J V-Matrix + Cholesky decomp.... done (  0.0 sec)
Calculating Nuclear repulsion               ... done (  0.0 sec) ENN=    244.889086625460 Eh

Diagonalization of the overlap matrix:
Smallest eigenvalue                        ... 1.843e-04
Time for diagonalization                   ...    0.002 sec
Threshold for overlap eigenvalues          ... 1.000e-07
Number of eigenvalues below threshold      ... 0
Time for construction of square roots      ...    0.001 sec
Total time needed                          ...    0.003 sec

-------------------
DFT GRID GENERATION
-------------------

General Integration Accuracy     IntAcc      ... 4.388
Radial Grid Type                 RadialGrid  ... OptM3 with GC (2021)
Angular Grid (max. ang.)         AngularGrid ... 4 (Lebedev-302)
Angular grid pruning method      GridPruning ... 4 (adaptive)
Weight generation scheme         WeightScheme... mBecke (2022)
Basis function cutoff            BFCut       ... 1.0000e-11
Integration weight cutoff        WCut        ... 1.0000e-14
Partially contracted basis set               ... off
Rotationally invariant grid construction     ... off
Angular grids for H and He will be reduced by one unit
Diffuse basis detected: some atoms will have their outermost
                        angular grid increased by 1.

Total number of grid points                  ...    62785
Total number of batches                      ...      989
Average number of points per batch           ...       63
Average number of grid points per atom       ...     4485
Initializing property integral containers    ... done (  0.0 sec)

SHARK setup successfully completed in   0.4 seconds

Maximum memory used throughout the entire STARTUP-calculation: 28.5 MB
Occupation numbers will be reassigned to an Aufbau configuration
             **** ENERGY FILE WAS UPDATED (xtb_opt.en.tmp) ****
Finished Guess after   0.0 sec
Maximum memory used throughout the entire GUESS-calculation: 11.6 MB
----------------------------------------D-I-I-S--------------------------------------------
Iteration    Energy (Eh)           Delta-E    RMSDP     MaxDP     DIISErr   Damp  Time(sec)
-------------------------------------------------------------------------------------------
               ***  Starting incremental Fock matrix formation  ***
                              *** Initializing SOSCF ***
---------------------------------------S-O-S-C-F--------------------------------------
Iteration    Energy (Eh)           Delta-E    RMSDP     MaxDP     MaxGrad    Time(sec)
--------------------------------------------------------------------------------------
    1    -307.6408007109507707     0.00e+00  6.55e-07  1.35e-05  2.70e-06     0.8
               *** Restarting incremental Fock matrix formation ***
    2    -307.6408007106736022     2.77e-10  1.06e-06  2.32e-05  7.87e-06     0.9
                  *** Gradient check signals convergence ***

               *****************************************************
               *                     SUCCESS                       *
               *           SCF CONVERGED AFTER   2 CYCLES          *
               *****************************************************

             **** ENERGY FILE WAS UPDATED (xtb_opt.en.tmp) ****

----------------
TOTAL SCF ENERGY
----------------

Total Energy       :       -307.64080071067360 Eh           -8371.33178 eV

Components:
Nuclear Repulsion  :        244.88908662545967 Eh            6663.77083 eV
Electronic Energy  :       -552.52988733613324 Eh          -15035.10260 eV
One Electron Energy:       -903.32878604441873 Eh          -24580.82593 eV
Two Electron Energy:        350.79889870828549 Eh            9545.72333 eV

Virial components:
Potential Energy   :       -613.92823009806330 Eh          -16705.83645 eV
Kinetic Energy     :        306.28742938738964 Eh            8334.50467 eV
Virial Ratio       :          2.00441863162974

DFT components:
N(Alpha)           :       24.000002818820 electrons
N(Beta)            :       24.000002818820 electrons
N(Total)           :       48.000005637640 electrons
E(X)               :      -40.200377724207 Eh       
E(C)               :       -1.536867893971 Eh       
E(XC)              :      -41.737245618178 Eh       

---------------
SCF CONVERGENCE
---------------

  Last Energy change         ...   -2.7717e-10  Tolerance :   1.0000e-07
  Last MAX-Density change    ...    2.3176e-05  Tolerance :   1.0000e-07
  Last RMS-Density change    ...    1.0607e-06  Tolerance :   5.0000e-09
  Last DIIS Error            ...    1.9684e-05  Tolerance :   1.0000e-07
  Last Orbital Gradient      ...    7.8679e-06  Tolerance :   1.0000e-04
  Last Orbital Rotation      ...    2.0863e-05  Tolerance :   1.0000e-04


----------------
ORBITAL ENERGIES
----------------

  NO   OCC          E(Eh)            E(eV) 
   0   2.0000     -18.997680      -516.9532 
   1   2.0000     -18.936410      -515.2859 
   2   2.0000     -10.155564      -276.3469 
   3   2.0000     -10.086266      -274.4612 
   4   2.0000     -10.048761      -273.4407 
   5   2.0000     -10.025956      -272.8201 
   6   2.0000      -1.064990       -28.9799 
   7   2.0000      -0.979457       -26.6524 
   8   2.0000      -0.756773       -20.5928 
   9   2.0000      -0.690701       -18.7949 
  10   2.0000      -0.609889       -16.5959 
  11   2.0000      -0.524934       -14.2842 
  12   2.0000      -0.470818       -12.8116 
  13   2.0000      -0.457762       -12.4564 
  14   2.0000      -0.439196       -11.9511 
  15   2.0000      -0.418080       -11.3765 
  16   2.0000      -0.397237       -10.8094 
  17   2.0000      -0.358028        -9.7424 
  18   2.0000      -0.348577        -9.4853 
  19   2.0000      -0.342587        -9.3223 
  20   2.0000      -0.322790        -8.7836 
  21   2.0000      -0.318062        -8.6549 
  22   2.0000      -0.275077        -7.4852 
  23   2.0000      -0.242273        -6.5926 
  24   0.0000      -0.017937        -0.4881 
  25   0.0000       0.065798         1.7904 
  26   0.0000       0.085720         2.3326 
  27   0.0000       0.115118         3.1325 
  28   0.0000       0.132873         3.6157 
  29   0.0000       0.151069         4.1108 
  30   0.0000       0.155490         4.2311 
  31   0.0000       0.166278         4.5247 
  32   0.0000       0.184218         5.0128 
  33   0.0000       0.185285         5.0419 
  34   0.0000       0.191700         5.2164 
*Only the first 10 virtual orbitals were printed.
Total SCF time: 0 days 0 hours 0 min 1 sec 
Finished LeanSCF after   1.8 sec

Maximum memory used throughout the entire LEANSCF-calculation: 17.4 MB


-------------------------------------------------------------------------------
                          DFT DISPERSION CORRECTION                            
                                                                               
                                DFTD4 V3.4.0                                   
-------------------------------------------------------------------------------
-------------------------   ----------------
Dispersion correction           -0.002940101
-------------------------   ----------------

------------------   -----------------
gCP correction             0.009200050
------------------   -----------------

-------------------------   --------------------
FINAL SINGLE POINT ENERGY      -307.634540761259
-------------------------   --------------------

------------------------------------------------------------------------------
                         ORCA SCF GRADIENT CALCULATION
------------------------------------------------------------------------------

Nuc. rep. gradient        (SHARK) ... done (  0.0 sec)
HCore & Overlap gradient  (SHARK) ... done (  0.1 sec)
Split-RIJ-J gradient      (SHARK) ... done (  0.6 sec)
XC gradient                       ... done (  2.9 sec)
Dispersion correction             ... done (  0.0 sec)

-------------------
DISPERSION GRADIENT
-------------------

   1   C   :   -0.000060543   -0.000000825    0.000006745
   2   C   :   -0.000044641    0.000019941   -0.000013701
   3   C   :    0.000015080   -0.000002506   -0.000000326
   4   O   :    0.000011834   -0.000038201    0.000023094
   5   O   :    0.000046524    0.000009948   -0.000009742
   6   C   :    0.000063690   -0.000008067    0.000002573
   7   H   :   -0.000022690   -0.000006806    0.000001971
   8   H   :   -0.000023488   -0.000000100    0.000009476
   9   H   :   -0.000025007    0.000003092    0.000000096
  10   H   :   -0.000015665    0.000017528   -0.000003279
  11   H   :   -0.000016960    0.000006860   -0.000014776
  12   H   :    0.000023630   -0.000000886    0.000002566
  13   H   :    0.000024901    0.000003592   -0.000003194
  14   H   :    0.000023334   -0.000003570   -0.000001504

Difference to translation invariance:
           :    0.0000000000    0.0000000000    0.0000000000

Difference to rotation invariance:
           :    0.0000000000    0.0000000000   -0.0000000000

Norm of the Dispersion gradient    ...    0.0001409578
RMS gradient                       ...    0.0000217503
MAX gradient                       ...    0.0000636904
gCP correction                   ... done

------------------
CARTESIAN GRADIENT
------------------

   1   C   :   -0.000018258    0.000145098   -0.000134691
   2   C   :    0.000128033    0.000169603   -0.000056647
   3   C   :   -0.000456025    0.000270615   -0.000423113
   4   O   :    0.000000545   -0.000938226    0.000588842
   5   O   :    0.000300883    0.000701917   -0.000306987
   6   C   :    0.000271253   -0.000243474    0.000118960
   7   H   :    0.000041095   -0.000242305    0.000020053
   8   H   :   -0.000020048    0.000092700    0.000275289
   9   H   :   -0.000065590    0.000026579   -0.000109022
  10   H   :    0.000013130   -0.000064776   -0.000029449
  11   H   :   -0.000029366   -0.000032208    0.000081486
  12   H   :    0.000010979    0.000008042   -0.000109835
  13   H   :   -0.000114002   -0.000014326    0.000059405
  14   H   :   -0.000062629    0.000120761    0.000025708

Difference to translation invariance:
           :    0.0000000000   -0.0000000000   -0.0000000000

Difference to rotation invariance:
           :   -0.0000409092   -0.0000616639    0.0000849404

Norm of the Cartesian gradient     ...    0.0016804699
RMS gradient                       ...    0.0002593021
MAX gradient                       ...    0.0009382258

-------
TIMINGS
-------

Total SCF gradient time     ....        3.631 sec

Densities                   ....       0.000 sec  (  0.0%)
One electron gradient       ....       0.109 sec  (  3.0%)
RI-J Coulomb gradient       ....       0.576 sec  ( 15.9%)
XC gradient                 ....       2.915 sec  ( 80.3%)

Maximum memory used throughout the entire SCFGRAD-calculation: 31.6 MB

------------------------------------------------------------------------------
                              ORCA PROPERTY CALCULATIONS
------------------------------------------------------------------------------

GBWName                                 ... xtb_opt.gbw
Number of atoms                         ...     14
Number of basis functions               ...    164
Max core memory                         ...   1024 MB

Electric properties:
Dipole moment                           ... YES
Quadrupole moment                       ...  NO
Static polarizability (Dipole/Dipole)   ...  NO
Static polarizability (Dipole/Quad.)    ...  NO
Static polarizability (Quad./Quad.)     ...  NO
Static polarizability (Velocity)        ...  NO

Atomic electric properties:
Dipole moment                           ...  NO
Quadrupole moment                       ...  NO
Static polarizability                   ...  NO

Choice of electric origin               ... Center of mass
Position of electric origin             ...     0.024270     0.099885     0.283217

General magnetic properties:
Magnetizability                         ...  NO

EPR properties:
g-Tensor (aka g-matrix)                 ...  NO
Zero-Field splitting spin-orbit         ...  NO
Zero-field splitting spin-spin          ...  NO
Hyperfine couplings                     ...  NO (   0 nuclei)
Quadrupole couplings                    ...  NO (   0 nuclei)
Contact density                         ...  NO (   0 nuclei)

NMR properties:
Chemical shifts                         ...  NO (   0 nuclei)
Spin-rotation constants                 ...  NO (   0 nuclei)
Spin-spin couplings                     ...  NO (   0 nuclei,    0 pairs)

Choice of magnetic origin               ... GIAO
Position of magnetic origin             ...     0.000000     0.000000     0.000000

Properties with geometric perturbations:
SCF Hessian                             ...  NO
IR spectrum                             ...  NO
VCD spectrum                            ...  NO
X-ray spectroscopy properties:
SCF XES/XAS/RIXS spectra                ...  NO


-------------
DIPOLE MOMENT
-------------

Method             : SCF
Type of density    : Electron Density
Multiplicity       :   1
Irrep              :   0
Energy             :  -307.6408007106736022 Eh
Relativity type    : 
Basis              : AO
                                X                 Y                 Z
Electronic contribution:      2.780279471      -0.740645847       0.180575610
Nuclear contribution   :     -2.612213981       1.272027937      -0.557478218
                        -----------------------------------------
Total Dipole Moment    :      0.168065489       0.531382090      -0.376902608
                        -----------------------------------------
Magnitude (a.u.)       :      0.672806443
Magnitude (Debye)      :      1.710138071



--------------------
Rotational spectrum 
--------------------
 
Rotational constants in cm-1:             0.315741             0.071459             0.060312 
Rotational constants in MHz :          9465.673618          2142.298523          1808.118657 

Dipole components along the rotational axes: 
x,y,z [a.u.] :     0.178873     0.648576    -0.004669 
x,y,z [Debye]:     0.454660     1.648550    -0.011867 

 

Dipole moment calculation done in   0.0 sec 

Maximum memory used throughout the entire PROP-calculation: 9.9 MB

--------------------------------
SUGGESTED CITATIONS FOR THIS RUN
--------------------------------

Below you find a list of papers that are relevant to this ORCA run
We neither can nor want to force you to cite these papers, but we appreciate if you do
You receive ORCA, which is the product of decades of hard work by many enthusiastic individuals, for free
The only thing we kindly ask in return is that you cite our papers,
We deeply appreciate it, if you show your appreciation for ORCA by not just citing the generic ORCA reference.

Please note that relegating all ORCA citations to the supporting information does *not* help us.
SI sections are not indexed - citations you put there will not count into any citation statistics
But we need these citations in order to attract the funding resources that allow us to do what we are doing

Therefore, if you are a happy ORCA user, please consider citing a few of the papers listed below in the main body of your paper

In addition to the list printed below, the program has created the file xtb_opt.bibtex that contains the list in bibtex format
You can import this file easily into all common literature databanks and citation aid programs


List of essential papers. We consider these as the minimum necessary citations

  1. Neese,F.
     Software update: the ORCA program system, version 5.0
     WIRES Comput. Molec. Sci., 2022 12(1)e1606
     doi.org/10.1002/wcms.1606
  2. Grimme,S.; Hansen,A.; Ehlert,S.; Mewes,J.
     r2SCAN-3c: A 'Swiss army knife' composite electronic-structure method
     J. Chem. Phys., 2021 154 064103
     doi.org/10.1063/5.0040021

List of papers to cite with high priority. The work reported in these papers was absolutely
necessary for this run to complete.
Our perspective: the developers of density functionals and basis sets usually get cited in chemistry papers
Good! But without the algorithms to do something with them, the functionals or basis sets would not do anything.
Hence, in our opinion, the algorithm design and method developments papers are equally worthy of getting cited

  1. Neese,F.
     An improvement of the resolution of the identity approximation for the formation of the Coulomb matrix
     J. Comp. Chem., 2003 24(14)1740-1747
     doi.org/10.1002/jcc.10318
  2. Neese,F.
     The SHARK Integral Generation and Digestion System
     J. Comp. Chem., 2022  1-16
     doi.org/10.1002/jcc.26942
  3. Lehtola,S.; Steigemann,C.; Oliveira,M.; Marques,M.
     Recent developments in Libxc - A comprehensive library of functionals for density functional theory
     Software X, 2018 7 
     doi.org/10.1016/j.softx.2017.11.002
  4. Caldeweyher,E.; Bannwarth,C.; Grimme,S.
     Extension of the D3 dispersion coefficient model
     J. Chem. Phys., 2017 147 034112
     doi.org/10.1063/1.4993215
  5. Caldeweyher,E.; Ehlert,S.; Hansen,A.; Neugebauer,H.; Spicher,S.; Bannwarth,C.; Grimme,S.
     A generally applicable atomic-charge dependent London dispersion correction
     J. Chem. Phys., 2019 150 154122
     doi.org/10.1063/1.5090222
  6. Caldeweyher,E.; Mewes,J.; Ehlert,S.; Grimme,S.
     Extension and evaluation of the D4 London-dispersion model for periodic systems
     Phys. Chem. Chem. Phys., 2020 22(16)8499-8512
     doi.org/10.1039/D0CP00502A
  7. Wittmann,L.; Gordiy,I.; Friede,M.; Helmich-Paris,B.; Grimme,S.; Hansen,A.; Bursch,M.
     Extension of the D3 and D4 London Dispersion Corrections to the full Actinides Series
     Phys. Chem. Chem. Phys., 2024 26(32)21379-21394
     doi.org/https://doi.org/10.1039/D4CP01514B 

List of suggested additional citations. These are papers that are important in the 'surrounding' of 
of this run, or papers that preceded the highly important papers. If you like your results we are grateful for a citation.

  1. Neese,F.
     The ORCA program system
     WIRES Comput. Molec. Sci., 2012 2(1)73-78
     doi.org/10.1002/wcms.81
  2. Neese,F.
     Software update: the ORCA program system, version 4.0
     WIRES Comput. Molec. Sci., 2018 8(1)1-6
     doi.org/10.1002/wcms.1327
  3. Neese,F.; Wennmohs,F.; Becker,U.; Riplinger,C.
     The ORCA quantum chemistry program package
     J. Chem. Phys., 2020 152 Art. No. L224108
     doi.org/10.1063/5.0004608

List of optional additional citations

  1. Neese,F.
     Approximate second-order SCF convergence for spin unrestricted wavefunctions
     Chem. Phys. Lett., 2000 325(1-3)93-98
     doi.org/10.1016/s0009-2614(00)00662-x

Timings for individual modules:

Sum of individual times          ...        6.053 sec (=   0.101 min)
Startup calculation              ...        0.417 sec (=   0.007 min)   6.9 %
SCF iterations                   ...        1.906 sec (=   0.032 min)  31.5 %
Property calculations            ...        0.046 sec (=   0.001 min)   0.8 %
SCF Gradient evaluation          ...        3.683 sec (=   0.061 min)  60.9 %
                             ****ORCA TERMINATED NORMALLY****
TOTAL RUN TIME: 0 days 0 hours 0 minutes 6 seconds 152 msec
  ------------------------------------------------------------------------
          * successful ORCA run, taking over control again...

         :::::::::::::::::::::::::::::::::::::::::::::::::::::
         ::                  ORCA SUMMARY                   ::
         :::::::::::::::::::::::::::::::::::::::::::::::::::::
         :: total energy            -307.634540761259 Eh    ::
         :: gradient norm              0.001680469927 Eh/a0 ::
         :: HOMO-LUMO gap              0.000000000000 eV    ::
         :::::::::::::::::::::::::::::::::::::::::::::::::::::

      ----------------------------------------------------------- 
     |                       L-ANC optimizer                     |
      ----------------------------------------------------------- 
          low memory version by Sebastian Ehlert

          ...................................................
          :                      SETUP                      :
          :.................................................:
          :   energy convergence        0.5000000E-05 Eh    :
          :   grad. convergence         0.1000000E-02 Eh/a0 :
          :   optimization log               true           :
          :   writing optlog all                1     steps :
          :   Hessian reset                     8     steps :
          :   maximium step len.        1.0000000     a0    :
          :   LBFGS images                      8           :
          ...................................................
 * calculating model hessian...
Using Lindh-Hessian (1995)
 Shifting diagonal of input Hessian by    1.0000000000000000E-002
 Lowest  eigenvalues of input Hessian
    0.000000    0.000000    0.000000    0.000000    0.000000    0.000000
    0.013247    0.015528    0.017385    0.022213    0.032908    0.037961
    0.040902    0.054665    0.063686    0.065166    0.077993    0.095159
 Highest eigenvalues
    1.147632    1.155553    1.219101    1.309546    1.713700    2.302539


........................................................................
.............................. CYCLE    1 ..............................
........................................................................
                         * ORCA takes the control...
  ------------------------------------------------------------------------

                                 *****************
                                 * O   R   C   A *
                                 *****************

                                            #,                                       
                                            ###                                      
                                            ####                                     
                                            #####                                    
                                            ######                                   
                                           ########,                                 
                                     ,,################,,,,,                         
                               ,,#################################,,                 
                          ,,##########################################,,             
                       ,#########################################, ''#####,          
                    ,#############################################,,   '####,        
                  ,##################################################,,,,####,       
                ,###########''''           ''''###############################       
              ,#####''   ,,,,##########,,,,          '''####'''          '####       
            ,##' ,,,,###########################,,,                        '##       
           ' ,,###''''                  '''############,,,                           
         ,,##''                                '''############,,,,        ,,,,,,###''
      ,#''                                            '''#######################'''  
     '                                                          ''''####''''         
             ,#######,   #######,   ,#######,      ##                                
            ,#'     '#,  ##    ##  ,#'     '#,    #''#        ,####,   ,####,        
            ##       ##  ##   ,#'  ##            #'  '#       #'       #'  '#        
            ##       ##  #######   ##           ,######,      #####,   #    #        
            '#,     ,#'  ##    ##  '#,     ,#' ,#      #,     #,   #   #,  ,#        
             '#######'   ##     ##  '#######'  #'      '#     '####' # '####'        



                #########################################################
                #                        -***-                          #
                #          Department of theory and spectroscopy        #
                #                                                       #
                #                      Frank Neese                      #
                #                                                       #
                #     Directorship, Architecture, Infrastructure        #
                #                    SHARK, DRIVERS                     #
                #        Core code/Algorithms in most modules           #
                #                                                       #
                #        Max Planck Institute fuer Kohlenforschung      #
                #                Kaiser Wilhelm Platz 1                 #
                #                 D-45470 Muelheim/Ruhr                 #
                #                      Germany                          #
                #                                                       #
                #                  All rights reserved                  #
                #                        -***-                          #
                #########################################################


                         Program Version 6.0.1  -  RELEASE   -


 With contributions from (in alphabetic order):
[Max-Planck-Institut fuer Kohlenforschung]                               
  Daniel Aravena         : Magnetic Suceptibility                        
  Michael Atanasov       : Ab Initio Ligand Field Theory (pilot matlab implementation)
  Alexander A. Auer      : GIAO ZORA, VPT2 properties, NMR spectrum      
  Ute Becker             : All parallelization in ORCA, NUMFREQ, NUMCALC 
  Giovanni Bistoni       : ED, misc. LED, open-shell LED, HFLD           
  Martin Brehm           : Molecular dynamics                            
  Dmytro Bykov           : pre 5.0 version of the SCF Hessian            
  Marcos Casanova-Páez   : Triplet and SCS-CIS(D). UHF-(DLPNO)-IP/EA/STEOM-CCSD. UHF-CVS-IP/STEOM-CCSD   
  Vijay G. Chilkuri      : MRCI spin determinant printing, contributions to CSF-ICE 
  Pauline Colinet        : FMM embedding                                 
  Dipayan Datta          : RHF DLPNO-CCSD density                        
  Achintya Kumar Dutta   : EOM-CC, STEOM-CC                              
  Nicolas Foglia         : Exact transition moments, OPA infrastructure, MCD improvements    
  Dmitry Ganyushin       : Spin-Orbit,Spin-Spin,Magnetic field MRCI      
  Miquel Garcia-Rates    : C-PCM and meta-GGA Hessian, CCSD/C-PCM, Gaussian charge scheme 
  Tiago L. C. Gouveia    : GS-ROHF, GS-ROCIS                             
  Yang Guo               : DLPNO-NEVPT2, F12-NEVPT2, CIM, IAO-localization        
  Andreas Hansen         : Spin unrestricted coupled pair/coupled cluster methods 
  Ingolf Harden          : AUTO-CI MPn and infrastructure                
  Benjamin Helmich-Paris : MC-RPA, TRAH-(SCF,CASSCF), AVAS, COSX integrals, SCF dyn. polar. 
  Lee Huntington         : MR-EOM, pCC                                   
  Robert Izsak           : Overlap fitted RIJCOSX, COSX-SCS-MP3, EOM     
  Riya Kayal             : Wick's Theorem for AUTO-CI, AUTO-CI UHF-CCSDT 
  Emily Kempfer          : AUTO-CI, RHF CISDT and CCSDT                  
  Christian Kollmar      : KDIIS, OOCD, Brueckner-CCSD(T), CCSD density, CASPT2, CASPT2-K, improved NEVPT2 
  Axel Koslowski         : Symmetry handling                             
  Simone Kossmann        : meta-GGA functionals, TD-DFT gradient, OOMP2, (MP2 Hessian; deprecated post 5.0) 
  Lucas Lang             : DCDCAS                                        
  Marvin Lechner         : AUTO-CI (C++ implementation), FIC-MRCC        
  Spencer Leger          : CASSCF response                               
  Dagmar Lenk            : GEPOL surface, SMD, ORCA-2-JSON               
  Dimitrios Liakos       : Extrapolation schemes; Compound Job, initial MDCI parallelization 
  Dimitrios Manganas     : Further ROCIS development; embedding schemes. LFT, Crystal Embedding 
  Dimitrios Pantazis     : SARC Basis sets                               
  Anastasios Papadopoulos: AUTO-CI, single reference methods and gradients 
  Taras Petrenko         : pre 6.0 DFT Hessian and TD-DFT gradient, (ASA, deprecated), ECA, 1-Electron XAS/XES, NRVS 
  Peter Pinski           : DLPNO-MP2, DLPNO-MP2 Gradient                 
  Christoph Reimann      : Effective Core Potentials                     
  Marius Retegan         : Local ZFS, SOC                                
  Christoph Riplinger    : Optimizer, TS searches, QM/MM, DLPNO-CCSD(T), (RO)-DLPNO pert. Triples 
  Michael Roemelt        : Original ROCIS implementation                 
  Masaaki Saitow         : Open-shell DLPNO-CCSD energy and density      
  Barbara Sandhoefer     : DKH picture change effects                    
  Kantharuban Sivalingam : CASSCF convergence/infrastructure, NEVPT2 and variants, FIC-MRCI 
  Bernardo de Souza      : ESD, SOC TD-DFT                               
  Georgi L. Stoychev     : AutoAux, RI-MP2 NMR, DLPNO-MP2 response, X2C  
  Van Anh Tran           : RI-MP2 g-tensors                              
  Willem Van den Heuvel  : Paramagnetic NMR                              
  Zikuan Wang            : NOTCH, Electric field optimization            
  Frank Wennmohs         : Technical directorship and infrastructure     
  Hang Xu                : AUTO-CI-Response properties                   
                                                                         
[FACCTs GmbH]                                                            
  Markus Bursch, Miquel Garcia-Rates, Christoph Riplinger, Bernardo de Souza, Georgi L. Stoychev 
                                                                 
  APM, Basis sets (HGBS, AHGBS, def-TZVP (Ac-Lr), def2-XVPD (La-Lu)), CI-OPT, improved COSX, DLPNO-Multilevel,           
  DOCKER, DRACO, updates on ESD, GOAT, IRC, LR-CPCM, MBIS, meta-GGA TD-DFT gradient, ML-optimized integration grids, 
  MM, NACMEs, nearIR, NEB, NEB-TS, NL-DFT gradient (VV10), 2- and 3-layer-ONIOM, interface openCOSMO-RS, QMMM,   
  Crystal-QMMM, SF, symmetry and pop. for TD-DFT, r2SCAN hybrids, SOLVATOR                                   
                                                                         
[Other institutions]                                                     
  V. Asgeirsson          : NEB                                           
  Christoph Bannwarth    : sTDA-DFT, sTD-DFT, PBEh-3c, B97-3c, D3        
  Sebastian Ehlert       : rSCAN, r2SCAN, r2SCAN-3c, D4, dhf basis sets  
  Marvin Friede          : D4 for Fr, Ra, Ac-Lr                          
  Lars Goerigk           : TD-DFT with DH, B97 family of functionals     
  Stefan Grimme          : VdW corrections, initial TS optimization, DFT functionals, gCP, sTDA/sTD-DF 
  Waldemar Hujo          : DFT-NL                                        
  H. Jonsson             : NEB                                           
  Holger Kruse           : gCP                                           
  Marcel Mueller         : wB97X-3c, vDZP basis set                      
  Hagen Neugebauer       : wr2SCAN                                       
  Tobias Risthaus        : range-separated hybrid DFT                    
  Lukas Wittmann         : regularized MP2, r2SCAN double-hybrids, wr2SCAN        
                                                                         
We gratefully acknowledge several colleagues who have allowed us to      
interface, adapt or use parts of their codes:                            
  Ed Valeev, F. Pavosevic, A. Kumar             : LibInt (2-el integral package), F12 methods 
  Garnet Chan, S. Sharma, J. Yang, R. Olivares  : DMRG                   
  Ulf Ekstrom                                   : XCFun DFT Library      
  Mihaly Kallay                                 : mrcc  (arbitrary order and MRCC methods)
  Frank Weinhold                                : gennbo (NPA and NBO analysis)           
  Simon Mueller                                 : openCOSMO-RS                            
  Christopher J. Cramer and Donald G. Truhlar   : smd solvation model                     
  S Lehtola, MJT Oliveira, MAL Marques          : LibXC Library                           
  Liviu Ungur et al                             : ANISO software                          


 Your calculation uses the libint2 library for the computation of 2-el integrals
 For citations please refer to: http://libint.valeyev.net

 Your ORCA version has been built with support for libXC version: 6.2.2
 For citations please refer to: https://libxc.gitlab.io

 This ORCA versions uses:
   CBLAS   interface :  Fast vector & matrix operations
   LAPACKE interface :  Fast linear algebra routines
   SCALAPACK package :  Parallel linear algebra routines
   Shared memory     :  Shared parallel matrices
   BLAS/LAPACK       :  OpenBLAS 0.3.27  USE64BITINT DYNAMIC_ARCH NO_AFFINITY Zen SINGLE_THREADED
        Core in use  :  Zen
   Copyright (c) 2011-2014, The OpenBLAS Project




***************************************
The coordinates will be read from file: xtb_opt.xyz
***************************************


Your calculation utilizes the geometrical counterpoise correction gCP
Please cite in your paper:
H.Kruse, S. Grimme J.Chem.Phys., 136, (2012), 154101 
   

Your calculation utilizes the atom-pairwise dispersion correction
based on EEQ partial charges (D4)


================================================================================

----- Orbital basis set information -----
Your calculation utilizes the basis: def2-mTZVPP
   Stefan Grimme, Andreas Hansen, Sebastian Ehlert, and Jan-Michael Mewes 
   J. Chem. Phys. 154, 064103 (2021). DOI: 10.1063/5.0040021

----- AuxJ basis set information -----
Your calculation utilizes the auxiliary basis: def2/J
   F. Weigend, Phys. Chem. Chem. Phys. 8, 1057 (2006).

================================================================================
                                        WARNINGS
                       Please study these warnings very carefully!
================================================================================

WARNING: Old DensityContainer found on disk!
         Will remove this file - 
         If you want to keep old densities, please start your calculation with a different basename. 



WARNING: SCAN, rSCAN, or r2SCAN functional requested.
  ===> : libXC variant has now been activated.



================================================================================
                                       INPUT FILE
================================================================================
NAME = xtb_opt.inp
|  1> ! r2scan-3c def2/J RI DEFGRID2 scfconv7 ENGRAD tightSCF miniprint
|  2> * xyzfile 0 1 xtb_opt.xyz
|  3> 
|  4>                          ****END OF INPUT****
================================================================================

                     *******************************
                     * Energy+Gradient Calculation *
                     *******************************

---------------------------------
CARTESIAN COORDINATES (ANGSTROEM)
---------------------------------
  C     -2.479594    0.075700    0.379814
  C     -1.237158    0.671075   -0.267266
  C      0.031439   -0.019372    0.171732
  O      0.094254   -1.025273    0.838130
  O      1.121790    0.636289   -0.297542
  C      2.385813    0.031217    0.046427
  H     -2.560109   -0.990742    0.158241
  H     -2.442117    0.182716    1.466713
  H     -3.378150    0.578513    0.012752
  H     -1.135111    1.740233   -0.050128
  H     -1.283005    0.596238   -1.361270
  H      2.503797   -0.014711    1.132247
  H      3.146887    0.673053   -0.397205
  H      2.447861   -0.980990   -0.361902

----------------------------
CARTESIAN COORDINATES (A.U.)
----------------------------
  NO LB      ZA    FRAG     MASS         X           Y           Z
   0 C     6.0000    0    12.011   -4.685754    0.143052    0.717744
   1 C     6.0000    0    12.011   -2.337889    1.268148   -0.505059
   2 C     6.0000    0    12.011    0.059411   -0.036608    0.324527
   3 O     8.0000    0    15.999    0.178114   -1.937485    1.583837
   4 O     8.0000    0    15.999    2.119876    1.202412   -0.562272
   5 C     6.0000    0    12.011    4.508534    0.058991    0.087735
   6 H     1.0000    0     1.008   -4.837905   -1.872232    0.299032
   7 H     1.0000    0     1.008   -4.614933    0.345284    2.771686
   8 H     1.0000    0     1.008   -6.383779    1.093231    0.024099
   9 H     1.0000    0     1.008   -2.145049    3.288564   -0.094729
  10 H     1.0000    0     1.008   -2.424527    1.126727   -2.572428
  11 H     1.0000    0     1.008    4.731491   -0.027800    2.139637
  12 H     1.0000    0     1.008    5.946754    1.271886   -0.750609
  13 H     1.0000    0     1.008    4.625786   -1.853803   -0.683896

------------------------------------------------------------------------------
                   ___                                                        
                  /   \      - P O W E R E D   B Y -                         
                 /     \                                                     
                 |  |  |   _    _      __       _____    __    __             
                 |  |  |  | |  | |    /  \     |  _  \  |  |  /  |          
                  \  \/   | |  | |   /    \    | | | |  |  | /  /          
                 / \  \   | |__| |  /  /\  \   | |_| |  |  |/  /          
                |  |  |   |  __  | /  /__\  \  |    /   |      \           
                |  |  |   | |  | | |   __   |  |    \   |  |\   \          
                \     /   | |  | | |  |  |  |  | |\  \  |  | \   \       
                 \___/    |_|  |_| |__|  |__|  |_| \__\ |__|  \__/        
                                                                              
                      - O R C A' S   B I G   F R I E N D -                    
                                      &                                       
                       - I N T E G R A L  F E E D E R -                       
                                                                              
 v1 FN, 2020, v2 2021, v3 2022-2024                                           
------------------------------------------------------------------------------


----------------------
SHARK INTEGRAL PACKAGE
----------------------

Number of atoms                             ...     14
Number of basis functions                   ...    164
Number of shells                            ...     80
Maximum angular momentum                    ...      2
Integral batch strategy                     ... SHARK/LIBINT Hybrid
RI-J (if used) integral strategy            ... SPLIT-RIJ (Revised 2003 algorithm where possible)
Printlevel                                  ...      1
Contraction scheme used                     ... SEGMENTED contraction
Prescreening option                         ... SCHWARTZ
   Thresh                                   ... 3.000e-11
   Tcut                                     ... 1.000e-12
   Tpresel                                  ... 1.000e-12 
Coulomb Range Separation                    ... NOT USED
Exchange Range Separation                   ... NOT USED
Multipole approximations                    ... NOT USED
Finite Nucleus Model                        ... NOT USED
CABS basis                                  ... NOT available
Auxiliary Coulomb fitting basis             ... AVAILABLE
   # of basis functions in Aux-J            ...    382
   # of shells in Aux-J                     ...    130
   Maximum angular momentum in Aux-J        ...      4
Auxiliary J/K fitting basis                 ... NOT available
Auxiliary Correlation fitting basis         ... NOT available
Auxiliary 'external' fitting basis          ... NOT available

Checking pre-screening integrals            ... done (  0.0 sec) Dimension = 80
Check shell pair data                       ... done (  0.0 sec)
Shell pair information
Shell pair cut-off parameter TPreSel        ...   1.0e-12
Total number of shell pairs                 ...      3240
Shell pairs after pre-screening             ...      2995
Total number of primitive shell pairs       ...     11481
Primitive shell pairs kept                  ...      7904
          la=0 lb=0:    976 shell pairs
          la=1 lb=0:   1107 shell pairs
          la=1 lb=1:    326 shell pairs
          la=2 lb=0:    351 shell pairs
          la=2 lb=1:    199 shell pairs
          la=2 lb=2:     36 shell pairs

Calculating one electron integrals          ... done (  0.0 sec)
Calculating RI/J V-Matrix + Cholesky decomp.... done (  0.0 sec)
Calculating Nuclear repulsion               ... done (  0.0 sec) ENN=    244.944282066470 Eh

Diagonalization of the overlap matrix:
Smallest eigenvalue                        ... 1.841e-04
Time for diagonalization                   ...    0.002 sec
Threshold for overlap eigenvalues          ... 1.000e-07
Number of eigenvalues below threshold      ... 0
Time for construction of square roots      ...    0.001 sec
Total time needed                          ...    0.003 sec

-------------------
DFT GRID GENERATION
-------------------

General Integration Accuracy     IntAcc      ... 4.388
Radial Grid Type                 RadialGrid  ... OptM3 with GC (2021)
Angular Grid (max. ang.)         AngularGrid ... 4 (Lebedev-302)
Angular grid pruning method      GridPruning ... 4 (adaptive)
Weight generation scheme         WeightScheme... mBecke (2022)
Basis function cutoff            BFCut       ... 1.0000e-11
Integration weight cutoff        WCut        ... 1.0000e-14
Partially contracted basis set               ... off
Rotationally invariant grid construction     ... off
Angular grids for H and He will be reduced by one unit
Diffuse basis detected: some atoms will have their outermost
                        angular grid increased by 1.

Total number of grid points                  ...    62788
Total number of batches                      ...      990
Average number of points per batch           ...       63
Average number of grid points per atom       ...     4485
Initializing property integral containers    ... done (  0.0 sec)

SHARK setup successfully completed in   0.4 seconds

Maximum memory used throughout the entire STARTUP-calculation: 28.5 MB
Occupation numbers will be reassigned to an Aufbau configuration
             **** ENERGY FILE WAS UPDATED (xtb_opt.en.tmp) ****
Finished Guess after   0.0 sec
Maximum memory used throughout the entire GUESS-calculation: 11.6 MB
----------------------------------------D-I-I-S--------------------------------------------
Iteration    Energy (Eh)           Delta-E    RMSDP     MaxDP     DIISErr   Damp  Time(sec)
-------------------------------------------------------------------------------------------
               ***  Starting incremental Fock matrix formation  ***
                              *** Initializing SOSCF ***
---------------------------------------S-O-S-C-F--------------------------------------
Iteration    Energy (Eh)           Delta-E    RMSDP     MaxDP     MaxGrad    Time(sec)
--------------------------------------------------------------------------------------
    1    -307.6408001359133664     0.00e+00  3.66e-05  6.32e-04  8.96e-05     0.9
               *** Restarting incremental Fock matrix formation ***
    2    -307.6408075895979550    -7.45e-06  1.74e-05  3.76e-04  8.18e-05     0.9
    3    -307.6408079908248396    -4.01e-07  9.83e-06  2.92e-04  6.82e-05     0.7
    4    -307.6408080689428175    -7.81e-08  5.19e-06  1.04e-04  7.52e-05     0.7
                 **** Energy Check signals convergence ****

               *****************************************************
               *                     SUCCESS                       *
               *           SCF CONVERGED AFTER   4 CYCLES          *
               *****************************************************

             **** ENERGY FILE WAS UPDATED (xtb_opt.en.tmp) ****

----------------
TOTAL SCF ENERGY
----------------

Total Energy       :       -307.64080806894282 Eh           -8371.33198 eV

Components:
Nuclear Repulsion  :        244.94428206646984 Eh            6665.27277 eV
Electronic Energy  :       -552.58509013541266 Eh          -15036.60475 eV
One Electron Energy:       -903.43816844218509 Eh          -24583.80238 eV
Two Electron Energy:        350.85307830677243 Eh            9547.19763 eV

Virial components:
Potential Energy   :       -613.93487579674479 Eh          -16706.01729 eV
Kinetic Energy     :        306.29406772780192 Eh            8334.68531 eV
Virial Ratio       :          2.00439688679292

DFT components:
N(Alpha)           :       24.000002692645 electrons
N(Beta)            :       24.000002692645 electrons
N(Total)           :       48.000005385290 electrons
E(X)               :      -40.201922909502 Eh       
E(C)               :       -1.536931878499 Eh       
E(XC)              :      -41.738854788001 Eh       

---------------
SCF CONVERGENCE
---------------

  Last Energy change         ...    7.8118e-08  Tolerance :   1.0000e-07
  Last MAX-Density change    ...    1.0350e-04  Tolerance :   1.0000e-07
  Last RMS-Density change    ...    5.1926e-06  Tolerance :   5.0000e-09
  Last DIIS Error            ...    1.1118e-03  Tolerance :   1.0000e-07
  Last Orbital Gradient      ...    7.5166e-05  Tolerance :   1.0000e-04
  Last Orbital Rotation      ...    1.0909e-04  Tolerance :   1.0000e-04


----------------
ORBITAL ENERGIES
----------------

  NO   OCC          E(Eh)            E(eV) 
   0   2.0000     -18.997552      -516.9497 
   1   2.0000     -18.935927      -515.2728 
   2   2.0000     -10.155462      -276.3442 
   3   2.0000     -10.086387      -274.4646 
   4   2.0000     -10.048795      -273.4416 
   5   2.0000     -10.025799      -272.8159 
   6   2.0000      -1.065334       -28.9892 
   7   2.0000      -0.979640       -26.6574 
   8   2.0000      -0.756785       -20.5932 
   9   2.0000      -0.690819       -18.7981 
  10   2.0000      -0.609918       -16.5967 
  11   2.0000      -0.524973       -14.2853 
  12   2.0000      -0.470867       -12.8129 
  13   2.0000      -0.457862       -12.4591 
  14   2.0000      -0.439176       -11.9506 
  15   2.0000      -0.418089       -11.3768 
  16   2.0000      -0.397242       -10.8095 
  17   2.0000      -0.358074        -9.7437 
  18   2.0000      -0.348689        -9.4883 
  19   2.0000      -0.342606        -9.3228 
  20   2.0000      -0.322640        -8.7795 
  21   2.0000      -0.318102        -8.6560 
  22   2.0000      -0.275037        -7.4841 
  23   2.0000      -0.242122        -6.5885 
  24   0.0000      -0.017593        -0.4787 
  25   0.0000       0.065887         1.7929 
  26   0.0000       0.085780         2.3342 
  27   0.0000       0.115124         3.1327 
  28   0.0000       0.132867         3.6155 
  29   0.0000       0.151150         4.1130 
  30   0.0000       0.155457         4.2302 
  31   0.0000       0.166307         4.5254 
  32   0.0000       0.184176         5.0117 
  33   0.0000       0.185275         5.0416 
  34   0.0000       0.191736         5.2174 
*Only the first 10 virtual orbitals were printed.
Total SCF time: 0 days 0 hours 0 min 3 sec 
Finished LeanSCF after   3.2 sec

Maximum memory used throughout the entire LEANSCF-calculation: 17.4 MB


-------------------------------------------------------------------------------
                          DFT DISPERSION CORRECTION                            
                                                                               
                                DFTD4 V3.4.0                                   
-------------------------------------------------------------------------------
-------------------------   ----------------
Dispersion correction           -0.002940232
-------------------------   ----------------

------------------   -----------------
gCP correction             0.009203693
------------------   -----------------

-------------------------   --------------------
FINAL SINGLE POINT ENERGY      -307.634544608046
-------------------------   --------------------

------------------------------------------------------------------------------
                         ORCA SCF GRADIENT CALCULATION
------------------------------------------------------------------------------

Nuc. rep. gradient        (SHARK) ... done (  0.0 sec)
HCore & Overlap gradient  (SHARK) ... done (  0.1 sec)
Split-RIJ-J gradient      (SHARK) ... done (  0.6 sec)
XC gradient                       ... done (  2.6 sec)
Dispersion correction             ... done (  0.0 sec)

-------------------
DISPERSION GRADIENT
-------------------

   1   C   :   -0.000060534   -0.000000840    0.000006726
   2   C   :   -0.000044634    0.000019947   -0.000013702
   3   C   :    0.000015073   -0.000002478   -0.000000300
   4   O   :    0.000011821   -0.000038089    0.000023162
   5   O   :    0.000046510    0.000009926   -0.000009761
   6   C   :    0.000063718   -0.000008090    0.000002587
   7   H   :   -0.000022706   -0.000006829    0.000001942
   8   H   :   -0.000023457   -0.000000135    0.000009473
   9   H   :   -0.000025018    0.000003093    0.000000095
  10   H   :   -0.000015671    0.000017518   -0.000003278
  11   H   :   -0.000016951    0.000006864   -0.000014776
  12   H   :    0.000023624   -0.000000892    0.000002541
  13   H   :    0.000024891    0.000003569   -0.000003204
  14   H   :    0.000023334   -0.000003566   -0.000001506

Difference to translation invariance:
           :   -0.0000000000    0.0000000000    0.0000000000

Difference to rotation invariance:
           :   -0.0000000000   -0.0000000000    0.0000000000

Norm of the Dispersion gradient    ...    0.0001409343
RMS gradient                       ...    0.0000217466
MAX gradient                       ...    0.0000637180
gCP correction                   ... done

------------------
CARTESIAN GRADIENT
------------------

   1   C   :   -0.000030381   -0.000011885    0.000026270
   2   C   :    0.000063057   -0.000105081   -0.000044449
   3   C   :   -0.000132030   -0.000058144    0.000402689
   4   O   :    0.000025918    0.000225057   -0.000394691
   5   O   :   -0.000057842   -0.000008691    0.000030221
   6   C   :    0.000116952   -0.000052654   -0.000020297
   7   H   :    0.000027417    0.000035206    0.000074872
   8   H   :   -0.000045127    0.000058851   -0.000046671
   9   H   :    0.000013667   -0.000048241   -0.000019169
  10   H   :    0.000065783   -0.000041035   -0.000004583
  11   H   :   -0.000053451   -0.000015159   -0.000020177
  12   H   :   -0.000013198   -0.000001178    0.000018783
  13   H   :    0.000025113    0.000010765    0.000006198
  14   H   :   -0.000005878    0.000012187   -0.000008997

Difference to translation invariance:
           :    0.0000000000    0.0000000000   -0.0000000000

Difference to rotation invariance:
           :   -0.0000373418   -0.0000664107    0.0000728857

Norm of the Cartesian gradient     ...    0.0006777014
RMS gradient                       ...    0.0001045716
MAX gradient                       ...    0.0004026890

-------
TIMINGS
-------

Total SCF gradient time     ....        3.308 sec

Densities                   ....       0.000 sec  (  0.0%)
One electron gradient       ....       0.103 sec  (  3.1%)
RI-J Coulomb gradient       ....       0.598 sec  ( 18.1%)
XC gradient                 ....       2.579 sec  ( 78.0%)

Maximum memory used throughout the entire SCFGRAD-calculation: 31.6 MB

------------------------------------------------------------------------------
                              ORCA PROPERTY CALCULATIONS
------------------------------------------------------------------------------

GBWName                                 ... xtb_opt.gbw
Number of atoms                         ...     14
Number of basis functions               ...    164
Max core memory                         ...   1024 MB

Electric properties:
Dipole moment                           ... YES
Quadrupole moment                       ...  NO
Static polarizability (Dipole/Dipole)   ...  NO
Static polarizability (Dipole/Quad.)    ...  NO
Static polarizability (Quad./Quad.)     ...  NO
Static polarizability (Velocity)        ...  NO

Atomic electric properties:
Dipole moment                           ...  NO
Quadrupole moment                       ...  NO
Static polarizability                   ...  NO

Choice of electric origin               ... Center of mass
Position of electric origin             ...     0.024143     0.100528     0.283659

General magnetic properties:
Magnetizability                         ...  NO

EPR properties:
g-Tensor (aka g-matrix)                 ...  NO
Zero-Field splitting spin-orbit         ...  NO
Zero-field splitting spin-spin          ...  NO
Hyperfine couplings                     ...  NO (   0 nuclei)
Quadrupole couplings                    ...  NO (   0 nuclei)
Contact density                         ...  NO (   0 nuclei)

NMR properties:
Chemical shifts                         ...  NO (   0 nuclei)
Spin-rotation constants                 ...  NO (   0 nuclei)
Spin-spin couplings                     ...  NO (   0 nuclei,    0 pairs)

Choice of magnetic origin               ... GIAO
Position of magnetic origin             ...     0.000000     0.000000     0.000000

Properties with geometric perturbations:
SCF Hessian                             ...  NO
IR spectrum                             ...  NO
VCD spectrum                            ...  NO
X-ray spectroscopy properties:
SCF XES/XAS/RIXS spectra                ...  NO


-------------
DIPOLE MOMENT
-------------

Method             : SCF
Type of density    : Electron Density
Multiplicity       :   1
Irrep              :   0
Energy             :  -307.6408080689428175 Eh
Relativity type    : 
Basis              : AO
                                X                 Y                 Z
Electronic contribution:      2.779971237      -0.737301925       0.183983129
Nuclear contribution   :     -2.611310408       1.267403727      -0.560665983
                        -----------------------------------------
Total Dipole Moment    :      0.168660829       0.530101802      -0.376682854
                        -----------------------------------------
Magnitude (a.u.)       :      0.671821679
Magnitude (Debye)      :      1.707635000



--------------------
Rotational spectrum 
--------------------
 
Rotational constants in cm-1:             0.316169             0.071465             0.060328 
Rotational constants in MHz :          9478.501256          2142.452426          1808.587371 

Dipole components along the rotational axes: 
x,y,z [a.u.] :     0.179455     0.647398    -0.003947 
x,y,z [Debye]:     0.456138     1.645556    -0.010034 

 

Dipole moment calculation done in   0.0 sec 

Maximum memory used throughout the entire PROP-calculation: 9.9 MB

--------------------------------
SUGGESTED CITATIONS FOR THIS RUN
--------------------------------

Below you find a list of papers that are relevant to this ORCA run
We neither can nor want to force you to cite these papers, but we appreciate if you do
You receive ORCA, which is the product of decades of hard work by many enthusiastic individuals, for free
The only thing we kindly ask in return is that you cite our papers,
[...]
    3    -307.6408078453583244     2.79e-07  5.49e-06  1.26e-04  1.96e-04     0.6
    4    -307.6408081715293861    -3.26e-07  1.76e-06  4.56e-05  8.55e-06     0.6
                  *** Gradient check signals convergence ***

               *****************************************************
               *                     SUCCESS                       *
               *           SCF CONVERGED AFTER   4 CYCLES          *
               *****************************************************

             **** ENERGY FILE WAS UPDATED (xtb_opt.en.tmp) ****

----------------
TOTAL SCF ENERGY
----------------

Total Energy       :       -307.64080817152939 Eh           -8371.33198 eV

Components:
Nuclear Repulsion  :        244.94428206646984 Eh            6665.27277 eV
Electronic Energy  :       -552.58509023799911 Eh          -15036.60475 eV
One Electron Energy:       -903.43771905203266 Eh          -24583.79015 eV
Two Electron Energy:        350.85262881403349 Eh            9547.18540 eV

Virial components:
Potential Energy   :       -613.93412288192121 Eh          -16705.99680 eV
Kinetic Energy     :        306.29331471039188 Eh            8334.66482 eV
Virial Ratio       :          2.00439935642217

DFT components:
N(Alpha)           :       24.000002691769 electrons
N(Beta)            :       24.000002691769 electrons
N(Total)           :       48.000005383537 electrons
E(X)               :      -40.201780968337 Eh       
E(C)               :       -1.536935896636 Eh       
E(XC)              :      -41.738716864973 Eh       

---------------
SCF CONVERGENCE
---------------

  Last Energy change         ...    3.2617e-07  Tolerance :   1.0000e-07
  Last MAX-Density change    ...    4.5635e-05  Tolerance :   1.0000e-07
  Last RMS-Density change    ...    1.7631e-06  Tolerance :   5.0000e-09
  Last DIIS Error            ...    1.0003e-04  Tolerance :   1.0000e-07
  Last Orbital Gradient      ...    8.5514e-06  Tolerance :   1.0000e-04
  Last Orbital Rotation      ...    2.3408e-05  Tolerance :   1.0000e-04


----------------
ORBITAL ENERGIES
----------------

  NO   OCC          E(Eh)            E(eV) 
   0   2.0000     -18.997636      -516.9520 
   1   2.0000     -18.936235      -515.2812 
   2   2.0000     -10.155310      -276.3400 
   3   2.0000     -10.086350      -274.4635 
   4   2.0000     -10.048714      -273.4394 
   5   2.0000     -10.025779      -272.8153 
   6   2.0000      -1.065355       -28.9898 
   7   2.0000      -0.979705       -26.6591 
   8   2.0000      -0.756749       -20.5922 
   9   2.0000      -0.690804       -18.7977 
  10   2.0000      -0.609892       -16.5960 
  11   2.0000      -0.524973       -14.2852 
  12   2.0000      -0.470856       -12.8126 
  13   2.0000      -0.457852       -12.4588 
  14   2.0000      -0.439228       -11.9520 
  15   2.0000      -0.418071       -11.3763 
  16   2.0000      -0.397262       -10.8100 
  17   2.0000      -0.358084        -9.7440 
  18   2.0000      -0.348667        -9.4877 
  19   2.0000      -0.342597        -9.3225 
  20   2.0000      -0.322653        -8.7798 
  21   2.0000      -0.318099        -8.6559 
  22   2.0000      -0.275080        -7.4853 
  23   2.0000      -0.242214        -6.5910 
  24   0.0000      -0.017601        -0.4789 
  25   0.0000       0.065892         1.7930 
  26   0.0000       0.085787         2.3344 
  27   0.0000       0.115132         3.1329 
  28   0.0000       0.132882         3.6159 
  29   0.0000       0.151164         4.1134 
  30   0.0000       0.155472         4.2306 
  31   0.0000       0.166326         4.5260 
  32   0.0000       0.184181         5.0118 
  33   0.0000       0.185286         5.0419 
  34   0.0000       0.191745         5.2177 
*Only the first 10 virtual orbitals were printed.
Total SCF time: 0 days 0 hours 0 min 3 sec 
Finished LeanSCF after   3.1 sec

Maximum memory used throughout the entire LEANSCF-calculation: 17.4 MB


-------------------------------------------------------------------------------
                          DFT DISPERSION CORRECTION                            
                                                                               
                                DFTD4 V3.4.0                                   
-------------------------------------------------------------------------------
-------------------------   ----------------
Dispersion correction           -0.002940232
-------------------------   ----------------

------------------   -----------------
gCP correction             0.009203693
------------------   -----------------

-------------------------   --------------------
FINAL SINGLE POINT ENERGY      -307.634544710633
-------------------------   --------------------

------------------------------------------------------------------------------
                         ORCA SCF GRADIENT CALCULATION
------------------------------------------------------------------------------

Nuc. rep. gradient        (SHARK) ... done (  0.0 sec)
HCore & Overlap gradient  (SHARK) ... done (  0.1 sec)
Split-RIJ-J gradient      (SHARK) ... done (  0.6 sec)
XC gradient                       ... done (  2.6 sec)
Dispersion correction             ... done (  0.0 sec)

-------------------
DISPERSION GRADIENT
-------------------

   1   C   :   -0.000060534   -0.000000840    0.000006726
   2   C   :   -0.000044634    0.000019947   -0.000013702
   3   C   :    0.000015073   -0.000002478   -0.000000300
   4   O   :    0.000011821   -0.000038089    0.000023162
   5   O   :    0.000046510    0.000009926   -0.000009761
   6   C   :    0.000063718   -0.000008090    0.000002587
   7   H   :   -0.000022706   -0.000006829    0.000001942
   8   H   :   -0.000023457   -0.000000135    0.000009473
   9   H   :   -0.000025018    0.000003093    0.000000095
  10   H   :   -0.000015671    0.000017518   -0.000003278
  11   H   :   -0.000016951    0.000006864   -0.000014776
  12   H   :    0.000023624   -0.000000892    0.000002541
  13   H   :    0.000024891    0.000003569   -0.000003204
  14   H   :    0.000023334   -0.000003566   -0.000001506

Difference to translation invariance:
           :   -0.0000000000    0.0000000000    0.0000000000

Difference to rotation invariance:
           :   -0.0000000000   -0.0000000000    0.0000000000

Norm of the Dispersion gradient    ...    0.0001409343
RMS gradient                       ...    0.0000217466
MAX gradient                       ...    0.0000637180
gCP correction                   ... done

------------------
CARTESIAN GRADIENT
------------------

   1   C   :   -0.000033498   -0.000020132    0.000031295
   2   C   :    0.000036124   -0.000092572   -0.000048529
   3   C   :   -0.000132631   -0.000131214    0.000449003
   4   O   :    0.000022510    0.000239057   -0.000404031
   5   O   :   -0.000027457    0.000031475    0.000008746
   6   C   :    0.000106469   -0.000056413   -0.000019023
   7   H   :    0.000029965    0.000042670    0.000078091
   8   H   :   -0.000045203    0.000060619   -0.000053437
   9   H   :    0.000021682   -0.000052203   -0.000018877
  10   H   :    0.000069595   -0.000027830   -0.000001773
  11   H   :   -0.000053772   -0.000016557   -0.000035985
  12   H   :   -0.000014703   -0.000001445    0.000024596
  13   H   :    0.000029201    0.000016791    0.000003201
  14   H   :   -0.000008282    0.000007756   -0.000013278

Difference to translation invariance:
           :    0.0000000000    0.0000000000   -0.0000000000

Difference to rotation invariance:
           :   -0.0000344197   -0.0000653432    0.0000850152

Norm of the Cartesian gradient     ...    0.0007225242
RMS gradient                       ...    0.0001114879
MAX gradient                       ...    0.0004490030

-------
TIMINGS
-------

Total SCF gradient time     ....        3.298 sec

Densities                   ....       0.000 sec  (  0.0%)
One electron gradient       ....       0.109 sec  (  3.3%)
RI-J Coulomb gradient       ....       0.575 sec  ( 17.4%)
XC gradient                 ....       2.588 sec  ( 78.5%)

Maximum memory used throughout the entire SCFGRAD-calculation: 31.6 MB

------------------------------------------------------------------------------
                              ORCA PROPERTY CALCULATIONS
------------------------------------------------------------------------------

GBWName                                 ... xtb_opt.gbw
Number of atoms                         ...     14
Number of basis functions               ...    164
Max core memory                         ...   1024 MB

Electric properties:
Dipole moment                           ... YES
Quadrupole moment                       ...  NO
Static polarizability (Dipole/Dipole)   ...  NO
Static polarizability (Dipole/Quad.)    ...  NO
Static polarizability (Quad./Quad.)     ...  NO
Static polarizability (Velocity)        ...  NO

Atomic electric properties:
Dipole moment                           ...  NO
Quadrupole moment                       ...  NO
Static polarizability                   ...  NO

Choice of electric origin               ... Center of mass
Position of electric origin             ...     0.024143     0.100528     0.283659

General magnetic properties:
Magnetizability                         ...  NO

EPR properties:
g-Tensor (aka g-matrix)                 ...  NO
Zero-Field splitting spin-orbit         ...  NO
Zero-field splitting spin-spin          ...  NO
Hyperfine couplings                     ...  NO (   0 nuclei)
Quadrupole couplings                    ...  NO (   0 nuclei)
Contact density                         ...  NO (   0 nuclei)

NMR properties:
Chemical shifts                         ...  NO (   0 nuclei)
Spin-rotation constants                 ...  NO (   0 nuclei)
Spin-spin couplings                     ...  NO (   0 nuclei,    0 pairs)

Choice of magnetic origin               ... GIAO
Position of magnetic origin             ...     0.000000     0.000000     0.000000

Properties with geometric perturbations:
SCF Hessian                             ...  NO
IR spectrum                             ...  NO
VCD spectrum                            ...  NO
X-ray spectroscopy properties:
SCF XES/XAS/RIXS spectra                ...  NO


-------------
DIPOLE MOMENT
-------------

Method             : SCF
Type of density    : Electron Density
Multiplicity       :   1
Irrep              :   0
Energy             :  -307.6408081715293861 Eh
Relativity type    : 
Basis              : AO
                                X                 Y                 Z
Electronic contribution:      2.779863360      -0.737076504       0.183851976
Nuclear contribution   :     -2.611310408       1.267403727      -0.560665983
                        -----------------------------------------
Total Dipole Moment    :      0.168552952       0.530327223      -0.376814006
                        -----------------------------------------
Magnitude (a.u.)       :      0.672046023
Magnitude (Debye)      :      1.708205236



--------------------
Rotational spectrum 
--------------------
 
Rotational constants in cm-1:             0.316169             0.071465             0.060328 
Rotational constants in MHz :          9478.501256          2142.452426          1808.587371 

Dipole components along the rotational axes: 
x,y,z [a.u.] :     0.179350     0.647660    -0.003935 
x,y,z [Debye]:     0.455872     1.646222    -0.010002 

 

Dipole moment calculation done in   0.0 sec 

Maximum memory used throughout the entire PROP-calculation: 9.9 MB

--------------------------------
SUGGESTED CITATIONS FOR THIS RUN
--------------------------------

Below you find a list of papers that are relevant to this ORCA run
We neither can nor want to force you to cite these papers, but we appreciate if you do
You receive ORCA, which is the product of decades of hard work by many enthusiastic individuals, for free
The only thing we kindly ask in return is that you cite our papers,
We deeply appreciate it, if you show your appreciation for ORCA by not just citing the generic ORCA reference.

Please note that relegating all ORCA citations to the supporting information does *not* help us.
SI sections are not indexed - citations you put there will not count into any citation statistics
But we need these citations in order to attract the funding resources that allow us to do what we are doing

Therefore, if you are a happy ORCA user, please consider citing a few of the papers listed below in the main body of your paper

In addition to the list printed below, the program has created the file xtb_opt.bibtex that contains the list in bibtex format
You can import this file easily into all common literature databanks and citation aid programs


List of essential papers. We consider these as the minimum necessary citations

  1. Neese,F.
     Software update: the ORCA program system, version 5.0
     WIRES Comput. Molec. Sci., 2022 12(1)e1606
     doi.org/10.1002/wcms.1606
  2. Grimme,S.; Hansen,A.; Ehlert,S.; Mewes,J.
     r2SCAN-3c: A 'Swiss army knife' composite electronic-structure method
     J. Chem. Phys., 2021 154 064103
     doi.org/10.1063/5.0040021

List of papers to cite with high priority. The work reported in these papers was absolutely
necessary for this run to complete.
Our perspective: the developers of density functionals and basis sets usually get cited in chemistry papers
Good! But without the algorithms to do something with them, the functionals or basis sets would not do anything.
Hence, in our opinion, the algorithm design and method developments papers are equally worthy of getting cited

  1. Neese,F.
     An improvement of the resolution of the identity approximation for the formation of the Coulomb matrix
     J. Comp. Chem., 2003 24(14)1740-1747
     doi.org/10.1002/jcc.10318
  2. Neese,F.
     The SHARK Integral Generation and Digestion System
     J. Comp. Chem., 2022  1-16
     doi.org/10.1002/jcc.26942
  3. Lehtola,S.; Steigemann,C.; Oliveira,M.; Marques,M.
     Recent developments in Libxc - A comprehensive library of functionals for density functional theory
     Software X, 2018 7 
     doi.org/10.1016/j.softx.2017.11.002
  4. Caldeweyher,E.; Bannwarth,C.; Grimme,S.
     Extension of the D3 dispersion coefficient model
     J. Chem. Phys., 2017 147 034112
     doi.org/10.1063/1.4993215
  5. Caldeweyher,E.; Ehlert,S.; Hansen,A.; Neugebauer,H.; Spicher,S.; Bannwarth,C.; Grimme,S.
     A generally applicable atomic-charge dependent London dispersion correction
     J. Chem. Phys., 2019 150 154122
     doi.org/10.1063/1.5090222
  6. Caldeweyher,E.; Mewes,J.; Ehlert,S.; Grimme,S.
     Extension and evaluation of the D4 London-dispersion model for periodic systems
     Phys. Chem. Chem. Phys., 2020 22(16)8499-8512
     doi.org/10.1039/D0CP00502A
  7. Wittmann,L.; Gordiy,I.; Friede,M.; Helmich-Paris,B.; Grimme,S.; Hansen,A.; Bursch,M.
     Extension of the D3 and D4 London Dispersion Corrections to the full Actinides Series
     Phys. Chem. Chem. Phys., 2024 26(32)21379-21394
     doi.org/https://doi.org/10.1039/D4CP01514B 

List of suggested additional citations. These are papers that are important in the 'surrounding' of 
of this run, or papers that preceded the highly important papers. If you like your results we are grateful for a citation.

  1. Neese,F.
     The ORCA program system
     WIRES Comput. Molec. Sci., 2012 2(1)73-78
     doi.org/10.1002/wcms.81
  2. Neese,F.
     Software update: the ORCA program system, version 4.0
     WIRES Comput. Molec. Sci., 2018 8(1)1-6
     doi.org/10.1002/wcms.1327
  3. Neese,F.; Wennmohs,F.; Becker,U.; Riplinger,C.
     The ORCA quantum chemistry program package
     J. Chem. Phys., 2020 152 Art. No. L224108
     doi.org/10.1063/5.0004608

List of optional additional citations

  1. Neese,F.
     Approximate second-order SCF convergence for spin unrestricted wavefunctions
     Chem. Phys. Lett., 2000 325(1-3)93-98
     doi.org/10.1016/s0009-2614(00)00662-x

Timings for individual modules:

Sum of individual times          ...        7.029 sec (=   0.117 min)
Startup calculation              ...        0.438 sec (=   0.007 min)   6.2 %
SCF iterations                   ...        3.208 sec (=   0.053 min)  45.6 %
Property calculations            ...        0.043 sec (=   0.001 min)   0.6 %
SCF Gradient evaluation          ...        3.340 sec (=   0.056 min)  47.5 %
                             ****ORCA TERMINATED NORMALLY****
TOTAL RUN TIME: 0 days 0 hours 0 minutes 7 seconds 108 msec
  ------------------------------------------------------------------------
          * successful ORCA run, taking over control again...

         :::::::::::::::::::::::::::::::::::::::::::::::::::::
         ::                  ORCA SUMMARY                   ::
         :::::::::::::::::::::::::::::::::::::::::::::::::::::
         :: total energy            -307.634544710633 Eh    ::
         :: gradient norm              0.000722524214 Eh/a0 ::
         :: HOMO-LUMO gap              0.000000000000 eV    ::
         :::::::::::::::::::::::::::::::::::::::::::::::::::::

           -------------------------------------------------
          |                Property Printout                |
           -------------------------------------------------
           -------------------------------------------------
          |                Geometry Summary                 |
           -------------------------------------------------

      molecular mass/u    :       88.1052794
   center of mass at/Å    :        0.0127875       0.0531925       0.1501084
  moments of inertia/u·Å² :        0.5331854E+02   0.2358821E+03   0.2794277E+03
rotational constants/cm⁻¹ :        0.3161683E+00   0.7146634E-01   0.6032914E-01

 * 12 selected distances

     #   Z          #   Z                                           value/Å
     1   6          2   6                                         1.5221147 (max)
     3   6          4   8                                         1.2082502
     3   6          5   8                                         1.3560885
     5   8          6   6                                         1.4429770
     1   6          7   1                                         1.0921890
     1   6          8   1                                         1.0927975
     1   6          9   1                                         1.0931415
     2   6         10   1                                         1.0957473
     2   6         11   1                                         1.0975192
     6   6         12   1                                         1.0931764
     6   6         13   1                                         1.0899527 (min)
     6   6         14   1                                         1.0932275

 * 3 distinct bonds (by element types)

   Z      Z             #   av. dist./Å        max./Å        min./Å
   1 H    6 C           8     1.0934689     1.0975192     1.0899527
   6 C    6 C           1     1.5221147     1.5221147     1.5221147
   6 C    8 O           3     1.3357719     1.4429770     1.2082502


optimized geometry written to: xtbopt.coord


           -------------------------------------------------
          | TOTAL ENERGY             -307.634544710633 Eh   |
          | GRADIENT NORM               0.000722524214 Eh/α |
           -------------------------------------------------

------------------------------------------------------------------------
 * finished run on 2025/04/08 at 22:35:20.822     
------------------------------------------------------------------------
 total:
 * wall-time:     0 d,  0 h,  0 min, 20.649 sec
 *  cpu-time:     0 d,  0 h,  0 min,  0.494 sec
 * ratio c/w:     0.024 speedup
 SCF:
 * wall-time:     0 d,  0 h,  0 min,  6.179 sec
 *  cpu-time:     0 d,  0 h,  0 min,  0.072 sec
 * ratio c/w:     0.012 speedup
 ANC optimizer:
 * wall-time:     0 d,  0 h,  0 min, 14.312 sec
 *  cpu-time:     0 d,  0 h,  0 min,  0.004 sec
 * ratio c/w:     0.000 speedup

