14
 energy: -307.634540761259 gnorm: 0.001680469927 xtb: 6.7.1 (41059b4)
C           -2.47971700154301        0.07628233303772        0.38026026456710
C           -1.23695941254696        0.67082607739344       -0.26724931703212
C            0.03140242296994       -0.02084034576829        0.17036413891390
O            0.09439702422130       -1.02810106031637        0.83627944633914
O            1.12193569326792        0.63771458313487       -0.29664378311782
C            2.38591626760440        0.03153632689419        0.04675453499165
H           -2.55910333286011       -0.99118976166820        0.16108701369923
H           -2.44328978944317        0.18600873126845        1.46744032586450
H           -3.37818580675304        0.57785485404098        0.01071658078606
H           -1.13420679127421        1.73986105285139       -0.05045240873110
H           -1.28357737587274        0.59566409004219       -1.36105665165926
H            2.50395307046096       -0.01598470010463        1.13228297944504
H            3.14669774849522        0.67411107699456       -0.39579732690216
H            2.44733395709969       -0.97979767153231       -0.36324254758930
14
 energy: -307.634544608046 gnorm: 0.000677701375 xtb: 6.7.1 (41059b4)
C           -2.47959443652156        0.07569996808140        0.37981394615013
C           -1.23715769527250        0.67107494271878       -0.26726589122771
C            0.03143886758739       -0.01937233980101        0.17173238455633
O            0.09425406057310       -1.02527307233079        0.83813028268660
O            1.12179004475350        0.63628890791560       -0.29754177794946
C            2.38581337807203        0.03121669220642        0.04642733907071
H           -2.56010917198549       -0.99074240415882        0.15824095783802
H           -2.44211742179973        0.18271646822716        1.46671279865065
H           -3.37815040031091        0.57851318296461        0.01275242875168
H           -1.13511104311417        1.74023331800870       -0.05012844129004
H           -1.28300465929198        0.59623821281228       -1.36127027495070
H            2.50379743976140       -0.01471113926287        1.13224722636680
H            3.14688685040418        0.67305303268390       -0.39720541179075
H            2.44786075157523       -0.98099041836218       -0.36190216157313
14
 energy: -307.634544608046 gnorm: 0.000677701375 xtb: 6.7.1 (41059b4)
C           -2.47959443652156        0.07569996808140        0.37981394615013
C           -1.23715769527250        0.67107494271878       -0.26726589122771
C            0.03143886758739       -0.01937233980101        0.17173238455633
O            0.09425406057310       -1.02527307233079        0.83813028268660
O            1.12179004475350        0.63628890791560       -0.29754177794946
C            2.38581337807203        0.03121669220642        0.04642733907071
H           -2.56010917198549       -0.99074240415882        0.15824095783802
H           -2.44211742179973        0.18271646822716        1.46671279865065
H           -3.37815040031091        0.57851318296461        0.01275242875168
H           -1.13511104311417        1.74023331800870       -0.05012844129004
H           -1.28300465929198        0.59623821281228       -1.36127027495070
H            2.50379743976140       -0.01471113926287        1.13224722636680
H            3.14688685040418        0.67305303268390       -0.39720541179075
H            2.44786075157523       -0.98099041836218       -0.36190216157313
