
                                 *****************
                                 * O   R   C   A *
                                 *****************

                                            #,                                       
                                            ###                                      
                                            ####                                     
                                            #####                                    
                                            ######                                   
                                           ########,                                 
                                     ,,################,,,,,                         
                               ,,#################################,,                 
                          ,,##########################################,,             
                       ,#########################################, ''#####,          
                    ,#############################################,,   '####,        
                  ,##################################################,,,,####,       
                ,###########''''           ''''###############################       
              ,#####''   ,,,,##########,,,,          '''####'''          '####       
            ,##' ,,,,###########################,,,                        '##       
           ' ,,###''''                  '''############,,,                           
         ,,##''                                '''############,,,,        ,,,,,,###''
      ,#''                                            '''#######################'''  
     '                                                          ''''####''''         
             ,#######,   #######,   ,#######,      ##                                
            ,#'     '#,  ##    ##  ,#'     '#,    #''#        ,####,   ,####,        
            ##       ##  ##   ,#'  ##            #'  '#       #'       #'  '#        
            ##       ##  #######   ##           ,######,      #####,   #    #        
            '#,     ,#'  ##    ##  '#,     ,#' ,#      #,     #,   #   #,  ,#        
             '#######'   ##     ##  '#######'  #'      '#     '####' # '####'        



                #########################################################
                #                        -***-                          #
                #          Department of theory and spectroscopy        #
                #                                                       #
                #                      Frank Neese                      #
                #                                                       #
                #     Directorship, Architecture, Infrastructure        #
                #                    SHARK, DRIVERS                     #
                #        Core code/Algorithms in most modules           #
                #                                                       #
                #        Max Planck Institute fuer Kohlenforschung      #
                #                Kaiser Wilhelm Platz 1                 #
                #                 D-45470 Muelheim/Ruhr                 #
                #                      Germany                          #
                #                                                       #
                #                  All rights reserved                  #
                #                        -***-                          #
                #########################################################


                         Program Version 6.0.1  -  RELEASE   -


 With contributions from (in alphabetic order):
[Max-Planck-Institut fuer Kohlenforschung]                               
  Daniel Aravena         : Magnetic Suceptibility                        
  Michael Atanasov       : Ab Initio Ligand Field Theory (pilot matlab implementation)
  Alexander A. Auer      : GIAO ZORA, VPT2 properties, NMR spectrum      
  Ute Becker             : All parallelization in ORCA, NUMFREQ, NUMCALC 
  Giovanni Bistoni       : ED, misc. LED, open-shell LED, HFLD           
  Martin Brehm           : Molecular dynamics                            
  Dmytro Bykov           : pre 5.0 version of the SCF Hessian            
  Marcos Casanova-Páez   : Triplet and SCS-CIS(D). UHF-(DLPNO)-IP/EA/STEOM-CCSD. UHF-CVS-IP/STEOM-CCSD   
  Vijay G. Chilkuri      : MRCI spin determinant printing, contributions to CSF-ICE 
  Pauline Colinet        : FMM embedding                                 
  Dipayan Datta          : RHF DLPNO-CCSD density                        
  Achintya Kumar Dutta   : EOM-CC, STEOM-CC                              
  Nicolas Foglia         : Exact transition moments, OPA infrastructure, MCD improvements    
  Dmitry Ganyushin       : Spin-Orbit,Spin-Spin,Magnetic field MRCI      
  Miquel Garcia-Rates    : C-PCM and meta-GGA Hessian, CCSD/C-PCM, Gaussian charge scheme 
  Tiago L. C. Gouveia    : GS-ROHF, GS-ROCIS                             
  Yang Guo               : DLPNO-NEVPT2, F12-NEVPT2, CIM, IAO-localization        
  Andreas Hansen         : Spin unrestricted coupled pair/coupled cluster methods 
  Ingolf Harden          : AUTO-CI MPn and infrastructure                
  Benjamin Helmich-Paris : MC-RPA, TRAH-(SCF,CASSCF), AVAS, COSX integrals, SCF dyn. polar. 
  Lee Huntington         : MR-EOM, pCC                                   
  Robert Izsak           : Overlap fitted RIJCOSX, COSX-SCS-MP3, EOM     
  Riya Kayal             : Wick's Theorem for AUTO-CI, AUTO-CI UHF-CCSDT 
  Emily Kempfer          : AUTO-CI, RHF CISDT and CCSDT                  
  Christian Kollmar      : KDIIS, OOCD, Brueckner-CCSD(T), CCSD density, CASPT2, CASPT2-K, improved NEVPT2 
  Axel Koslowski         : Symmetry handling                             
  Simone Kossmann        : meta-GGA functionals, TD-DFT gradient, OOMP2, (MP2 Hessian; deprecated post 5.0) 
  Lucas Lang             : DCDCAS                                        
  Marvin Lechner         : AUTO-CI (C++ implementation), FIC-MRCC        
  Spencer Leger          : CASSCF response                               
  Dagmar Lenk            : GEPOL surface, SMD, ORCA-2-JSON               
  Dimitrios Liakos       : Extrapolation schemes; Compound Job, initial MDCI parallelization 
  Dimitrios Manganas     : Further ROCIS development; embedding schemes. LFT, Crystal Embedding 
  Dimitrios Pantazis     : SARC Basis sets                               
  Anastasios Papadopoulos: AUTO-CI, single reference methods and gradients 
  Taras Petrenko         : pre 6.0 DFT Hessian and TD-DFT gradient, (ASA, deprecated), ECA, 1-Electron XAS/XES, NRVS 
  Peter Pinski           : DLPNO-MP2, DLPNO-MP2 Gradient                 
  Christoph Reimann      : Effective Core Potentials                     
  Marius Retegan         : Local ZFS, SOC                                
  Christoph Riplinger    : Optimizer, TS searches, QM/MM, DLPNO-CCSD(T), (RO)-DLPNO pert. Triples 
  Michael Roemelt        : Original ROCIS implementation                 
  Masaaki Saitow         : Open-shell DLPNO-CCSD energy and density      
  Barbara Sandhoefer     : DKH picture change effects                    
  Kantharuban Sivalingam : CASSCF convergence/infrastructure, NEVPT2 and variants, FIC-MRCI 
  Bernardo de Souza      : ESD, SOC TD-DFT                               
  Georgi L. Stoychev     : AutoAux, RI-MP2 NMR, DLPNO-MP2 response, X2C  
  Van Anh Tran           : RI-MP2 g-tensors                              
  Willem Van den Heuvel  : Paramagnetic NMR                              
  Zikuan Wang            : NOTCH, Electric field optimization            
  Frank Wennmohs         : Technical directorship and infrastructure     
  Hang Xu                : AUTO-CI-Response properties                   
                                                                         
[FACCTs GmbH]                                                            
  Markus Bursch, Miquel Garcia-Rates, Christoph Riplinger, Bernardo de Souza, Georgi L. Stoychev 
                                                                 
  APM, Basis sets (HGBS, AHGBS, def-TZVP (Ac-Lr), def2-XVPD (La-Lu)), CI-OPT, improved COSX, DLPNO-Multilevel,           
  DOCKER, DRACO, updates on ESD, GOAT, IRC, LR-CPCM, MBIS, meta-GGA TD-DFT gradient, ML-optimized integration grids, 
  MM, NACMEs, nearIR, NEB, NEB-TS, NL-DFT gradient (VV10), 2- and 3-layer-ONIOM, interface openCOSMO-RS, QMMM,   
  Crystal-QMMM, SF, symmetry and pop. for TD-DFT, r2SCAN hybrids, SOLVATOR                                   
                                                                         
[Other institutions]                                                     
  V. Asgeirsson          : NEB                                           
  Christoph Bannwarth    : sTDA-DFT, sTD-DFT, PBEh-3c, B97-3c, D3        
  Sebastian Ehlert       : rSCAN, r2SCAN, r2SCAN-3c, D4, dhf basis sets  
  Marvin Friede          : D4 for Fr, Ra, Ac-Lr                          
  Lars Goerigk           : TD-DFT with DH, B97 family of functionals     
  Stefan Grimme          : VdW corrections, initial TS optimization, DFT functionals, gCP, sTDA/sTD-DF 
  Waldemar Hujo          : DFT-NL                                        
  H. Jonsson             : NEB                                           
  Holger Kruse           : gCP                                           
  Marcel Mueller         : wB97X-3c, vDZP basis set                      
  Hagen Neugebauer       : wr2SCAN                                       
  Tobias Risthaus        : range-separated hybrid DFT                    
  Lukas Wittmann         : regularized MP2, r2SCAN double-hybrids, wr2SCAN        
                                                                         
We gratefully acknowledge several colleagues who have allowed us to      
interface, adapt or use parts of their codes:                            
  Ed Valeev, F. Pavosevic, A. Kumar             : LibInt (2-el integral package), F12 methods 
  Garnet Chan, S. Sharma, J. Yang, R. Olivares  : DMRG                   
  Ulf Ekstrom                                   : XCFun DFT Library      
  Mihaly Kallay                                 : mrcc  (arbitrary order and MRCC methods)
  Frank Weinhold                                : gennbo (NPA and NBO analysis)           
  Simon Mueller                                 : openCOSMO-RS                            
  Christopher J. Cramer and Donald G. Truhlar   : smd solvation model                     
  S Lehtola, MJT Oliveira, MAL Marques          : LibXC Library                           
  Liviu Ungur et al                             : ANISO software                          


 Your calculation uses the libint2 library for the computation of 2-el integrals
 For citations please refer to: http://libint.valeyev.net

 Your ORCA version has been built with support for libXC version: 6.2.2
 For citations please refer to: https://libxc.gitlab.io

 This ORCA versions uses:
   CBLAS   interface :  Fast vector & matrix operations
   LAPACKE interface :  Fast linear algebra routines
   SCALAPACK package :  Parallel linear algebra routines
   Shared memory     :  Shared parallel matrices
   BLAS/LAPACK       :  OpenBLAS 0.3.27  USE64BITINT DYNAMIC_ARCH NO_AFFINITY Zen SINGLE_THREADED
        Core in use  :  Zen
   Copyright (c) 2011-2014, The OpenBLAS Project


Your calculation utilizes the geometrical counterpoise correction gCP
Please cite in your paper:
H.Kruse, S. Grimme J.Chem.Phys., 136, (2012), 154101 
   

Your calculation utilizes the DFT-NL dispersion correction.
Cite in your paper:
Vydrov, O. A.; Van Voorhis, T. J. Chem. Phys. 2010, 133, 244103
Hujo, W.; Grimme, S. J. Chem. Theory Comput. 2011, 7, 3866 
   

================================================================================

----- Orbital basis set information -----
Your calculation utilizes the basis: def2-TZVP
   F. Weigend and R. Ahlrichs, Phys. Chem. Chem. Phys. 7, 3297 (2005).

----- AuxJ basis set information -----
Your calculation utilizes the auxiliary basis: def2/J
   F. Weigend, Phys. Chem. Chem. Phys. 8, 1057 (2006).

================================================================================
                                        WARNINGS
                       Please study these warnings very carefully!
================================================================================

WARNING: Old DensityContainer found on disk!
         Will remove this file - 
         If you want to keep old densities, please start your calculation with a different basename. 


================================================================================
                                       INPUT FILE
================================================================================
NAME = sp.inp
|  1> ! wb97x-v def2-tzvp def2/J RIJCOSX DEFGRID2 scfconv7 GCP(DFT/TZ) printgap
|  2> %output
|  3>     printlevel normal
|  4> end
|  5> * xyz 0 1
|  6> C -1.3073223961837863 0.2730110738428183 0.09742905228899465
|  7> C -0.012765400971082854 -0.5130470168970293 -0.05441121820124015
|  8> N 1.1413129236455282 0.39941943132354935 0.008916026095208899
|  9> H -2.1736869274510267 -0.39548800968358544 0.09526212074539442
| 10> H -1.3021979947785487 0.8397260831166367 1.0330428411841235
| 11> H -1.4329231553719446 0.9836420877597651 -0.7274817921077522
| 12> H -0.05389709388815503 -1.1092292386304041 -0.9832533891923195
| 13> H 0.07867645005575594 -1.2258115347811678 0.7747050363017541
| 14> H 1.1014557180623636 1.0443591561397887 -0.7744701742326369
| 15> H 2.003055932886399 -0.12346158914534021 -0.10507877404140348
| 16> *
| 17> 
| 18>                          ****END OF INPUT****
================================================================================

                       ****************************
                       * Single Point Calculation *
                       ****************************

---------------------------------
CARTESIAN COORDINATES (ANGSTROEM)
---------------------------------
  C     -1.307322    0.273011    0.097429
  C     -0.012765   -0.513047   -0.054411
  N      1.141313    0.399419    0.008916
  H     -2.173687   -0.395488    0.095262
  H     -1.302198    0.839726    1.033043
  H     -1.432923    0.983642   -0.727482
  H     -0.053897   -1.109229   -0.983253
  H      0.078676   -1.225812    0.774705
  H      1.101456    1.044359   -0.774470
  H      2.003056   -0.123462   -0.105079

----------------------------
CARTESIAN COORDINATES (A.U.)
----------------------------
  NO LB      ZA    FRAG     MASS         X           Y           Z
   0 C     6.0000    0    12.011   -2.470481    0.515916    0.184114
   1 C     6.0000    0    12.011   -0.024123   -0.969518   -0.102822
   2 N     7.0000    0    14.007    2.156769    0.754793    0.016849
   3 H     1.0000    0     1.008   -4.107673   -0.747364    0.180019
   4 H     1.0000    0     1.008   -2.460798    1.586852    1.952168
   5 H     1.0000    0     1.008   -2.707832    1.858814   -1.374741
   6 H     1.0000    0     1.008   -0.101851   -2.096139   -1.858080
   7 H     1.0000    0     1.008    0.148677   -2.316448    1.463980
   8 H     1.0000    0     1.008    2.081450    1.973553   -1.463537
   9 H     1.0000    0     1.008    3.785227   -0.233309   -0.198570

--------------------------------
INTERNAL COORDINATES (ANGSTROEM)
--------------------------------
 C      0   0   0     0.000000000000     0.00000000     0.00000000
 C      1   0   0     1.522110575357     0.00000000     0.00000000
 N      2   1   0     1.472583491130   110.01460905     0.00000000
 H      1   2   3     1.094295765004   110.95720712   182.41042524
 H      1   2   3     1.093876283314   110.41939570   303.10059169
 H      1   2   3     1.096015460590   110.92975748    62.74938216
 H      2   1   3     1.104478535909   109.32823135   234.64077121
 H      2   1   3     1.097191247484   109.32847952   118.12791422
 H      3   2   1     1.015494847031   109.24424251   296.60051510
 H      3   2   1     1.014396564466   109.97079644   180.77267787

---------------------------
INTERNAL COORDINATES (A.U.)
---------------------------
 C      0   0   0     0.000000000000     0.00000000     0.00000000
 C      1   0   0     2.876372132970     0.00000000     0.00000000
 N      2   1   0     2.782779507569   110.01460905     0.00000000
 H      1   2   3     2.067919305368   110.95720712   182.41042524
 H      1   2   3     2.067126599855   110.41939570   303.10059169
 H      1   2   3     2.071169059059   110.92975748    62.74938216
 H      2   1   3     2.087161953663   109.32823135   234.64077121
 H      2   1   3     2.073390974280   109.32847952   118.12791422
 H      3   2   1     1.919007151297   109.24424251   296.60051510
 H      3   2   1     1.916931698031   109.97079644   180.77267787

---------------------
BASIS SET INFORMATION
---------------------
There are 3 groups of distinct atoms

 Group   1 Type C   : 11s6p2d1f contracted to 5s3p2d1f pattern {62111/411/11/1}
 Group   2 Type N   : 11s6p2d1f contracted to 5s3p2d1f pattern {62111/411/11/1}
 Group   3 Type H   : 5s1p contracted to 3s1p pattern {311/1}

Atom   0C    basis set group =>   1
Atom   1C    basis set group =>   1
Atom   2N    basis set group =>   2
Atom   3H    basis set group =>   3
Atom   4H    basis set group =>   3
Atom   5H    basis set group =>   3
Atom   6H    basis set group =>   3
Atom   7H    basis set group =>   3
Atom   8H    basis set group =>   3
Atom   9H    basis set group =>   3
---------------------------------
AUXILIARY/J BASIS SET INFORMATION
---------------------------------
There are 3 groups of distinct atoms

 Group   1 Type C   : 12s5p4d2f1g contracted to 6s4p3d1f1g pattern {711111/2111/211/2/1}
 Group   2 Type N   : 12s5p4d2f1g contracted to 6s4p3d1f1g pattern {711111/2111/211/2/1}
 Group   3 Type H   : 5s2p1d contracted to 3s1p1d pattern {311/2/1}

Atom   0C    basis set group =>   1
Atom   1C    basis set group =>   1
Atom   2N    basis set group =>   2
Atom   3H    basis set group =>   3
Atom   4H    basis set group =>   3
Atom   5H    basis set group =>   3
Atom   6H    basis set group =>   3
Atom   7H    basis set group =>   3
Atom   8H    basis set group =>   3
Atom   9H    basis set group =>   3

Checking for AutoStart:
The File: sp.gbw exists
Trying to determine its content:
     ... Fine, the file contains calculation information
     ... Fine, the calculation information was read
     ... Fine, the file contains a basis set
     ... Fine, the basis set was read
     ... Fine, the file contains a geometry
     ... Fine, the geometry was read
     ... Fine, the file contains a set of orbitals
     ... Fine, the orbitals can be read
     => possible old guess file was deleted
     => GBW file was renamed to GES file
     => GES file is set as startup file
     => Guess is set to MORead
     ... now leaving AutoStart

------------------------------------------------------------------------------
                             ORCA STARTUP CALCULATIONS
                           -- RI-GTO INTEGRALS CHOSEN --
------------------------------------------------------------------------------
------------------------------------------------------------------------------
                   ___                                                        
                  /   \      - P O W E R E D   B Y -                         
                 /     \                                                     
                 |  |  |   _    _      __       _____    __    __             
                 |  |  |  | |  | |    /  \     |  _  \  |  |  /  |          
                  \  \/   | |  | |   /    \    | | | |  |  | /  /          
                 / \  \   | |__| |  /  /\  \   | |_| |  |  |/  /          
                |  |  |   |  __  | /  /__\  \  |    /   |      \           
                |  |  |   | |  | | |   __   |  |    \   |  |\   \          
                \     /   | |  | | |  |  |  |  | |\  \  |  | \   \       
                 \___/    |_|  |_| |__|  |__|  |_| \__\ |__|  \__/        
                                                                              
                      - O R C A' S   B I G   F R I E N D -                    
                                      &                                       
                       - I N T E G R A L  F E E D E R -                       
                                                                              
 v1 FN, 2020, v2 2021, v3 2022-2024                                           
------------------------------------------------------------------------------


----------------------
SHARK INTEGRAL PACKAGE
----------------------

Number of atoms                             ...     10
Number of basis functions                   ...    135
Number of shells                            ...     61
Maximum angular momentum                    ...      3
Integral batch strategy                     ... SHARK/LIBINT Hybrid
RI-J (if used) integral strategy            ... SPLIT-RIJ (Revised 2003 algorithm where possible)
Printlevel                                  ...      1
Contraction scheme used                     ... SEGMENTED contraction
Prescreening option                         ... SCHWARTZ
   Thresh                                   ... 3.000e-11
   Tcut                                     ... 1.000e-12
   Tpresel                                  ... 1.000e-12 
Coulomb Range Separation                    ... NOT USED
Exchange Range Separation                   ... Long Range
   Mu parameter                             ... 3.000e-01
   Scaling (regular/separated)              ... 1.670e-01 8.330e-01
Multipole approximations                    ... NOT USED
Finite Nucleus Model                        ... NOT USED
CABS basis                                  ... NOT available
Auxiliary Coulomb fitting basis             ... AVAILABLE
   # of basis functions in Aux-J            ...    224
   # of shells in Aux-J                     ...     80
   Maximum angular momentum in Aux-J        ...      4
Auxiliary J/K fitting basis                 ... NOT available
Auxiliary Correlation fitting basis         ... NOT available
Auxiliary 'external' fitting basis          ... NOT available

Checking pre-screening integrals            ... done (  0.0 sec) Dimension = 61
Check shell pair data                       ... done (  0.0 sec)
Shell pair information
Shell pair cut-off parameter TPreSel        ...   1.0e-12
Total number of shell pairs                 ...      1891
Shell pairs after pre-screening             ...      1870
Total number of primitive shell pairs       ...      5340
Primitive shell pairs kept                  ...      4500
          la=0 lb=0:    650 shell pairs
          la=1 lb=0:    572 shell pairs
          la=1 lb=1:    136 shell pairs
          la=2 lb=0:    215 shell pairs
          la=2 lb=1:     96 shell pairs
          la=2 lb=2:     21 shell pairs
          la=3 lb=0:    108 shell pairs
          la=3 lb=1:     48 shell pairs
          la=3 lb=2:     18 shell pairs
          la=3 lb=3:      6 shell pairs

Calculating one electron integrals          ... done (  0.0 sec)
Calculating RI/J V-Matrix + Cholesky decomp.... done (  0.0 sec)
Calculating Nuclear repulsion               ... done (  0.0 sec) ENN=     82.810228040609 Eh

Diagonalization of the overlap matrix:
Smallest eigenvalue                        ... 4.590e-04
Time for diagonalization                   ...    0.001 sec
Threshold for overlap eigenvalues          ... 1.000e-07
Number of eigenvalues below threshold      ... 0
Time for construction of square roots      ...    0.000 sec
Total time needed                          ...    0.003 sec

-------------------
DFT GRID GENERATION
-------------------

General Integration Accuracy     IntAcc      ... 4.388
Radial Grid Type                 RadialGrid  ... OptM3 with GC (2021)
Angular Grid (max. ang.)         AngularGrid ... 4 (Lebedev-302)
Angular grid pruning method      GridPruning ... 4 (adaptive)
Weight generation scheme         WeightScheme... mBecke (2022)
Basis function cutoff            BFCut       ... 1.0000e-11
Integration weight cutoff        WCut        ... 1.0000e-14
Partially contracted basis set               ... off
Rotationally invariant grid construction     ... off
Angular grids for H and He will be reduced by one unit

Total number of grid points                  ...    40920
Total number of batches                      ...      644
Average number of points per batch           ...       63
Average number of grid points per atom       ...     4092

--------------------
COSX GRID GENERATION
--------------------

GRIDX 1
-------
General Integration Accuracy     IntAcc      ... 3.816
Radial Grid Type                 RadialGrid  ... OptM3 with GC (2021)
Angular Grid (max. ang.)         AngularGrid ... 1 (Lebedev-50)
Angular grid pruning method      GridPruning ... 4 (adaptive)
Weight generation scheme         WeightScheme... mBecke (2022)
Basis function cutoff            BFCut       ... 1.0000e-11
Integration weight cutoff        WCut        ... 1.0000e-14
Partially contracted basis set               ... on
Rotationally invariant grid construction     ... off
Angular grids for H and He will be reduced by one unit

Total number of grid points                  ...     5280
Total number of batches                      ...       48
Average number of points per batch           ...      110
Average number of grid points per atom       ...      528
UseSFitting                                  ... on

GRIDX 2
-------
General Integration Accuracy     IntAcc      ... 4.020
Radial Grid Type                 RadialGrid  ... OptM3 with GC (2021)
Angular Grid (max. ang.)         AngularGrid ... 2 (Lebedev-110)
Angular grid pruning method      GridPruning ... 4 (adaptive)
Weight generation scheme         WeightScheme... mBecke (2022)
Basis function cutoff            BFCut       ... 1.0000e-11
Integration weight cutoff        WCut        ... 1.0000e-14
Partially contracted basis set               ... on
Rotationally invariant grid construction     ... off
Angular grids for H and He will be reduced by one unit

Total number of grid points                  ...    10945
Total number of batches                      ...       89
Average number of points per batch           ...      122
Average number of grid points per atom       ...     1094
UseSFitting                                  ... on

GRIDX 3
-------
General Integration Accuracy     IntAcc      ... 4.338
Radial Grid Type                 RadialGrid  ... OptM3 with GC (2021)
Angular Grid (max. ang.)         AngularGrid ... 3 (Lebedev-194)
Angular grid pruning method      GridPruning ... 4 (adaptive)
Weight generation scheme         WeightScheme... mBecke (2022)
Basis function cutoff            BFCut       ... 1.0000e-11
Integration weight cutoff        WCut        ... 1.0000e-14
Partially contracted basis set               ... on
Rotationally invariant grid construction     ... off
Angular grids for H and He will be reduced by one unit

Total number of grid points                  ...    24040
Total number of batches                      ...      192
Average number of points per batch           ...      125
Average number of grid points per atom       ...     2404
UseSFitting                                  ... on
Initializing property integral containers    ... done (  0.0 sec)

SHARK setup successfully completed in   0.4 seconds

Maximum memory used throughout the entire STARTUP-calculation: 19.7 MB
-------------------------------------------------------------------------------
                                 ORCA GUESS
                   Start orbitals & Density for SCF / CASSCF
-------------------------------------------------------------------------------

------------
SCF SETTINGS
------------
Hamiltonian:
 Density Functional     Method          .... DFT(GTOs)
 Exchange Functional    Exchange        .... WB97X-V
 Correlation Functional Correlation     .... WB97X-V
 Gradients option       PostSCFGGA      .... off
 Hybrid DFT is turned on
   Fraction HF Exchange ScalHFX         ....  0.167000
   Scaling of DF-GGA-X  ScalDFX         ....  0.000000
   Scaling of DF-GGA-C  ScalDFC         ....  1.000000
   Scaling of DF-LDA-C  ScalLDAC        ....  1.000000
   Perturbative correction              ....  0.000000
 Long-range corrected/Screened/Range-Separated Hybrid DFT is turned on
   Amount of maximum screened exact exchange              ....  0.833000
   Range separation parameter mu (erf(mu*r12)/r12)        ....  0.300000
   NL short-range parameter             ....  6.000000
   NL long-range parameter              ....  0.010000
 RI-approximation to the Coulomb term is turned on
   Number of AuxJ basis functions       .... 224
   RIJ-COSX (HFX calculated with COS-X)).... on


General Settings:
 Integral files         IntName         .... sp
 Hartree-Fock type      HFTyp           .... RHF
 Total Charge           Charge          ....    0
 Multiplicity           Mult            ....    1
 Number of Electrons    NEL             ....   26
 Basis Dimension        Dim             ....  135
 Nuclear Repulsion      ENuc            ....     82.8102280406 Eh

Convergence Acceleration:
 AO-DIIS                CNVDIIS         .... on
   Start iteration      DIISMaxIt       ....    12
   Startup error        DIISStart       ....  0.200000
   # of expansion vecs  DIISMaxEq       ....     5
   Bias factor          DIISBfac        ....   1.050
   Max. coefficient     DIISMaxC        ....  10.000
 MO-DIIS                CNVKDIIS        .... off
 Trust-Rad. Augm. Hess. CNVTRAH         .... auto
   Auto Start mean grad. ratio tolernc. ....  1.125000
   Auto Start start iteration           ....     1
   Auto Start num. interpolation iter.  ....    10
   Max. Number of Micro iterations      ....    24
   Max. Number of Macro iterations      .... Maxiter - #DIIS iter
   Number of Davidson start vectors     ....     2
   Converg. threshold    (grad. norm)   ....   1.000e-04
   Grad. Scal. Fac. for Micro threshold ....   0.100
   Minimum threshold for Micro iter.    ....   1.000e-02
   NR start threshold (gradient norm)   ....   1.000e-04
   Initial trust radius                 ....   0.400
   Minimum AH scaling param. (alpha)    ....   1.000
   Maximum AH scaling param. (alpha)    .... 1000.000
   Quad. conv. algorithm                .... NR
   White noise on init. David. guess    .... on
   Maximum white noise                  ....   0.010
   Pseudo random numbers                .... off
   Inactive MOs                         .... canonical
   Orbital update algorithm             .... Taylor
   Preconditioner                       .... Diag
   Full preconditioner red. dimension   ....   250
 SOSCF                  CNVSOSCF        .... on
   Start iteration      SOSCFMaxIt      ....   150
   Startup grad/error   SOSCFStart      ....  0.003300
   Hessian update       SOSCFHessUp     .... L-BFGS
 Level Shifting         CNVShift        .... on
   Level shift para.    LevelShift      ....    0.2500
   Turn off err/grad.   ShiftErr        ....    0.0010
 Zerner damping         CNVZerner       .... off
 Static damping         CNVDamp         .... on
   Fraction old density DampFac         ....    0.7000
   Max. Damping (<1)    DampMax         ....    0.9800
   Min. Damping (>=0)   DampMin         ....    0.0000
   Turn off err/grad.   DampErr         ....    0.1000

SCF Procedure:
 Maximum # iterations   MaxIter         ....   125
 SCF integral mode      SCFMode         .... Direct
   Integral package                     .... SHARK and LIBINT hybrid scheme
 Reset frequency        DirectResetFreq ....    20
 Integral Threshold     Thresh          ....  3.000e-11 Eh
 Primitive CutOff       TCut            ....  1.000e-12 Eh

Convergence Tolerance:
 Convergence Check Mode ConvCheckMode   .... Total+1el-Energy
 Convergence forced     ConvForced      .... 0
 Energy Change          TolE            ....  1.000e-07 Eh
 1-El. energy change                    ....  1.000e-04 Eh
 Orbital Gradient       TolG            ....  1.000e-04
 Orbital Rotation angle TolX            ....  1.000e-04
 DIIS Error             TolErr          ....  1.000e-07

---------------------
INITIAL GUESS: MOREAD
---------------------
Guess MOs are being read from file: sp.ges
Input Geometry matches current geometry (good)
Atom 0: N(Shells)= 11 and 9 - projection required
Input basis set needs projection
NBasis(read)= 97
NBasis(calc)= 135
Basis set overlap was calculated
Using GuessMode=FMatrix for the initial guess
C*T matrix was formed
Effective Fockian was calculated
Effective Fockian was diagonalized
Initial density was built
                      ------------------
                      INITIAL GUESS DONE (   0.0 sec)
                      ------------------
             **** ENERGY FILE WAS UPDATED (sp.en.tmp) ****
Finished Guess after   0.0 sec
Maximum memory used throughout the entire GUESS-calculation: 11.3 MB

-------------------------------------------------------------------------------------------
                                      ORCA LEAN-SCF
                              memory conserving SCF solver
-------------------------------------------------------------------------------------------

----------------------------------------D-I-I-S--------------------------------------------
Iteration    Energy (Eh)           Delta-E    RMSDP     MaxDP     DIISErr   Damp  Time(sec)
-------------------------------------------------------------------------------------------
               ***  Starting incremental Fock matrix formation  ***
    1    -135.2779829116979613     0.00e+00  1.09e-03  1.74e-02  4.05e-02  0.700   1.7
    2    -135.2798662782313386    -1.88e-03  9.64e-04  1.48e-02  2.84e-02  0.700   0.9
                               ***Turning on AO-DIIS***
    3    -135.2812995841322845    -1.43e-03  8.22e-04  1.23e-02  1.98e-02  0.700   0.9
    4    -135.2823595054474595    -1.06e-03  2.08e-03  3.24e-02  1.38e-02  0.000   0.9
                              *** Initializing SOSCF ***
---------------------------------------S-O-S-C-F--------------------------------------
Iteration    Energy (Eh)           Delta-E    RMSDP     MaxDP     MaxGrad    Time(sec)
--------------------------------------------------------------------------------------
    5    -135.2850772858972732    -2.72e-03  1.14e-04  2.31e-03  7.29e-04     0.9
               *** Restarting incremental Fock matrix formation ***
    6    -135.2850751349945426     2.15e-06  5.32e-05  9.99e-04  1.94e-04     1.7
    7    -135.2850763210117293    -1.19e-06  3.32e-05  5.81e-04  8.81e-05     1.4
    8    -135.2850764928786020    -1.72e-07  9.05e-06  1.71e-04  4.78e-05     1.4
    9    -135.2850765498989745    -5.70e-08  2.13e-06  4.01e-05  6.82e-06     1.3
                 **** Energy Check signals convergence ****

               *****************************************************
               *                     SUCCESS                       *
               *           SCF CONVERGED AFTER   9 CYCLES          *
               *****************************************************


------------------
NL GRID GENERATION
------------------

General Integration Accuracy     IntAcc      ... 4.004
Radial Grid Type                 RadialGrid  ... OptM3 with GC (2021)
Angular Grid (max. ang.)         AngularGrid ... 2 (Lebedev-110)
Angular grid pruning method      GridPruning ... 4 (adaptive)
Weight generation scheme         WeightScheme... mBecke (2022)
Basis function cutoff            BFCut       ... 1.0000e-10
Integration weight cutoff        WCut        ... 1.0000e-14
Partially contracted basis set               ... off
Rotationally invariant grid construction     ... off
Angular grids for H and He will be reduced by one unit

Total number of grid points                  ...    11994
Total number of batches                      ...      192
Average number of points per batch           ...       62
Average number of grid points per atom       ...     1199
Final grid set up in    0.0 sec

-------------------------------------------------------------------------------
                    post-SCF DFT-NL dispersion correction                      
-------------------------------------------------------------------------------

SCF Energy:     -135.285076550 
NL    Energy:      0.102612017 
SC+NL Energy:   -135.182464533 
NL done in  :              0.4 sec
-------------------------------------------------------------------------------
Recomputing exchange energy using gridx3       ... done (    2.992 sec)
Old exchange energy                            :     -6.625747622 Eh
New exchange energy                            :     -6.625746838 Eh
Exchange energy change after final integration :      0.000000785 Eh
Total energy after final integration           :   -135.182463748 Eh
             **** ENERGY FILE WAS UPDATED (sp.en.tmp) ****

----------------
TOTAL SCF ENERGY
----------------

Total Energy       :       -135.18246374803812 Eh           -3678.50185 eV

Components:
Nuclear Repulsion  :         82.81022804060915 Eh            2253.38086 eV
Electronic Energy  :       -218.09530459050814 Eh           -5934.67495 eV
One Electron Energy:       -345.00888316763235 Eh           -9388.16900 eV
Two Electron Energy:        126.91357857712421 Eh            3453.49405 eV

Virial components:
Potential Energy   :       -269.75546718622775 Eh           -7340.41944 eV
Kinetic Energy     :        134.57300343818960 Eh            3661.91759 eV
Virial Ratio       :          2.00452884526820

DFT components:
N(Alpha)           :       12.999988814952 electrons
N(Beta)            :       12.999988814952 electrons
N(Total)           :       25.999977629905 electrons
E(X)               :      -12.813002449436 Eh       
E(C)               :       -1.029130505303 Eh       
NL Energy, E(C,NL) :        0.102612017312 Eh       
E(XC)              :      -13.739520937427 Eh       

---------------
SCF CONVERGENCE
---------------

  Last Energy change         ...    5.7020e-08  Tolerance :   1.0000e-07
  Last MAX-Density change    ...    4.0095e-05  Tolerance :   1.0000e-05
  Last RMS-Density change    ...    2.1321e-06  Tolerance :   1.0000e-06
  Last DIIS Error            ...    7.2922e-04  Tolerance :   1.0000e-07
  Last Orbital Gradient      ...    6.8205e-06  Tolerance :   1.0000e-04
  Last Orbital Rotation      ...    1.4116e-05  Tolerance :   1.0000e-04


----------------
ORBITAL ENERGIES
----------------

  NO   OCC          E(Eh)            E(eV) 
   0   2.0000     -14.386526      -391.4773 
   1   2.0000     -10.291190      -280.0375 
   2   2.0000     -10.256240      -279.0865 
   3   2.0000      -1.011613       -27.5274 
   4   2.0000      -0.861321       -23.4377 
   5   2.0000      -0.727020       -19.7832 
   6   2.0000      -0.600549       -16.3418 
   7   2.0000      -0.576749       -15.6941 
   8   2.0000      -0.533377       -14.5139 
   9   2.0000      -0.473289       -12.8789 
  10   2.0000      -0.467833       -12.7304 
  11   2.0000      -0.450090       -12.2476 
  12   2.0000      -0.347586        -9.4583 
  13   0.0000       0.108296         2.9469 
  14   0.0000       0.145157         3.9499 
  15   0.0000       0.156092         4.2475 
  16   0.0000       0.178607         4.8601 
  17   0.0000       0.192491         5.2379 
  18   0.0000       0.209688         5.7059 
  19   0.0000       0.220527         6.0009 
  20   0.0000       0.247851         6.7444 
  21   0.0000       0.276622         7.5273 
  22   0.0000       0.297371         8.0919 
  23   0.0000       0.320883         8.7317 
*Only the first 10 virtual orbitals were printed.

                    ********************************
                    * MULLIKEN POPULATION ANALYSIS *
                    ********************************

-----------------------
MULLIKEN ATOMIC CHARGES
-----------------------
   0 C :   -0.329802
   1 C :   -0.057824
   2 N :   -0.505259
   3 H :    0.104391
   4 H :    0.116594
   5 H :    0.095548
   6 H :    0.076777
   7 H :    0.089682
   8 H :    0.204433
   9 H :    0.205460
Sum of atomic charges:   -0.0000000

--------------------------------
MULLIKEN REDUCED ORBITAL CHARGES
--------------------------------
  0 C s       :     3.222973  s :     3.222973
      pz      :     1.054850  p :     3.045173
      px      :     0.971668
      py      :     1.018655
      dz2     :     0.007384  d :     0.058194
      dxz     :     0.007764
      dyz     :     0.019148
      dx2y2   :     0.010341
      dxy     :     0.013558
      f0      :     0.000352  f :     0.003462
      f+1     :     0.000118
      f-1     :     0.000931
      f+2     :     0.000073
      f-2     :     0.000461
      f+3     :     0.000794
      f-3     :     0.000733

  1 C s       :     3.182846  s :     3.182846
      pz      :     1.007654  p :     2.749245
      px      :     0.825519
      py      :     0.916072
      dz2     :     0.008667  d :     0.117884
      dxz     :     0.020345
      dyz     :     0.033164
      dx2y2   :     0.030723
      dxy     :     0.024983
      f0      :     0.000989  f :     0.007850
      f+1     :     0.000426
      f-1     :     0.001111
      f+2     :     0.000101
      f-2     :     0.001595
      f+3     :     0.002285
      f-3     :     0.001344

  2 N s       :     3.533834  s :     3.533834
      pz      :     1.581548  p :     3.928051
      px      :     1.093478
      py      :     1.253025
      dz2     :     0.007424  d :     0.041103
      dxz     :     0.005315
      dyz     :     0.009836
      dx2y2   :     0.006887
      dxy     :     0.011641
      f0      :     0.000148  f :     0.002270
      f+1     :     0.000297
      f-1     :     0.000636
      f+2     :     0.000170
      f-2     :     0.000186
      f+3     :     0.000290
      f-3     :     0.000544

  3 H s       :     0.874726  s :     0.874726
      pz      :     0.004204  p :     0.020883
      px      :     0.009764
      py      :     0.006914

  4 H s       :     0.862511  s :     0.862511
      pz      :     0.010334  p :     0.020895
      px      :     0.004006
      py      :     0.006556

  5 H s       :     0.883761  s :     0.883761
      pz      :     0.008556  p :     0.020691
      px      :     0.004322
      py      :     0.007812

  6 H s       :     0.903333  s :     0.903333
      pz      :     0.009760  p :     0.019890
      px      :     0.003583
      py      :     0.006547

  7 H s       :     0.889821  s :     0.889821
      pz      :     0.009001  p :     0.020497
      px      :     0.003608
      py      :     0.007887

  8 H s       :     0.759392  s :     0.759392
      pz      :     0.016576  p :     0.036175
      px      :     0.006121
      py      :     0.013478

  9 H s       :     0.758339  s :     0.758339
      pz      :     0.010906  p :     0.036201
      px      :     0.015603
      py      :     0.009692


------------------------
MULLIKEN OVERLAP CHARGES
------------------------
B(  0-C ,  1-C ) :   0.6775 B(  0-C ,  2-N ) :  -0.0995 B(  0-C ,  3-H ) :   0.8095 
B(  0-C ,  4-H ) :   0.8190 B(  0-C ,  5-H ) :   0.8159 B(  0-C ,  6-H ) :  -0.1027 
B(  1-C ,  2-N ) :   0.6040 B(  1-C ,  3-H ) :  -0.0756 B(  1-C ,  4-H ) :  -0.0742 
B(  1-C ,  5-H ) :  -0.0677 B(  1-C ,  6-H ) :   0.8616 B(  1-C ,  7-H ) :   0.8135 
B(  1-C ,  8-H ) :  -0.0744 B(  1-C ,  9-H ) :  -0.0705 B(  2-N ,  6-H ) :  -0.1149 
B(  2-N ,  7-H ) :  -0.0738 B(  2-N ,  8-H ) :   0.7336 B(  2-N ,  9-H ) :   0.7281 
B(  3-H ,  5-H ) :  -0.0515 B(  4-H ,  5-H ) :  -0.0604 B(  6-H ,  7-H ) :  -0.0996 
B(  8-H ,  9-H ) :  -0.0735 


                     *******************************
                     * LOEWDIN POPULATION ANALYSIS *
                     *******************************

----------------------
LOEWDIN ATOMIC CHARGES
----------------------
   0 C :   -0.315042
   1 C :   -0.362281
   2 N :   -0.184302
   3 H :    0.116261
   4 H :    0.118854
   5 H :    0.112686
   6 H :    0.106791
   7 H :    0.121955
   8 H :    0.143320
   9 H :    0.141757

-------------------------------
LOEWDIN REDUCED ORBITAL CHARGES
-------------------------------
  0 C s       :     2.834431  s :     2.834431
      pz      :     1.074261  p :     3.193700
      px      :     1.053091
      py      :     1.066349
      dz2     :     0.038439  d :     0.262119
      dxz     :     0.030694
      dyz     :     0.073827
      dx2y2   :     0.048282
      dxy     :     0.070877
      f0      :     0.002319  f :     0.024792
      f+1     :     0.003040
      f-1     :     0.003493
      f+2     :     0.003801
      f-2     :     0.002757
      f+3     :     0.005062
      f-3     :     0.004320

  1 C s       :     2.797610  s :     2.797610
      pz      :     1.045232  p :     3.019242
      px      :     0.972307
      py      :     1.001703
      dz2     :     0.050256  d :     0.492096
      dxz     :     0.078046
      dyz     :     0.134226
      dx2y2   :     0.112218
      dxy     :     0.117349
      f0      :     0.006230  f :     0.053334
      f+1     :     0.004804
      f-1     :     0.004592
      f+2     :     0.004923
      f-2     :     0.009487
      f+3     :     0.014423
      f-3     :     0.008874

  2 N s       :     3.092544  s :     3.092544
      pz      :     1.509787  p :     3.942850
      px      :     1.148795
      py      :     1.284269
      dz2     :     0.018203  d :     0.138943
      dxz     :     0.014558
      dyz     :     0.030732
      dx2y2   :     0.034383
      dxy     :     0.041068
      f0      :     0.000745  f :     0.009965
      f+1     :     0.001273
      f-1     :     0.001422
      f+2     :     0.000986
      f-2     :     0.001345
      f+3     :     0.001866
      f-3     :     0.002328

  3 H s       :     0.823660  s :     0.823660
      pz      :     0.013251  p :     0.060080
      px      :     0.025739
      py      :     0.021089

  4 H s       :     0.820455  s :     0.820455
      pz      :     0.029416  p :     0.060691
      px      :     0.012401
      py      :     0.018874

  5 H s       :     0.827453  s :     0.827453
      pz      :     0.025104  p :     0.059861
      px      :     0.012962
      py      :     0.021794

  6 H s       :     0.836308  s :     0.836308
      pz      :     0.027849  p :     0.056901
      px      :     0.011066
      py      :     0.017985

  7 H s       :     0.821254  s :     0.821254
      pz      :     0.025752  p :     0.056791
      px      :     0.011171
      py      :     0.019868

  8 H s       :     0.747961  s :     0.747961
      pz      :     0.052736  p :     0.108719
      px      :     0.018131
      py      :     0.037851

  9 H s       :     0.749213  s :     0.749213
      pz      :     0.032869  p :     0.109030
      px      :     0.043422
      py      :     0.032739


---------------------------------
LOEWDIN BOND ORDERS (THRESH 0.050000)
---------------------------------
B(  0-C ,  1-C ) :   1.3117 B(  0-C ,  2-N ) :   0.1327 B(  0-C ,  3-H ) :   0.9088 
B(  0-C ,  4-H ) :   0.9088 B(  0-C ,  5-H ) :   0.9097 B(  0-C ,  6-H ) :   0.0779 
B(  0-C ,  7-H ) :   0.0772 B(  1-C ,  2-N ) :   1.4305 B(  1-C ,  3-H ) :   0.0818 
B(  1-C ,  4-H ) :   0.0789 B(  1-C ,  5-H ) :   0.0794 B(  1-C ,  6-H ) :   0.8827 
B(  1-C ,  7-H ) :   0.8753 B(  1-C ,  8-H ) :   0.0884 B(  1-C ,  9-H ) :   0.0891 
B(  2-N ,  6-H ) :   0.0554 B(  2-N ,  7-H ) :   0.0558 B(  2-N ,  8-H ) :   0.9618 
B(  2-N ,  9-H ) :   0.9668 

------------------------------------------
LOEWDIN REDUCED ORBITAL POPULATIONS PER MO
-------------------------------------------
THRESHOLD FOR PRINTING IS 0.1%%
                      0         1         2         3         4         5   
                 -14.38653 -10.29119 -10.25624  -1.01161  -0.86132  -0.72702
                   2.00000   2.00000   2.00000   2.00000   2.00000   2.00000
                  --------  --------  --------  --------  --------  --------
 0 C  s               0.0       0.0      99.4       3.0      28.3       9.9
 0 C  px              0.0       0.1       0.0       2.4       0.3       5.7
 0 C  py              0.0       0.0       0.0       0.2       0.5       4.3
 0 C  dz2             0.0       0.0       0.0       0.1       0.1       0.3
 0 C  dx2y2           0.0       0.0       0.0       0.3       0.0       0.1
 0 C  dxy             0.0       0.1       0.0       0.1       0.2       0.9
 1 C  s               0.0      99.3       0.0      15.0      10.1      14.5
 1 C  px              0.0       0.0       0.1       3.1      11.2       1.5
 1 C  py              0.0       0.0       0.0       3.0       0.0       7.6
 1 C  dz2             0.0       0.0       0.0       0.7       0.0       0.6
 1 C  dx2y2           0.0       0.0       0.0       0.2       0.0       0.2
 1 C  dxy             0.1       0.0       0.1       1.0       2.0       0.1
 1 C  f-3             0.0       0.0       0.0       0.2       0.0       0.0
 2 N  s              99.6       0.0       0.0      39.4       6.7       1.8
 2 N  pz              0.0       0.0       0.0       0.8       0.5       0.9
 2 N  px              0.0       0.1       0.0       0.5       4.1       4.2
 2 N  py              0.0       0.0       0.0       0.9       0.4       6.2
 2 N  dz2             0.0       0.0       0.0       0.1       0.0       0.1
 2 N  dxy             0.0       0.1       0.0       0.1       0.2       0.6
 3 H  s               0.0       0.0       0.1       0.4       7.3       4.5
 3 H  px              0.0       0.0       0.0       0.0       0.5       0.1
 3 H  py              0.0       0.0       0.0       0.0       0.2       0.3
 4 H  s               0.0       0.0       0.1       0.5       6.5       5.2
 4 H  pz              0.0       0.0       0.0       0.0       0.4       0.4
 4 H  py              0.0       0.0       0.0       0.0       0.2       0.1
 5 H  s               0.0       0.0       0.1       0.5       6.6       6.0
 5 H  pz              0.0       0.0       0.0       0.0       0.3       0.4
 5 H  py              0.0       0.0       0.0       0.0       0.3       0.1
 6 H  s               0.0       0.0       0.0       2.3       2.5       7.4
 6 H  pz              0.0       0.0       0.0       0.1       0.2       0.6
 7 H  s               0.0       0.0       0.0       2.4       2.6       8.9
 7 H  pz              0.0       0.0       0.0       0.1       0.1       0.6
 7 H  py              0.0       0.0       0.0       0.1       0.1       0.2
 8 H  s               0.0       0.0       0.0       9.4       2.6       3.5
 8 H  pz              0.0       0.0       0.0       0.8       0.2       0.2
 8 H  py              0.0       0.0       0.0       0.8       0.2       0.1
 9 H  s               0.0       0.0       0.0       9.4       3.4       1.2
 9 H  px              0.0       0.0       0.0       1.2       0.3       0.0
 9 H  py              0.0       0.0       0.0       0.3       0.2       0.2

                      6         7         8         9        10        11   
                  -0.60055  -0.57675  -0.53338  -0.47329  -0.46783  -0.45009
                   2.00000   2.00000   2.00000   2.00000   2.00000   2.00000
                  --------  --------  --------  --------  --------  --------
 0 C  s               0.4       0.0       0.0       0.0       0.3       0.2
 0 C  pz              3.1      10.0      12.4       6.2       9.6      12.2
 0 C  px              5.9       3.6       0.0       7.2      22.7       3.9
 0 C  py              0.5       4.5      13.6      21.8       1.7       6.1
 0 C  dz2             0.0       0.0       0.2       1.1       0.1       0.0
 0 C  dxz             0.2       0.3       0.0       0.0       0.1       0.9
 0 C  dyz             0.0       0.0       0.2       0.4       0.5       2.2
 0 C  dx2y2           0.1       0.2       0.0       1.3       0.0       0.3
 0 C  dxy             0.1       0.0       0.0       1.1       0.9       0.0
 0 C  f+2             0.0       0.0       0.0       0.0       0.0       0.1
 0 C  f+3             0.0       0.0       0.0       0.1       0.0       0.0
 1 C  s               0.2       0.1       0.0       0.1       0.1       0.1
 1 C  pz              6.3      19.4       8.0       0.9       2.7      11.3
 1 C  px              0.6       2.9       7.1       0.8      19.0       2.3
 1 C  py              6.7       9.9       2.9       5.8       3.8       9.1
 1 C  dz2             0.0       0.2       0.1       0.5       0.2       0.0
 1 C  dxz             0.0       0.0       0.6       0.4       0.5       0.8
 1 C  dyz             0.0       0.0       0.2       0.1       0.1       2.4
 1 C  dx2y2           1.2       0.1       0.1       1.5       0.2       1.4
 1 C  dxy             0.1       0.0       0.1       1.1       0.9       0.0
 1 C  f+2             0.0       0.0       0.0       0.0       0.0       0.1
 1 C  f+3             0.1       0.0       0.1       0.3       0.1       0.0
 2 N  s               0.1       0.5       0.1       0.9       0.1       0.1
 2 N  pz              6.8       8.0       1.6       2.7       4.3       0.2
 2 N  px             20.9      11.1       0.8       6.7       8.9       0.2
 2 N  py             13.6       0.7      19.4       0.8       0.7       5.2
 2 N  dz2             0.2       0.1       0.2       0.0       0.1       0.1
 2 N  dxz             0.2       0.1       0.1       0.0       0.1       0.1
 2 N  dyz             0.1       0.0       0.6       0.0       0.0       0.5
 2 N  dx2y2           0.0       0.0       0.1       0.0       0.8       0.6
 2 N  dxy             0.3       0.2       0.0       0.1       0.4       0.1
 3 H  s               3.1       3.1       1.9      15.8       5.0       0.1
 3 H  pz              0.0       0.1       0.1       0.1       0.1       0.2
 3 H  px              0.0       0.1       0.1       0.3       0.0       0.1
 3 H  py              0.1       0.0       0.0       0.0       0.3       0.1
 4 H  s               1.2       5.0       0.4      13.0       5.8       2.9
 4 H  pz              0.0       0.1       0.0       0.3       0.0       0.0
 4 H  px              0.1       0.0       0.0       0.1       0.4       0.0
 4 H  py              0.1       0.0       0.2       0.0       0.0       0.3
 5 H  s               0.2       0.6      12.2       0.6       1.0      13.4
 5 H  pz              0.0       0.0       0.2       0.2       0.0       0.1
 5 H  px              0.1       0.0       0.0       0.1       0.3       0.0
 5 H  py              0.0       0.1       0.1       0.2       0.1       0.1
 6 H  s               0.5      13.0       0.7       4.0       2.8       1.4
 6 H  pz              0.0       0.3       0.0       0.1       0.0       0.0
 6 H  px              0.0       0.0       0.1       0.0       0.3       0.0
 6 H  py              0.1       0.1       0.1       0.0       0.0       0.3
 7 H  s               3.6       0.5       4.8       0.8       0.0      16.1
 7 H  pz              0.1       0.1       0.0       0.1       0.1       0.1
 7 H  px              0.0       0.0       0.2       0.0       0.3       0.0
 7 H  py              0.0       0.3       0.1       0.0       0.0       0.1
 8 H  s               7.6       1.6       8.2       0.7       0.6       2.2
 8 H  pz              0.2       0.0       0.3       0.0       0.0       0.1
 8 H  px              0.3       0.2       0.0       0.1       0.2       0.0
 9 H  s              14.1       2.0       0.7       1.0       3.5       1.4
 9 H  pz              0.2       0.1       0.0       0.0       0.1       0.0
 9 H  px              0.4       0.0       0.1       0.0       0.0       0.0
 9 H  py              0.1       0.1       0.2       0.1       0.2       0.0

                     12        13        14        15        16        17   
                  -0.34759   0.10830   0.14516   0.15609   0.17861   0.19249
                   2.00000   0.00000   0.00000   0.00000   0.00000   0.00000
                  --------  --------  --------  --------  --------  --------
 0 C  s               0.2       2.9       7.6       0.4       1.2       0.4
 0 C  pz              0.1       0.2       0.0       1.2       5.1       1.5
 0 C  px              0.8       0.6       3.2       0.4       2.7       6.1
 0 C  py              0.2       0.4       0.2       4.6       2.4       4.2
 0 C  dz2             0.0       0.3       0.3       0.0       0.4       5.6
 0 C  dxz             0.0       0.0       0.0       0.0       1.0       0.6
 0 C  dyz             0.4       0.1       0.0       0.2       1.1       0.0
 0 C  dx2y2           0.0       0.0       0.2       0.0       0.2       0.0
 0 C  dxy             0.0       1.3       0.0       1.5       0.3       0.1
 1 C  s               0.2       2.9       0.3       3.4       2.8       1.3
 1 C  pz              3.6       0.5       0.1       1.1       7.9       3.5
 1 C  px              0.0       0.6       7.1       0.1       0.3       0.4
 1 C  py              1.3       1.9       0.0       8.8       0.9       2.8
 1 C  dz2             0.1       1.3       0.2       0.1       0.0       1.0
 1 C  dxz             1.6       0.0       0.0       0.0       0.1       0.2
 1 C  dyz             3.8       0.0       0.1       0.4       1.9       1.6
 1 C  dx2y2           0.7       0.1       0.0       0.7       0.4       1.6
 1 C  dxy             0.5       0.1       3.2       0.0       0.0       0.1
 1 C  f0              0.2       0.0       0.0       0.0       0.0       0.0
 1 C  f-1             0.0       0.0       0.0       0.1       0.1       0.0
 1 C  f-2             0.2       0.0       0.0       0.0       0.0       0.0
 1 C  f-3             0.0       0.0       0.0       0.0       0.1       0.1
 2 N  s               5.3       4.9       2.3       0.6       0.8       0.2
 2 N  pz             49.6       0.8       0.6       1.6       0.4       0.3
 2 N  px              0.0       1.2       2.0       0.6       0.9       0.5
 2 N  py             16.2       0.2       0.8       2.0       0.7       0.6
 2 N  dz2             0.0       0.0       0.3       0.0       0.4       0.6
 2 N  dxz             0.2       0.0       0.0       0.0       0.2       0.5
 2 N  dyz             0.2       0.2       0.1       0.3       0.2       0.0
 2 N  dx2y2           0.1       0.0       0.0       0.2       0.1       0.1
 2 N  dxy             0.0       0.4       0.0       0.7       0.0       0.0
 3 H  s               0.1       4.8      14.2       1.6       2.9      24.6
 3 H  px              0.0       0.3       0.6       0.0       0.4       1.7
 3 H  py              0.0       0.4       1.0       0.0       0.0       0.5
 4 H  s               0.5       3.4      11.1       0.2      12.2       4.6
 4 H  pz              0.0       0.4       1.2       0.1       0.6       0.7
 4 H  px              0.0       0.1       0.0       0.0       0.1       0.1
 4 H  py              0.0       0.0       0.3       0.0       0.7       0.0
 5 H  s               0.1       7.8      11.4       9.7       0.5       0.1
 5 H  pz              0.0       0.6       1.0       0.5       0.0       0.2
 5 H  py              0.0       0.2       0.6       0.4       0.0       0.4
 6 H  s               7.3      10.6       0.3       5.0      32.2       1.1
 6 H  pz              0.0       1.1       0.0       0.6       2.0       0.1
 6 H  px              0.0       0.0       0.2       0.0       0.0       0.0
 6 H  py              0.0       0.1       0.0       0.1       1.6       0.6
 7 H  s               1.2       6.9       1.1      22.9       0.9      19.4
 7 H  pz              0.0       0.7       0.1       1.2       0.0       1.2
 7 H  px              0.0       0.0       0.2       0.0       0.0       0.1
 7 H  py              0.1       0.1       0.0       1.4       0.2       0.6
 8 H  s               0.9      19.1       2.9      22.2       0.5       2.4
 8 H  pz              0.8       1.3       0.1       1.3       0.0       0.3
 8 H  px              0.0       0.2       0.0       0.0       0.1       0.0
 8 H  py              0.6       0.9       0.6       1.0       0.0       0.0
 9 H  s               0.8      17.7      22.0       2.1      10.8       6.3
 9 H  pz              1.2       0.0       0.0       0.1       0.0       0.2
 9 H  px              0.1       1.4       1.5       0.1       1.1       0.6
 9 H  py              0.2       0.8       0.6       0.0       0.1       0.0

                     18        19        20        21        22        23   
                   0.20969   0.22053   0.24785   0.27662   0.29737   0.32088
                   0.00000   0.00000   0.00000   0.00000   0.00000   0.00000
                  --------  --------  --------  --------  --------  --------
 0 C  s               0.2       0.0       0.1       0.2       0.6       0.0
 0 C  pz              1.6       8.5       0.2       1.4       0.5      59.6
 0 C  px              4.1       0.9      15.7      12.1       5.7       0.5
 0 C  py              3.2       1.1       3.7       6.9      24.6       1.2
 0 C  dz2             1.4       0.0       0.1       3.3       2.5       0.0
 0 C  dxz             2.0       1.2       0.2       0.6       0.1       1.2
 0 C  dyz             0.5       5.9       0.1       0.3       0.0       8.7
 0 C  dx2y2           0.5       0.0       6.2       0.0       1.1       0.1
 0 C  dxy             2.7       0.7       2.2       7.2       0.1       0.0
 0 C  f+2             0.0       0.0       0.0       0.0       0.0       0.2
 1 C  s               0.1       0.0       1.2       0.6       0.3       0.0
 1 C  pz              2.9       1.0       0.0       0.1       0.2       1.3
 1 C  px              0.7       0.4       1.4      20.7      25.9       0.2
 1 C  py              1.4       0.2      25.0       6.9       9.1       0.0
 1 C  dz2             0.8       0.0      12.2       0.2       1.3       0.0
 1 C  dxz             0.0       2.1       0.0       0.4       0.1       1.7
 1 C  dyz             0.4       0.0       0.3       0.0       0.1       0.7
 1 C  dx2y2           0.1       0.1       0.1       0.2       0.0       0.0
 1 C  dxy             0.3       0.4       0.9       8.6       6.4       0.0
 1 C  f+1             0.0       0.0       0.0       0.0       0.1       0.0
 1 C  f+3             0.2       0.1       0.1       0.0       0.0       0.0
 2 N  s               0.1       0.5       0.4       0.5       0.0       0.0
 2 N  pz              1.7       0.1       0.0       1.4       0.0       1.8
 2 N  px              1.5       0.5       4.5       2.1       3.5       0.0
 2 N  py              2.3       2.2       0.9       2.2       0.2       0.3
 2 N  dz2             0.0       0.0       0.1       0.1       0.1       0.0
 2 N  dxz             0.6       0.2       0.0       0.0       0.0       0.3
 2 N  dyz             0.0       0.3       0.0       0.1       0.0       0.5
 2 N  dx2y2           0.0       0.1       0.5       0.4       0.3       0.0
 2 N  dxy             0.0       0.1       2.2       0.0       0.0       0.1
 3 H  s              11.7       2.5       2.1       4.5       0.6       0.0
 3 H  pz              0.3       1.1       0.0       0.0       0.0       1.2
 3 H  px              0.5       0.2       1.2       0.2       0.1       0.0
 3 H  py              0.5       0.1       0.3       0.8       0.3       0.0
 4 H  s              15.2      14.6       4.4       0.3       2.0       6.1
 4 H  pz              1.2       0.4       0.4       0.2       0.0       0.4
 4 H  px              0.1       0.1       0.1       1.2       0.0       0.0
 4 H  py              0.1       1.3       0.3       0.2       0.1       0.1
 5 H  s               1.1      32.1       1.7       2.3       1.7       6.2
 5 H  pz              0.4       1.0       0.2       0.9       0.1       0.1
 5 H  px              0.9       0.3       0.0       0.5       0.0       0.1
 5 H  py              0.1       1.9       0.1       0.0       0.1       0.1
 6 H  s               9.5       2.8       2.1       1.1       1.5       1.7
 6 H  pz              0.4       0.0       0.8       0.0       0.0       0.2
 6 H  px              0.0       0.0       0.1       1.1       0.9       0.5
 6 H  py              0.2       0.1       0.7       0.1       0.2       0.3
 7 H  s               6.2       3.5       2.4       2.5       1.3       2.3
 7 H  pz              0.0       0.1       0.9       0.1       0.0       0.1
 7 H  px              0.0       0.2       0.1       0.9       0.8       0.4
 7 H  py              0.8       0.2       0.4       0.2       0.2       0.4
 8 H  s              13.4       6.5       0.0       5.4       0.1       0.6
 8 H  pz              0.6       0.6       0.1       0.3       0.0       0.0
 8 H  px              0.0       0.3       0.3       0.0       0.0       0.1
 8 H  py              0.6       0.3       0.0       0.0       0.1       0.1
 9 H  s               6.2       2.9       1.7       0.2       6.0       0.0
 9 H  pz              0.3       0.0       0.0       0.0       0.0       0.1
 9 H  px              0.4       0.2       0.0       0.0       0.8       0.0
 9 H  py              0.0       0.0       0.8       0.0       0.0       0.0

                     24        25        26        27        28        29   
                   0.36659   0.36906   0.39726   0.46247   0.48876   0.49726
                   0.00000   0.00000   0.00000   0.00000   0.00000   0.00000
                  --------  --------  --------  --------  --------  --------
 0 C  s               0.9       0.4       0.0      25.7       1.7      25.5
 0 C  pz              0.2       0.3       0.2       0.4       0.0       0.3
 0 C  px             13.4       5.3       0.0       2.3       2.3       4.5
 0 C  py             17.4       3.0       0.4       5.4       0.4       3.7
 0 C  dz2             5.1       1.2       0.4       0.4       0.3       1.8
 0 C  dxz             0.5       1.2       3.5       1.1       0.1       0.1
 0 C  dyz             0.1       0.2       1.0       0.1       0.1       0.0
 0 C  dx2y2           0.1       0.2       0.3       2.6       0.1       2.3
 0 C  dxy             1.7       0.8       0.5       0.4       0.4       0.1
 0 C  f+1             0.2       0.0       0.0       0.0       0.3       0.0
 0 C  f+3             0.0       0.1       0.1       0.0       0.3       0.2
 0 C  f-3             0.0       0.1       0.0       0.0       0.2       0.2
 1 C  s               2.3       4.4       2.4       0.1      45.6       0.2
 1 C  pz              2.6      12.6      34.5       4.1       1.0       0.6
 1 C  px              2.3       9.5       4.0       0.4       7.4       0.7
 1 C  py             11.8       3.7       1.8       2.6       9.0       8.0
 1 C  dz2             3.8       0.8       0.2       0.5       0.8       1.0
 1 C  dxz             0.0       0.5       0.0       0.0       0.0       0.3
 1 C  dyz             1.0       0.4       6.7       0.7       0.2       1.6
 1 C  dx2y2           1.1       0.1       0.5       1.5       0.8       2.2
 1 C  dxy             1.3       0.4       1.0       0.1       0.3       0.2
 1 C  f+1             0.0       0.0       0.0       0.1       0.0       0.1
 1 C  f+2             0.0       0.0       0.2       0.0       0.0       0.1
 1 C  f-3             0.0       0.0       0.0       0.5       0.0       0.1
 2 N  s               0.5       1.8       0.4       0.3      10.9       0.1
 2 N  pz              0.3       5.2       6.0       9.6       2.7       8.4
 2 N  px              4.6       7.9       1.7       5.6       1.3       1.2
 2 N  py              0.6      15.5       4.5       1.6       0.2      15.9
 2 N  dz2             0.0       2.9       2.4       3.6       0.6       0.1
 2 N  dxz             0.0       0.2       0.4       1.6       0.3       0.5
 2 N  dyz             0.1       0.7       2.2       0.3       0.1       1.5
 2 N  dx2y2           0.9       0.9       0.5       0.7       0.0       0.5
 2 N  dxy             4.7       4.9       1.8       2.7       0.7       0.1
 2 N  f-3             0.0       0.0       0.0       0.2       0.0       0.1
 3 H  s               5.2       2.9       0.5       2.9       1.1       1.1
 3 H  px              0.2       0.0       0.0       0.9       0.1       0.0
 3 H  py              0.0       0.0       0.0       0.1       0.4       0.1
 4 H  s               1.0       0.8       1.4       0.2       0.1       3.7
 4 H  pz              0.1       0.1       0.1       0.4       0.0       0.5
 4 H  px              0.2       0.3       0.6       0.0       0.0       0.0
 4 H  py              0.6       0.0       0.2       0.0       0.0       0.1
 5 H  s               1.4       0.6       1.4       0.1       0.1       1.8
 5 H  pz              0.2       0.0       0.0       0.3       0.2       0.6
 5 H  px              0.6       0.0       0.3       0.3       0.1       0.0
 5 H  py              0.3       0.3       0.2       0.0       0.0       0.2
 6 H  s               0.8       1.9       5.0       1.7       1.5       3.8
 6 H  pz              1.0       0.0       0.0       0.0       1.5       0.2
 6 H  px              0.1       0.1       0.1       0.0       0.0       0.0
 6 H  py              0.0       0.0       0.8       0.0       0.4       0.2
 7 H  s               2.6       0.2       4.7       0.5       1.8       0.3
 7 H  pz              0.4       0.3       0.4       0.4       0.6       0.0
 7 H  px              0.1       0.0       0.0       0.1       0.0       0.1
 7 H  py              0.0       0.0       0.5       0.0       0.5       0.1
 8 H  s               1.2       2.0       4.0       1.3       1.8       2.4
 8 H  pz              0.0       0.8       0.7       0.2       0.7       0.6
 8 H  px              1.5       1.4       0.0       0.0       0.0       0.1
 8 H  py              0.3       0.0       0.2       0.6       0.0       0.0
 9 H  s               3.7       0.1       0.2      12.2       0.3       1.3
 9 H  pz              0.0       0.3       0.0       0.7       0.1       0.0
 9 H  px              0.5       0.3       0.1       0.8       0.0       0.4
 9 H  py              0.1       1.8       0.5       0.9       0.0       0.0

                     30        31        32        33        34        35   
                   0.50673   0.52351   0.53294   0.55440   0.56953   0.59304
                   0.00000   0.00000   0.00000   0.00000   0.00000   0.00000
                  --------  --------  --------  --------  --------  --------
 0 C  s               6.2       4.8       1.5       4.6       4.1       0.6
 0 C  pz              0.1       1.1      15.3       0.1       0.0      11.1
 0 C  px              5.5       9.8       0.1       9.3       2.3       0.2
 0 C  py              6.7       2.7       0.4       7.6       6.1       1.3
 0 C  dz2             0.0       0.1       0.0       1.0       2.7       3.2
 0 C  dxz             0.1       1.2       2.0       0.3       0.0       0.7
 0 C  dyz             0.2       0.5       3.2       0.1       0.1       5.5
 0 C  dx2y2           0.9       0.6       0.1       2.9       0.1       0.1
 0 C  dxy             2.5       3.6       0.1       2.9       2.0       0.0
 0 C  f0              0.1       0.0       0.1       0.1       0.0       0.0
 0 C  f+1             0.0       0.3       0.0       0.0       0.1       0.0
 0 C  f-1             0.0       0.1       0.0       0.6       0.1       0.0
 0 C  f+2             0.1       0.1       0.4       0.0       0.0       0.1
 0 C  f-3             0.0       0.4       0.0       0.2       0.7       0.1
 1 C  s               6.8       4.5       3.3       0.7       0.1       1.1
 1 C  pz              3.7      10.7       8.6       1.5       0.4       7.4
 1 C  px             14.5       4.3       1.5       2.7       3.0       0.3
 1 C  py              2.6       4.8       0.9       4.8       1.2       0.3
 1 C  dz2             0.0       0.4       0.1       3.2       0.1       0.5
 1 C  dxz             0.4       0.4       2.8       0.0       0.2       1.3
 1 C  dyz             2.9       0.1       2.9       0.1       0.1       3.5
 1 C  dx2y2           1.4       0.1       0.0       0.6       0.6       0.0
 1 C  dxy             1.8       0.5       0.6       0.7       0.8       0.1
 1 C  f0              0.1       0.0       0.2       0.0       0.0       0.0
 1 C  f+1             0.0       0.2       0.0       0.0       0.1       0.0
 1 C  f-1             0.0       0.4       0.1       0.2       0.1       0.8
 1 C  f+2             0.3       0.2       0.2       0.0       0.0       0.0
 1 C  f+3             0.0       0.0       0.0       0.2       0.2       0.1
 1 C  f-3             0.0       0.5       0.1       0.1       0.0       0.3
 2 N  s               0.4       2.0       0.7       0.1      10.9       4.2
 2 N  pz              4.7      16.5       3.5      13.4       1.3       2.1
 2 N  px              1.1       0.4       1.2       1.6       2.5       0.6
 2 N  py              1.6       2.1       3.5       3.0       2.0       1.9
 2 N  dz2             0.1       0.4       0.0       0.3       1.0       1.4
 2 N  dxz             0.0       1.1       1.0       0.2       0.1       0.6
 2 N  dyz             4.0       1.9       2.4       0.1       0.1       0.1
 2 N  dx2y2           0.3       0.2       0.0       0.4       0.1       0.1
 2 N  dxy             0.3       0.1       0.0       2.5       1.9       0.0
 2 N  f-1             0.2       0.2       0.2       0.1       0.1       0.0
 2 N  f+3             0.1       0.0       0.0       0.0       0.0       0.0
 2 N  f-3             0.0       0.3       0.1       0.0       0.1       0.0
 3 H  s               0.8       0.5       0.4       5.1      18.0       2.1
 3 H  pz              0.0       0.3       0.0       0.1       0.0       0.5
 3 H  px              0.0       0.1       0.1       0.1       4.4       0.2
 3 H  py              0.5       0.1       0.1       0.0       2.8       0.4
 4 H  s               0.2       0.5       7.0       8.2       0.3      10.9
 4 H  pz              0.1       0.0       1.2       2.7       0.0       1.5
 4 H  px              0.0       0.8       0.0       0.0       0.1       0.0
 4 H  py              0.2       0.0       0.6       1.2       0.5       0.6
 5 H  s               1.3       1.7       9.0       6.0       0.6       5.3
 5 H  pz              0.3       0.3       0.8       1.5       0.0       0.2
 5 H  px              0.2       0.2       0.0       0.1       0.2       0.0
 5 H  py              0.4       0.3       0.3       1.6       0.3       2.0
 6 H  s               2.3       0.9       8.0       0.5       1.8      17.5
 6 H  pz              0.1       0.1       1.1       0.0       0.2       4.0
 6 H  px              0.0       0.3       0.0       0.0       0.1       0.0
 6 H  py              0.0       0.0       0.3       0.4       0.1       1.9
 7 H  s               8.0       4.5       4.8       0.3       0.2       0.6
 7 H  pz              1.0       1.6       0.1       0.7       0.0       0.1
 7 H  px              0.2       0.0       0.1       0.0       0.0       0.0
 7 H  py              1.3       1.2       0.0       0.0       0.0       0.1
 8 H  s              10.5       4.9       6.1       0.2       1.3       0.9
 8 H  pz              0.8       0.3       0.3       0.1       0.2       0.7
 8 H  px              0.0       0.1       0.0       0.9       0.5       0.0
 8 H  py              0.7       0.9       0.9       0.1       0.9       0.0
 9 H  s               0.8       1.2       0.4       2.8      15.7       0.3
 9 H  pz              0.3       1.2       0.7       0.2       0.2       0.0
 9 H  px              0.0       0.1       0.1       0.3       4.6       0.1
 9 H  py              0.0       0.3       0.2       0.5       1.5       0.0

                     36        37        38        39        40        41   
                   0.61204   0.63096   0.64231   0.68556   0.74837   0.82123
                   0.00000   0.00000   0.00000   0.00000   0.00000   0.00000
                  --------  --------  --------  --------  --------  --------
 0 C  s               0.2       0.2       1.1      14.2       0.6       0.0
 0 C  pz              2.3       0.0       1.0       0.1       0.2       0.7
 0 C  px              0.1       3.0       1.0       2.3       0.8       0.4
 0 C  py              3.8       0.2       0.2       1.6       0.7       0.2
 0 C  dz2             2.7       0.0       0.5       1.6       0.2       1.3
 0 C  dxz             0.6       0.1       2.4       0.1       1.8      20.7
 0 C  dyz             3.3       0.0       1.2       0.2       0.2       0.5
 0 C  dx2y2           0.0       1.1       0.0       6.1       0.6       3.6
 0 C  dxy             0.2       0.4       0.8       0.4       0.6       1.6
 0 C  f0              0.0       0.0       0.0       0.1       0.0       0.0
 0 C  f+1             0.0       0.0       0.0       0.2       0.3       0.0
 0 C  f-1             0.1       0.4       0.0       3.7       0.4       0.0
 0 C  f+2             0.1       0.0       0.0       0.0       0.0       0.5
 0 C  f-3             0.0       0.3       0.1       0.2       0.1       0.0
 1 C  s               1.0       0.8       4.5       2.2      15.5       0.1
 1 C  pz              1.2       0.1       1.1       0.0       0.9       1.9
 1 C  px              5.0       0.5       2.9       0.3       0.8       0.4
 1 C  py              2.9       0.2       0.7       0.6       2.0       0.4
 1 C  dz2             0.7       1.3       0.0       0.5       2.0       0.5
 1 C  dxz             0.4       0.2       1.4       0.0       1.8      23.1
 1 C  dyz             0.6       0.1       1.6       0.0       0.1       0.5
 1 C  dx2y2           0.1       0.2       0.3       5.9       1.4       0.4
 1 C  dxy             1.4       0.0       0.1       0.6       0.1       0.3
 1 C  f0              0.0       0.0       0.2       0.0       0.1       0.1
 1 C  f+1             0.0       0.0       0.1       0.0       0.6       0.0
 1 C  f-1             0.2       0.1       2.2       0.6       0.8       0.0
 1 C  f+2             0.0       0.0       0.0       0.0       0.2       0.0
 1 C  f-2             0.1       0.0       0.0       0.0       0.1       0.0
 1 C  f+3             0.1       0.1       0.0       0.0       0.1       0.1
 1 C  f-3             0.0       0.0       0.8       0.1       0.0       0.0
 2 N  s              15.8       0.4       0.6       1.4      26.0       6.2
 2 N  pz              8.7       3.8       3.9       0.2       2.7       1.9
 2 N  px              9.5      31.7       7.7       4.9       4.3       0.2
 2 N  py              8.3      18.7      12.2       3.7       0.2       0.0
 2 N  dz2             1.1       0.1       0.1       0.1       5.6       0.5
 2 N  dxz             0.8       0.2       0.3       0.0       0.0       6.1
 2 N  dyz             0.1       0.0       3.1       0.0       3.3       0.1
 2 N  dx2y2           0.1       2.5       0.0       0.1       1.4       0.0
 2 N  dxy             0.1       0.3       0.2       0.0       1.6       0.1
 2 N  f-1             0.0       0.0       0.1       0.1       0.2       0.2
 2 N  f+2             0.0       0.0       0.0       0.0       0.0       0.1
 2 N  f-3             0.1       0.0       0.0       0.1       0.0       0.2
 3 H  s               2.7       3.3       0.5       7.4       0.2       0.4
 3 H  pz              0.3       0.0       0.5       0.0       0.2       1.9
 3 H  px              0.6       0.5       0.1       1.5       0.0       0.0
 3 H  py              0.4       1.1       0.0       0.1       0.1       0.6
 4 H  s               1.3       1.2       0.8      11.1       2.2       0.5
 4 H  pz              0.0       0.3       0.0       4.5       0.7       0.0
 4 H  px              0.1       0.0       0.1       0.2       0.1       1.5
 4 H  py              0.8       0.3       0.2       0.0       0.2       0.9
 5 H  s               5.5       2.2       1.1      10.3       2.1       1.1
[...]
 2 N  dyz             0.3       0.1       5.7      30.3      23.4       0.3
 2 N  dx2y2           0.2      13.6       0.3       0.7      11.3      15.0
 2 N  dxy             2.1       0.1       6.7       4.2       4.7       1.1
 2 N  f0              0.4       0.6       1.0       4.1       1.4       1.3
 2 N  f+1             0.7       1.2       0.3       1.8       0.2       3.4
 2 N  f-1             3.1       0.1       0.1       0.3       0.9       0.0
 2 N  f+2             3.4       0.0       0.4       0.5       0.2       3.7
 2 N  f-2             1.0       2.7       1.6       1.1       5.1       4.1
 2 N  f+3             0.9       1.2       0.6       0.1       1.5      31.3
 2 N  f-3             0.5       0.4       1.4       0.1       0.0       0.0
 3 H  s               0.1       0.1       0.2       0.2       0.1       0.5
 3 H  py              0.0       0.1       0.0       0.0       0.0       0.1
 4 H  s               3.1       2.6       0.2       0.0       0.3       0.2
 4 H  pz              0.6       0.1       0.0       0.0       0.0       0.0
 4 H  py              0.5       0.1       0.0       0.0       0.1       0.0
 5 H  s               3.1       0.7       0.9       0.1       0.2       0.0
 5 H  pz              0.4       0.0       0.0       0.0       0.0       0.0
 5 H  py              0.4       0.1       0.0       0.0       0.0       0.0
 6 H  s               6.3       0.2       0.0       2.0       0.1       0.0
 6 H  pz              0.6       0.0       0.0       0.2       0.1       0.0
 6 H  px              0.0       0.1       0.0       0.2       0.0       0.0
 6 H  py              0.3       0.0       0.0       0.3       0.0       0.0
 7 H  s               2.0       0.1       0.5       0.9       0.4       2.2
 7 H  pz              0.0       0.1       0.0       0.2       0.0       0.3
 7 H  py              0.3       0.1       0.0       0.1       0.0       0.1
 8 H  s               0.0       0.1       0.1       0.0       0.4       0.4
 8 H  pz              0.0       0.0       0.1       0.0       0.5       0.0
 8 H  px              0.0       0.0       0.5       0.0       0.0       0.6
 8 H  py              0.1       0.0       0.0       0.5       0.0       0.2
 9 H  s               0.3       0.2       0.2       0.2       0.2       0.2
 9 H  pz              0.1       0.0       0.0       0.0       0.4       0.0
 9 H  px              0.4       0.0       0.2       0.3       0.1       0.8
 9 H  py              0.0       0.1       0.1       0.1       0.1       0.6

                    126       127       128       129       130       131   
                   5.17925   5.20852   5.29736   5.36632   5.64490   5.87848
                   0.00000   0.00000   0.00000   0.00000   0.00000   0.00000
                  --------  --------  --------  --------  --------  --------
 0 C  s               0.1       0.3       0.2       0.3       0.1       0.2
 0 C  px              0.1       0.1       0.2       0.3       0.1       0.1
 0 C  py              0.1       0.0       0.3       0.5       0.0       0.1
 0 C  dz2             0.1       0.1       0.3       0.1       0.0       0.1
 0 C  dyz             0.1       0.0       0.0       0.0       0.0       0.0
 0 C  dx2y2           0.1       0.2       0.1       0.0       0.2       0.1
 0 C  dxy             0.1       0.1       0.2       0.4       0.0       0.0
 0 C  f+1             0.0       0.2       0.0       0.0       0.0       0.0
 0 C  f-1             0.1       0.3       0.0       0.0       0.1       0.0
 0 C  f+3             0.0       0.0       0.0       0.0       0.2       0.1
 0 C  f-3             0.2       0.0       0.4       0.1       0.2       0.1
 1 C  s               0.4       1.0       3.7       2.2       0.0       0.3
 1 C  pz              0.5       0.0       0.0       0.0       0.0       0.0
 1 C  px              0.0       3.0       1.5       1.4       0.2       0.8
 1 C  py              0.2       0.1       2.8       0.5       0.1       0.4
 1 C  dz2             0.5       0.6       1.5       0.4       0.0       0.6
 1 C  dxz             2.3       0.0       0.1       0.0       0.1       0.1
 1 C  dyz             2.2       0.3       0.2       0.1       0.2       0.1
 1 C  dx2y2           0.2       1.3       0.7       0.1       1.0       0.1
 1 C  dxy             0.1       1.3       6.4       1.6       0.3       2.9
 1 C  f0              1.7       0.3       0.2       0.2       0.2       0.0
 1 C  f+1             0.3       0.6       0.6       0.4       0.3       0.1
 1 C  f-1             0.1       0.1       2.2       1.3       0.0       0.0
 1 C  f+2             1.2       0.0       0.0       0.1       0.0       0.0
 1 C  f-2             2.3       0.3       0.0       0.1       0.2       0.2
 1 C  f+3             0.1       0.1       1.5       0.8       2.9       0.4
 1 C  f-3             1.4       2.3       0.9       2.6       0.2       0.0
 2 N  s               0.4       0.7       1.1       1.3       0.1      18.8
 2 N  pz              2.8       0.6       0.3       0.0       1.5       2.0
 2 N  px              0.5       0.2      14.9       2.1       1.9       0.2
 2 N  py              0.0       7.0       0.6       1.2       3.8       0.4
 2 N  dz2             0.3       8.3       0.3      12.0       1.7       0.5
 2 N  dxz            16.0       0.0       3.4       0.0       0.4       0.1
 2 N  dyz            18.1       9.9       1.2       0.3       3.0       1.1
 2 N  dx2y2           0.3      35.2       7.6       3.6       6.8       0.2
 2 N  dxy             5.5       1.1      16.1      46.6       1.8       0.3
 2 N  f0             13.7       0.7       0.6       0.3       2.1       0.2
 2 N  f+1             0.2       0.2      19.9       7.8       3.5       1.3
 2 N  f-1             0.1       0.0       0.2       0.1      11.5      19.3
 2 N  f+2             0.0       1.9       0.4       0.7      16.7       2.9
 2 N  f-2            24.0       1.5       0.3       2.9       0.0       1.7
 2 N  f+3             0.9      13.5       0.5       3.8       5.2       0.0
 2 N  f-3             0.0       0.1       1.5       1.4      12.6      26.7
 3 H  s               0.0       0.0       0.4       0.0       0.1       0.0
 5 H  s               0.0       0.1       0.0       0.0       0.0       0.0
 6 H  s               0.4       0.0       0.3       0.4       0.0       0.0
 6 H  pz              0.1       0.0       0.0       0.1       0.0       0.0
 7 H  s               0.3       0.2       0.1       0.1       0.0       0.0
 7 H  px              0.1       0.0       0.0       0.0       0.0       0.0
 8 H  s               0.2       1.9       0.4       0.5      10.3       6.7
 8 H  pz              0.6       1.2       0.1       0.1       0.6       0.8
 8 H  px              0.1       0.0       0.4       0.1       0.1       0.0
 8 H  py              0.0       1.2       0.0       0.0       0.6       0.3
 9 H  s               0.1       0.2       3.2       0.5       7.8       8.4
 9 H  pz              0.0       0.0       0.1       0.0       0.0       0.1
 9 H  px              0.3       0.4       1.5       0.0       0.5       0.9
 9 H  py              0.0       0.6       0.3       0.2       0.5       0.2

                    132       133       134   
                  22.39159  22.48904  31.96528
                   0.00000   0.00000   0.00000
                  --------  --------  --------
 0 C  s              86.3      12.5       0.0
 1 C  s              12.3      86.2       0.0
 1 C  px              0.1       0.0       0.0
 2 N  s               0.0       0.1      99.6
 2 N  px              0.0       0.1       0.1
 3 H  s               0.2       0.0       0.0
 4 H  s               0.2       0.0       0.0
 5 H  s               0.2       0.0       0.0
 6 H  s               0.0       0.1       0.0
 7 H  s               0.0       0.2       0.0


                      *****************************
                      * MAYER POPULATION ANALYSIS *
                      *****************************

  NA   - Mulliken gross atomic population
  ZA   - Total nuclear charge
  QA   - Mulliken gross atomic charge
  VA   - Mayer's total valence
  BVA  - Mayer's bonded valence
  FA   - Mayer's free valence

  ATOM       NA         ZA         QA         VA         BVA        FA
  0 C      6.3298     6.0000    -0.3298     3.9223     3.9223    -0.0000
  1 C      6.0578     6.0000    -0.0578     3.9357     3.9357     0.0000
  2 N      7.5053     7.0000    -0.5053     2.8809     2.8809     0.0000
  3 H      0.8956     1.0000     0.1044     0.9767     0.9767    -0.0000
  4 H      0.8834     1.0000     0.1166     0.9795     0.9795    -0.0000
  5 H      0.9045     1.0000     0.0955     0.9757     0.9757    -0.0000
  6 H      0.9232     1.0000     0.0768     0.9572     0.9572     0.0000
  7 H      0.9103     1.0000     0.0897     0.9651     0.9651    -0.0000
  8 H      0.7956     1.0000     0.2044     0.9560     0.9560    -0.0000
  9 H      0.7945     1.0000     0.2055     0.9526     0.9526     0.0000

  Mayer bond orders larger than 0.100000
B(  0-C ,  1-C ) :   0.9950 B(  0-C ,  3-H ) :   0.9783 B(  0-C ,  4-H ) :   0.9784 
B(  0-C ,  5-H ) :   0.9781 B(  1-C ,  2-N ) :   0.9940 B(  1-C ,  6-H ) :   0.9762 
B(  1-C ,  7-H ) :   0.9709 B(  2-N ,  8-H ) :   0.9434 B(  2-N ,  9-H ) :   0.9453 


-------
TIMINGS
-------

Total SCF time: 0 days 0 hours 0 min 14 sec 

Total time                  ....      14.617 sec
Sum of individual times     ....      14.179 sec  ( 97.0%)

SCF preparation             ....       0.039 sec  (  0.3%)
Fock matrix formation       ....      14.002 sec  ( 95.8%)
  Startup                   ....       0.001 sec  (  0.0% of F)
  Split-RI-J                ....       0.425 sec  (  3.0% of F)
  Chain of spheres X        ....      11.821 sec  ( 84.4% of F)
  XC integration            ....       2.164 sec  ( 15.5% of F)
    Basis function eval.    ....       0.621 sec  ( 28.7% of XC)
    Density eval.           ....       0.379 sec  ( 17.5% of XC)
    XC-Functional eval.     ....       0.638 sec  ( 29.5% of XC)
    XC-Potential eval.      ....       0.477 sec  ( 22.0% of XC)
Diagonalization             ....       0.000 sec  (  0.0%)
Density matrix formation    ....       0.010 sec  (  0.1%)
Total Energy calculation    ....       0.001 sec  (  0.0%)
Population analysis         ....       0.041 sec  (  0.3%)
Orbital Transformation      ....       0.018 sec  (  0.1%)
Orbital Orthonormalization  ....       0.000 sec  (  0.0%)
DIIS solution               ....       0.021 sec  (  0.1%)
  MO trafo                  ....       0.000 sec  (  0.0 % of DIIS)
  Orb grad                  ....       0.000 sec  (  0.0 % of DIIS)
  Energy W gradient         ....       0.000 sec  (  0.0 % of DIIS)
  DIIS error                ....       0.001 sec  (  6.3 % of DIIS)
  DIIS work                 ....       0.011 sec  ( 51.0 % of DIIS)
  Form Q                    ....       0.000 sec  (  0.0 % of DIIS)
  Form QpQm                 ....       0.000 sec  (  0.0 % of DIIS)
  Exp/Cayley                ....       0.000 sec  (  0.0 % of DIIS)
  Orb update                ....       0.000 sec  (  0.0 % of DIIS)
  Wake-sleep                ....       0.000 sec  (  1.0 % of DIIS)
SOSCF solution              ....       0.011 sec  (  0.1%)
  MO trafo                  ....       0.008 sec  ( 71.0 % of SOSCF)
  Orb grad                  ....       0.000 sec  (  0.8 % of SOSCF)
  Rot update                ....       0.000 sec  (  3.1 % of SOSCF)
  Step                      ....       0.003 sec  ( 24.9 % of SOSCF)
Grid generation             ....       0.037 sec  (  0.3%)
Finished LeanSCF after  14.6 sec

Maximum memory used throughout the entire LEANSCF-calculation: 14.3 MB
------------------   -----------------
gCP correction             0.006824099
------------------   -----------------

-------------------------   --------------------
FINAL SINGLE POINT ENERGY      -135.175639648838
-------------------------   --------------------


------------------------------------------------------------------------------
                              ORCA PROPERTY CALCULATIONS
------------------------------------------------------------------------------

GBWName                                 ... sp.gbw
Number of atoms                         ...     10
Number of basis functions               ...    135
Max core memory                         ...   1024 MB

Electric properties:
Dipole moment                           ... YES
Quadrupole moment                       ...  NO
Static polarizability (Dipole/Dipole)   ...  NO
Static polarizability (Dipole/Quad.)    ...  NO
Static polarizability (Quad./Quad.)     ...  NO
Static polarizability (Velocity)        ...  NO

Atomic electric properties:
Dipole moment                           ...  NO
Quadrupole moment                       ...  NO
Static polarizability                   ...  NO

Choice of electric origin               ... Center of mass
Position of electric origin             ...    -0.069702     0.114236    -0.002146

General magnetic properties:
Magnetizability                         ...  NO

EPR properties:
g-Tensor (aka g-matrix)                 ...  NO
Zero-Field splitting spin-orbit         ...  NO
Zero-field splitting spin-spin          ...  NO
Hyperfine couplings                     ...  NO (   0 nuclei)
Quadrupole couplings                    ...  NO (   0 nuclei)
Contact density                         ...  NO (   0 nuclei)

NMR properties:
Chemical shifts                         ...  NO (   0 nuclei)
Spin-rotation constants                 ...  NO (   0 nuclei)
Spin-spin couplings                     ...  NO (   0 nuclei,    0 pairs)

Choice of magnetic origin               ... GIAO
Position of magnetic origin             ...     0.000000     0.000000     0.000000

Properties with geometric perturbations:
SCF Hessian                             ...  NO
IR spectrum                             ...  NO
VCD spectrum                            ...  NO
X-ray spectroscopy properties:
SCF XES/XAS/RIXS spectra                ...  NO


-------------
DIPOLE MOMENT
-------------

Method             : SCF
Type of density    : Electron Density
Multiplicity       :   1
Irrep              :   0
Energy             :  -135.1824637480381170 Eh
Relativity type    : 
Basis              : AO
                                X                 Y                 Z
Electronic contribution:      1.455685980       0.117502502       0.167879012
Nuclear contribution   :     -1.420780941      -0.382243075      -0.637271306
                        -----------------------------------------
Total Dipole Moment    :      0.034905040      -0.264740573      -0.469392293
                        -----------------------------------------
Magnitude (a.u.)       :      0.540032460
Magnitude (Debye)      :      1.372653427



--------------------
Rotational spectrum 
--------------------
 
Rotational constants in cm-1:             1.081759             0.298143             0.261170 
Rotational constants in MHz :         32430.313553          8938.099016          7829.664975 

Dipole components along the rotational axes: 
x,y,z [a.u.] :     0.052555    -0.281251     0.458008 
x,y,z [Debye]:     0.133583    -0.714883     1.164163 

 

Dipole moment calculation done in   0.0 sec 

Maximum memory used throughout the entire PROP-calculation: 8.2 MB

--------------------------------
SUGGESTED CITATIONS FOR THIS RUN
--------------------------------

Below you find a list of papers that are relevant to this ORCA run
We neither can nor want to force you to cite these papers, but we appreciate if you do
You receive ORCA, which is the product of decades of hard work by many enthusiastic individuals, for free
The only thing we kindly ask in return is that you cite our papers,
We deeply appreciate it, if you show your appreciation for ORCA by not just citing the generic ORCA reference.

Please note that relegating all ORCA citations to the supporting information does *not* help us.
SI sections are not indexed - citations you put there will not count into any citation statistics
But we need these citations in order to attract the funding resources that allow us to do what we are doing

Therefore, if you are a happy ORCA user, please consider citing a few of the papers listed below in the main body of your paper

In addition to the list printed below, the program has created the file sp.bibtex that contains the list in bibtex format
You can import this file easily into all common literature databanks and citation aid programs


List of essential papers. We consider these as the minimum necessary citations

  1. Neese,F.
     Software update: the ORCA program system, version 5.0
     WIRES Comput. Molec. Sci., 2022 12(1)e1606
     doi.org/10.1002/wcms.1606

List of papers to cite with high priority. The work reported in these papers was absolutely
necessary for this run to complete.
Our perspective: the developers of density functionals and basis sets usually get cited in chemistry papers
Good! But without the algorithms to do something with them, the functionals or basis sets would not do anything.
Hence, in our opinion, the algorithm design and method developments papers are equally worthy of getting cited

  1. Neese,F.
     An improvement of the resolution of the identity approximation for the formation of the Coulomb matrix
     J. Comp. Chem., 2003 24(14)1740-1747
     doi.org/10.1002/jcc.10318
  2. Neese,F.; Wennmohs,F.; Hansen,A.; Becker,U.
     Efficient, approximate and parallel Hartree-Fock and hybrid DFT calculations. A 'chain-of-spheres' algorithm for the Hartree-Fock exchange
     Chem. Phys., 2009 356(1-3)98-109
     doi.org/10.1016/j.chemphys.2008.10.036
  3. Helmich-Paris,B.; de Souza,B.; Neese,F.; Izsák,R.
     An improved chain of spheres for exchange algorithm
     J. Chem. Phys., 2021 155 104109
     doi.org/doi: 10.1063/5.0058766.
  4. Neese,F.
     The SHARK Integral Generation and Digestion System
     J. Comp. Chem., 2022  1-16
     doi.org/10.1002/jcc.26942

List of suggested additional citations. These are papers that are important in the 'surrounding' of 
of this run, or papers that preceded the highly important papers. If you like your results we are grateful for a citation.

  1. Izsak,R.; Neese,F.
     An overlap fitted chain of spheres exchange method
     J. Chem. Phys., 2011 135 144105
     doi.org/10.1063/1.3646921
  2. Izsak,R.; Hansen,A.; Neese,F.
     The resolution of identity and chain of spheres approximations for the LPNO-CCSD singles Fock term
     Molec. Phys., 2012 110 2413-2417
     doi.org/10.1080/00268976.2012.687466
  3. Neese,F.
     The ORCA program system
     WIRES Comput. Molec. Sci., 2012 2(1)73-78
     doi.org/10.1002/wcms.81
  4. Izsak,R.; Neese,F.; Klopper,W.
     Robust fitting techniques in the chain of spheres approximation to the Fock exchange: The role of the complementary space
     J. Chem. Phys., 2013 139 
     doi.org/10.1063/1.4819264
  5. Neese,F.
     Software update: the ORCA program system, version 4.0
     WIRES Comput. Molec. Sci., 2018 8(1)1-6
     doi.org/10.1002/wcms.1327
  6. Neese,F.; Wennmohs,F.; Becker,U.; Riplinger,C.
     The ORCA quantum chemistry program package
     J. Chem. Phys., 2020 152 Art. No. L224108
     doi.org/10.1063/5.0004608

List of optional additional citations

  1. Neese,F.
     Approximate second-order SCF convergence for spin unrestricted wavefunctions
     Chem. Phys. Lett., 2000 325(1-3)93-98
     doi.org/10.1016/s0009-2614(00)00662-x

Timings for individual modules:

Sum of individual times          ...       15.101 sec (=   0.252 min)
Startup calculation              ...        0.391 sec (=   0.007 min)   2.6 %
SCF iterations                   ...       14.678 sec (=   0.245 min)  97.2 %
Property calculations            ...        0.033 sec (=   0.001 min)   0.2 %
                             ****ORCA TERMINATED NORMALLY****
TOTAL RUN TIME: 0 days 0 hours 0 minutes 15 seconds 145 msec
