14
 energy: -307.632207132393 gnorm: 0.028211598887 xtb: 6.7.1 (41059b4)
C           -2.25528211919938        0.28914121662813       -0.62933525227887
C           -1.30009439407611        0.51422167242787        0.54371210724093
C            0.00709188480314       -0.19257532308534        0.27065317121993
O            0.17645940857819       -1.38196886161239        0.31085158713775
O            0.97040511903001        0.67990648900128       -0.05273670492337
C            2.24142940919324        0.12671142655615       -0.36544120296194
H           -2.40320043026492       -0.77596040124385       -0.78967408794993
H           -3.21772653232586        0.74974409443223       -0.42177326918690
H           -1.85031218041992        0.72571545692158       -1.53941779058216
H           -1.73333742256809        0.09397630234164        1.45225408414353
H           -1.10868156849129        1.57743266709900        0.68414790810316
H            2.61885396446048       -0.45439631180136        0.47831093151195
H            2.89713773498380        0.96763009822878       -0.57548174605501
H            2.16555070585961       -0.52827691343409       -1.23574632704759
14
 energy: -307.632908924657 gnorm: 0.010607915516 xtb: 6.7.1 (41059b4)
C           -2.25921862895846        0.28851542606450       -0.63248326997454
C           -1.30220567343772        0.51664378621917        0.54421959693529
C            0.00936384752750       -0.18498643259654        0.28569462142348
O            0.17633761260316       -1.38250137113999        0.31202904615532
O            0.97588156422281        0.69470006377557       -0.04611266705771
C            2.24843996369076        0.12190373439653       -0.36718395479304
H           -2.40971321567056       -0.78029698631489       -0.79701322537837
H           -3.22787846718619        0.74878429778151       -0.42838387745222
H           -1.85807207226944        0.72703113881655       -1.54924110196954
H           -1.72835239965206        0.08994159923615        1.45583946166339
H           -1.12340690005387        1.58273314778297        0.69758727981662
H            2.63161138028589       -0.46005965586405        0.47554896641667
H            2.90680557698466        0.96291862525500       -0.58148855813482
H            2.16870014590615       -0.53402560995845       -1.23868924279674
14
 energy: -307.633045337609 gnorm: 0.005160146591 xtb: 6.7.1 (41059b4)
C           -2.26341758292567        0.28665982368323       -0.63231428563367
C           -1.30369034928359        0.51804180846916        0.54365895734100
C            0.00753045849160       -0.17803259820062        0.27577593349674
O            0.17813706226112       -1.37651369181349        0.31153375994142
O            0.98170494903575        0.70701845710523       -0.04561281228384
C            2.25686679806055        0.11800348849750       -0.36568705421505
H           -2.41466385620486       -0.78383049045965       -0.79855694865944
H           -3.23430221560981        0.74696998967612       -0.42723308720467
H           -1.86591304474807        0.72660918814491       -1.55281007600136
H           -1.72316562214400        0.08600406242870        1.45784963663244
H           -1.13528146382852        1.58610198816916        0.70431468556112
H            2.63531428657073       -0.46556232200868        0.47844111449426
H            2.91967783837123        0.95677644386952       -0.58114911747775
H            2.16949473833515       -0.53694384844662       -1.23788710635523
14
 energy: -307.633071616106 gnorm: 0.001746330675 xtb: 6.7.1 (41059b4)
C           -2.26485521880618        0.28642300157914       -0.63237586826356
C           -1.30378425704869        0.51767866029724        0.54213573064208
C            0.00971468186081       -0.17480267858190        0.27888998381748
O            0.17952378997369       -1.37236166531668        0.30794207244067
O            0.98468514119996        0.71107510254721       -0.04321242165238
C            2.25949481981085        0.11688961152098       -0.36577274449814
H           -2.41550093208031       -0.78387951588493       -0.79768016418557
H           -3.23553009019861        0.74631834008685       -0.42663329532387
H           -1.86803467500362        0.72616610560805       -1.55280681339275
H           -1.72309736662183        0.08286932254904        1.45499464817275
H           -1.13903202444930        1.58584346207719        0.70476693040015
H            2.63488118902817       -0.46598344426154        0.47965190607778
H            2.92400770343124        0.95354329685966       -0.58315859121498
H            2.16581894050698       -0.53847722788074       -1.23641751984796
14
 energy: -307.633077693142 gnorm: 0.001072542758 xtb: 6.7.1 (41059b4)
C           -2.26541969208914        0.28582544308219       -0.63193604383708
C           -1.30339402624421        0.51828159831223        0.54090361552009
C            0.01014969422358       -0.17292897151024        0.27566868668048
O            0.18003159458174       -1.36965004934062        0.30141709051424
O            0.98606341717949        0.71353233548678       -0.04200140113372
C            2.26063411762059        0.11653321968855       -0.36440566574106
H           -2.41588550401679       -0.78405507980253       -0.79556934919606
H           -3.23491283189673        0.74542836020730       -0.42377843323798
H           -1.87064471571846        0.72474894517268       -1.55274481479613
H           -1.72103557846333        0.08147212107790        1.45319476353511
H           -1.14008914594865        1.58615137376514        0.70364008657551
H            2.63308334294647       -0.46552770738111        0.48224288705494
H            2.92647348051737        0.95109969461589       -0.58307209462658
H            2.16323745413381       -0.53960874264178       -1.23323481265044
14
 energy: -307.633080816956 gnorm: 0.000624725501 xtb: 6.7.1 (41059b4)
C           -2.26647420828081        0.28549570509244       -0.63134226328221
C           -1.30293383307681        0.51893320584179        0.54008826927041
C            0.01027978130137       -0.17233380249664        0.27297784583357
O            0.17928021939715       -1.36949478300949        0.29526060429467
O            0.98700976049127        0.71426487656760       -0.04059238687499
C            2.26124912107818        0.11654370990186       -0.36295287654776
H           -2.41677673831085       -0.78462009968997       -0.79383238899298
H           -3.23584409077230        0.74496840406771       -0.42224831076008
H           -1.87302287649377        0.72371177890777       -1.55305439195567
H           -1.71923522806402        0.08203626549231        1.45292932554636
H           -1.13961349107193        1.58678687774704        0.70247373754495
H            2.63366071389114       -0.46493210857231        0.48412808486508
H            2.92743851992689        0.95050021301160       -0.58258760281137
H            2.16327404503270       -0.54055755488510       -1.23092252797851
14
 energy: -307.633080816956 gnorm: 0.000624725501 xtb: 6.7.1 (41059b4)
C           -2.26647420828081        0.28549570509244       -0.63134226328221
C           -1.30293383307681        0.51893320584179        0.54008826927041
C            0.01027978130137       -0.17233380249664        0.27297784583357
O            0.17928021939715       -1.36949478300949        0.29526060429467
O            0.98700976049127        0.71426487656760       -0.04059238687499
C            2.26124912107818        0.11654370990186       -0.36295287654776
H           -2.41677673831085       -0.78462009968997       -0.79383238899298
H           -3.23584409077230        0.74496840406771       -0.42224831076008
H           -1.87302287649377        0.72371177890777       -1.55305439195567
H           -1.71923522806402        0.08203626549231        1.45292932554636
H           -1.13961349107193        1.58678687774704        0.70247373754495
H            2.63366071389114       -0.46493210857231        0.48412808486508
H            2.92743851992689        0.95050021301160       -0.58258760281137
H            2.16327404503270       -0.54055755488510       -1.23092252797851
