
                                 *****************
                                 * O   R   C   A *
                                 *****************

                                            #,                                       
                                            ###                                      
                                            ####                                     
                                            #####                                    
                                            ######                                   
                                           ########,                                 
                                     ,,################,,,,,                         
                               ,,#################################,,                 
                          ,,##########################################,,             
                       ,#########################################, ''#####,          
                    ,#############################################,,   '####,        
                  ,##################################################,,,,####,       
                ,###########''''           ''''###############################       
              ,#####''   ,,,,##########,,,,          '''####'''          '####       
            ,##' ,,,,###########################,,,                        '##       
           ' ,,###''''                  '''############,,,                           
         ,,##''                                '''############,,,,        ,,,,,,###''
      ,#''                                            '''#######################'''  
     '                                                          ''''####''''         
             ,#######,   #######,   ,#######,      ##                                
            ,#'     '#,  ##    ##  ,#'     '#,    #''#        ,####,   ,####,        
            ##       ##  ##   ,#'  ##            #'  '#       #'       #'  '#        
            ##       ##  #######   ##           ,######,      #####,   #    #        
            '#,     ,#'  ##    ##  '#,     ,#' ,#      #,     #,   #   #,  ,#        
             '#######'   ##     ##  '#######'  #'      '#     '####' # '####'        



                #########################################################
                #                        -***-                          #
                #          Department of theory and spectroscopy        #
                #                                                       #
                #                      Frank Neese                      #
                #                                                       #
                #     Directorship, Architecture, Infrastructure        #
                #                    SHARK, DRIVERS                     #
                #        Core code/Algorithms in most modules           #
                #                                                       #
                #        Max Planck Institute fuer Kohlenforschung      #
                #                Kaiser Wilhelm Platz 1                 #
                #                 D-45470 Muelheim/Ruhr                 #
                #                      Germany                          #
                #                                                       #
                #                  All rights reserved                  #
                #                        -***-                          #
                #########################################################


                         Program Version 6.0.1  -  RELEASE   -


 With contributions from (in alphabetic order):
[Max-Planck-Institut fuer Kohlenforschung]                               
  Daniel Aravena         : Magnetic Suceptibility                        
  Michael Atanasov       : Ab Initio Ligand Field Theory (pilot matlab implementation)
  Alexander A. Auer      : GIAO ZORA, VPT2 properties, NMR spectrum      
  Ute Becker             : All parallelization in ORCA, NUMFREQ, NUMCALC 
  Giovanni Bistoni       : ED, misc. LED, open-shell LED, HFLD           
  Martin Brehm           : Molecular dynamics                            
  Dmytro Bykov           : pre 5.0 version of the SCF Hessian            
  Marcos Casanova-Páez   : Triplet and SCS-CIS(D). UHF-(DLPNO)-IP/EA/STEOM-CCSD. UHF-CVS-IP/STEOM-CCSD   
  Vijay G. Chilkuri      : MRCI spin determinant printing, contributions to CSF-ICE 
  Pauline Colinet        : FMM embedding                                 
  Dipayan Datta          : RHF DLPNO-CCSD density                        
  Achintya Kumar Dutta   : EOM-CC, STEOM-CC                              
  Nicolas Foglia         : Exact transition moments, OPA infrastructure, MCD improvements    
  Dmitry Ganyushin       : Spin-Orbit,Spin-Spin,Magnetic field MRCI      
  Miquel Garcia-Rates    : C-PCM and meta-GGA Hessian, CCSD/C-PCM, Gaussian charge scheme 
  Tiago L. C. Gouveia    : GS-ROHF, GS-ROCIS                             
  Yang Guo               : DLPNO-NEVPT2, F12-NEVPT2, CIM, IAO-localization        
  Andreas Hansen         : Spin unrestricted coupled pair/coupled cluster methods 
  Ingolf Harden          : AUTO-CI MPn and infrastructure                
  Benjamin Helmich-Paris : MC-RPA, TRAH-(SCF,CASSCF), AVAS, COSX integrals, SCF dyn. polar. 
  Lee Huntington         : MR-EOM, pCC                                   
  Robert Izsak           : Overlap fitted RIJCOSX, COSX-SCS-MP3, EOM     
  Riya Kayal             : Wick's Theorem for AUTO-CI, AUTO-CI UHF-CCSDT 
  Emily Kempfer          : AUTO-CI, RHF CISDT and CCSDT                  
  Christian Kollmar      : KDIIS, OOCD, Brueckner-CCSD(T), CCSD density, CASPT2, CASPT2-K, improved NEVPT2 
  Axel Koslowski         : Symmetry handling                             
  Simone Kossmann        : meta-GGA functionals, TD-DFT gradient, OOMP2, (MP2 Hessian; deprecated post 5.0) 
  Lucas Lang             : DCDCAS                                        
  Marvin Lechner         : AUTO-CI (C++ implementation), FIC-MRCC        
  Spencer Leger          : CASSCF response                               
  Dagmar Lenk            : GEPOL surface, SMD, ORCA-2-JSON               
  Dimitrios Liakos       : Extrapolation schemes; Compound Job, initial MDCI parallelization 
  Dimitrios Manganas     : Further ROCIS development; embedding schemes. LFT, Crystal Embedding 
  Dimitrios Pantazis     : SARC Basis sets                               
  Anastasios Papadopoulos: AUTO-CI, single reference methods and gradients 
  Taras Petrenko         : pre 6.0 DFT Hessian and TD-DFT gradient, (ASA, deprecated), ECA, 1-Electron XAS/XES, NRVS 
  Peter Pinski           : DLPNO-MP2, DLPNO-MP2 Gradient                 
  Christoph Reimann      : Effective Core Potentials                     
  Marius Retegan         : Local ZFS, SOC                                
  Christoph Riplinger    : Optimizer, TS searches, QM/MM, DLPNO-CCSD(T), (RO)-DLPNO pert. Triples 
  Michael Roemelt        : Original ROCIS implementation                 
  Masaaki Saitow         : Open-shell DLPNO-CCSD energy and density      
  Barbara Sandhoefer     : DKH picture change effects                    
  Kantharuban Sivalingam : CASSCF convergence/infrastructure, NEVPT2 and variants, FIC-MRCI 
  Bernardo de Souza      : ESD, SOC TD-DFT                               
  Georgi L. Stoychev     : AutoAux, RI-MP2 NMR, DLPNO-MP2 response, X2C  
  Van Anh Tran           : RI-MP2 g-tensors                              
  Willem Van den Heuvel  : Paramagnetic NMR                              
  Zikuan Wang            : NOTCH, Electric field optimization            
  Frank Wennmohs         : Technical directorship and infrastructure     
  Hang Xu                : AUTO-CI-Response properties                   
                                                                         
[FACCTs GmbH]                                                            
  Markus Bursch, Miquel Garcia-Rates, Christoph Riplinger, Bernardo de Souza, Georgi L. Stoychev 
                                                                 
  APM, Basis sets (HGBS, AHGBS, def-TZVP (Ac-Lr), def2-XVPD (La-Lu)), CI-OPT, improved COSX, DLPNO-Multilevel,           
  DOCKER, DRACO, updates on ESD, GOAT, IRC, LR-CPCM, MBIS, meta-GGA TD-DFT gradient, ML-optimized integration grids, 
  MM, NACMEs, nearIR, NEB, NEB-TS, NL-DFT gradient (VV10), 2- and 3-layer-ONIOM, interface openCOSMO-RS, QMMM,   
  Crystal-QMMM, SF, symmetry and pop. for TD-DFT, r2SCAN hybrids, SOLVATOR                                   
                                                                         
[Other institutions]                                                     
  V. Asgeirsson          : NEB                                           
  Christoph Bannwarth    : sTDA-DFT, sTD-DFT, PBEh-3c, B97-3c, D3        
  Sebastian Ehlert       : rSCAN, r2SCAN, r2SCAN-3c, D4, dhf basis sets  
  Marvin Friede          : D4 for Fr, Ra, Ac-Lr                          
  Lars Goerigk           : TD-DFT with DH, B97 family of functionals     
  Stefan Grimme          : VdW corrections, initial TS optimization, DFT functionals, gCP, sTDA/sTD-DF 
  Waldemar Hujo          : DFT-NL                                        
  H. Jonsson             : NEB                                           
  Holger Kruse           : gCP                                           
  Marcel Mueller         : wB97X-3c, vDZP basis set                      
  Hagen Neugebauer       : wr2SCAN                                       
  Tobias Risthaus        : range-separated hybrid DFT                    
  Lukas Wittmann         : regularized MP2, r2SCAN double-hybrids, wr2SCAN        
                                                                         
We gratefully acknowledge several colleagues who have allowed us to      
interface, adapt or use parts of their codes:                            
  Ed Valeev, F. Pavosevic, A. Kumar             : LibInt (2-el integral package), F12 methods 
  Garnet Chan, S. Sharma, J. Yang, R. Olivares  : DMRG                   
  Ulf Ekstrom                                   : XCFun DFT Library      
  Mihaly Kallay                                 : mrcc  (arbitrary order and MRCC methods)
  Frank Weinhold                                : gennbo (NPA and NBO analysis)           
  Simon Mueller                                 : openCOSMO-RS                            
  Christopher J. Cramer and Donald G. Truhlar   : smd solvation model                     
  S Lehtola, MJT Oliveira, MAL Marques          : LibXC Library                           
  Liviu Ungur et al                             : ANISO software                          


 Your calculation uses the libint2 library for the computation of 2-el integrals
 For citations please refer to: http://libint.valeyev.net

 Your ORCA version has been built with support for libXC version: 6.2.2
 For citations please refer to: https://libxc.gitlab.io

 This ORCA versions uses:
   CBLAS   interface :  Fast vector & matrix operations
   LAPACKE interface :  Fast linear algebra routines
   SCALAPACK package :  Parallel linear algebra routines
   Shared memory     :  Shared parallel matrices
   BLAS/LAPACK       :  OpenBLAS 0.3.27  USE64BITINT DYNAMIC_ARCH NO_AFFINITY Zen SINGLE_THREADED
        Core in use  :  Zen
   Copyright (c) 2011-2014, The OpenBLAS Project


Your calculation utilizes the geometrical counterpoise correction gCP
Please cite in your paper:
H.Kruse, S. Grimme J.Chem.Phys., 136, (2012), 154101 
   

Your calculation utilizes the DFT-NL dispersion correction.
Cite in your paper:
Vydrov, O. A.; Van Voorhis, T. J. Chem. Phys. 2010, 133, 244103
Hujo, W.; Grimme, S. J. Chem. Theory Comput. 2011, 7, 3866 
   

================================================================================

----- Orbital basis set information -----
Your calculation utilizes the basis: def2-TZVP
   F. Weigend and R. Ahlrichs, Phys. Chem. Chem. Phys. 7, 3297 (2005).

----- AuxJ basis set information -----
Your calculation utilizes the auxiliary basis: def2/J
   F. Weigend, Phys. Chem. Chem. Phys. 8, 1057 (2006).

================================================================================
                                        WARNINGS
                       Please study these warnings very carefully!
================================================================================


================================================================================
                                       INPUT FILE
================================================================================
NAME = sp.inp
|  1> ! wb97x-v def2-tzvp def2/J RIJCOSX DEFGRID2 scfconv7 GCP(DFT/TZ) printgap
|  2> %output
|  3>     printlevel normal
|  4> end
|  5> * xyz 0 1
|  6> C -1.4276578628330747 -0.9992847290198358 0.00045540009880082756
|  7> S -0.0018201404526207142 0.1251410270530429 -0.0006620365225341324
|  8> O -0.011463216800324342 0.8544408508162805 1.2790430919449336
|  9> O -0.011567989805694118 0.8516853199855691 -1.2820119338239127
| 10> C 1.4417574903588968 -1.0036911238151622 0.0001796567120474921
| 11> H -1.4048328224825533 -1.6104233347149883 -0.9041544794298076
| 12> H -1.403513282175724 -1.6103066398223373 0.9051005491018703
| 13> H -2.30936293423679 -0.35447356082572123 0.0010483443807022769
| 14> H 2.0121667965270276 -0.8035401238025044 0.9080323040142747
| 15> H 1.0997621288326571 -2.0404871958155937 -0.014619406305988823
| 16> H 2.02706151850405 -0.7836179684856331 -0.8935287316490729
| 17> *
| 18> 
| 19>                          ****END OF INPUT****
================================================================================

                       ****************************
                       * Single Point Calculation *
                       ****************************

---------------------------------
CARTESIAN COORDINATES (ANGSTROEM)
---------------------------------
  C     -1.427658   -0.999285    0.000455
  S     -0.001820    0.125141   -0.000662
  O     -0.011463    0.854441    1.279043
  O     -0.011568    0.851685   -1.282012
  C      1.441757   -1.003691    0.000180
  H     -1.404833   -1.610423   -0.904154
  H     -1.403513   -1.610307    0.905101
  H     -2.309363   -0.354474    0.001048
  H      2.012167   -0.803540    0.908032
  H      1.099762   -2.040487   -0.014619
  H      2.027062   -0.783618   -0.893529

----------------------------
CARTESIAN COORDINATES (A.U.)
----------------------------
  NO LB      ZA    FRAG     MASS         X           Y           Z
   0 C     6.0000    0    12.011   -2.697882   -1.888374    0.000861
   1 S    16.0000    0    32.060   -0.003440    0.236482   -0.001251
   2 O     8.0000    0    15.999   -0.021662    1.614659    2.417041
   3 O     8.0000    0    15.999   -0.021860    1.609452   -2.422651
   4 C     6.0000    0    12.011    2.724527   -1.896701    0.000340
   5 H     1.0000    0     1.008   -2.654749   -3.043259   -1.708604
   6 H     1.0000    0     1.008   -2.652256   -3.043039    1.710392
   7 H     1.0000    0     1.008   -4.364063   -0.669858    0.001981
   8 H     1.0000    0     1.008    3.802444   -1.518471    1.715932
   9 H     1.0000    0     1.008    2.078249   -3.855962   -0.027627
  10 H     1.0000    0     1.008    3.830591   -1.480823   -1.688525

--------------------------------
INTERNAL COORDINATES (ANGSTROEM)
--------------------------------
 C      0   0   0     0.000000000000     0.00000000     0.00000000
 S      1   0   0     1.815860055221     0.00000000     0.00000000
 O      2   1   0     1.472961790980   107.51276985     0.00000000
 O      2   1   3     1.473030613896   107.50325608   228.55520978
 C      2   1   3     1.832533522056   103.71613076   114.29014532
 H      1   2   3     1.091938831610   109.24727769   184.30724416
 H      1   2   3     1.091931125058   109.24769627   306.99482747
 H      1   2   3     1.092330365389   105.56158951    65.65169407
 H      5   2   1     1.090698688265   107.41658316   240.75907100
 H      5   2   1     1.091845197126   109.76646582     0.87742322
 H      5   2   1     1.090746387794   107.34060453   120.89286768

---------------------------
INTERNAL COORDINATES (A.U.)
---------------------------
 C      0   0   0     0.000000000000     0.00000000     0.00000000
 S      1   0   0     3.431478201895     0.00000000     0.00000000
 O      2   1   0     2.783494390683   107.51276985     0.00000000
 O      2   1   3     2.783624447145   107.50325608   228.55520978
 C      2   1   3     3.462986487917   103.71613076   114.29014532
 H      1   2   3     2.063465346738   109.24727769   184.30724416
 H      1   2   3     2.063450783464   109.24769627   306.99482747
 H      1   2   3     2.064205238350   105.56158951    65.65169407
 H      5   2   1     2.061121815448   107.41658316   240.75907100
 H      5   2   1     2.063288403205   109.76646582     0.87742322
 H      5   2   1     2.061211954495   107.34060453   120.89286768

---------------------
BASIS SET INFORMATION
---------------------
There are 4 groups of distinct atoms

 Group   1 Type C   : 11s6p2d1f contracted to 5s3p2d1f pattern {62111/411/11/1}
 Group   2 Type S   : 14s9p3d1f contracted to 5s5p2d1f pattern {73211/51111/21/1}
 Group   3 Type O   : 11s6p2d1f contracted to 5s3p2d1f pattern {62111/411/11/1}
 Group   4 Type H   : 5s1p contracted to 3s1p pattern {311/1}

Atom   0C    basis set group =>   1
Atom   1S    basis set group =>   2
Atom   2O    basis set group =>   3
Atom   3O    basis set group =>   3
Atom   4C    basis set group =>   1
Atom   5H    basis set group =>   4
Atom   6H    basis set group =>   4
Atom   7H    basis set group =>   4
Atom   8H    basis set group =>   4
Atom   9H    basis set group =>   4
Atom  10H    basis set group =>   4
---------------------------------
AUXILIARY/J BASIS SET INFORMATION
---------------------------------
There are 4 groups of distinct atoms

 Group   1 Type C   : 12s5p4d2f1g contracted to 6s4p3d1f1g pattern {711111/2111/211/2/1}
 Group   2 Type S   : 14s5p5d2f1g contracted to 8s4p3d1f1g pattern {71111111/2111/311/2/1}
 Group   3 Type O   : 12s5p4d2f1g contracted to 6s4p3d1f1g pattern {711111/2111/211/2/1}
 Group   4 Type H   : 5s2p1d contracted to 3s1p1d pattern {311/2/1}

Atom   0C    basis set group =>   1
Atom   1S    basis set group =>   2
Atom   2O    basis set group =>   3
Atom   3O    basis set group =>   3
Atom   4C    basis set group =>   1
Atom   5H    basis set group =>   4
Atom   6H    basis set group =>   4
Atom   7H    basis set group =>   4
Atom   8H    basis set group =>   4
Atom   9H    basis set group =>   4
Atom  10H    basis set group =>   4

Checking for AutoStart:
The File: sp.gbw exists
Trying to determine its content:
     ... Fine, the file contains calculation information
     ... Fine, the calculation information was read
     ... Fine, the file contains a basis set
     ... Fine, the basis set was read
     ... Fine, the file contains a geometry
     ... Fine, the geometry was read
     ... Fine, the file contains a set of orbitals
     ... Fine, the orbitals can be read
     => possible old guess file was deleted
     => GBW file was renamed to GES file
     => GES file is set as startup file
     => Guess is set to MORead
     ... now leaving AutoStart

------------------------------------------------------------------------------
                             ORCA STARTUP CALCULATIONS
                           -- RI-GTO INTEGRALS CHOSEN --
------------------------------------------------------------------------------
------------------------------------------------------------------------------
                   ___                                                        
                  /   \      - P O W E R E D   B Y -                         
                 /     \                                                     
                 |  |  |   _    _      __       _____    __    __             
                 |  |  |  | |  | |    /  \     |  _  \  |  |  /  |          
                  \  \/   | |  | |   /    \    | | | |  |  | /  /          
                 / \  \   | |__| |  /  /\  \   | |_| |  |  |/  /          
                |  |  |   |  __  | /  /__\  \  |    /   |      \           
                |  |  |   | |  | | |   __   |  |    \   |  |\   \          
                \     /   | |  | | |  |  |  |  | |\  \  |  | \   \       
                 \___/    |_|  |_| |__|  |__|  |_| \__\ |__|  \__/        
                                                                              
                      - O R C A' S   B I G   F R I E N D -                    
                                      &                                       
                       - I N T E G R A L  F E E D E R -                       
                                                                              
 v1 FN, 2020, v2 2021, v3 2022-2024                                           
------------------------------------------------------------------------------


----------------------
SHARK INTEGRAL PACKAGE
----------------------

Number of atoms                             ...     11
Number of basis functions                   ...    197
Number of shells                            ...     81
Maximum angular momentum                    ...      3
Integral batch strategy                     ... SHARK/LIBINT Hybrid
RI-J (if used) integral strategy            ... SPLIT-RIJ (Revised 2003 algorithm where possible)
Printlevel                                  ...      1
Contraction scheme used                     ... SEGMENTED contraction
Prescreening option                         ... SCHWARTZ
   Thresh                                   ... 3.000e-11
   Tcut                                     ... 1.000e-12
   Tpresel                                  ... 1.000e-12 
Coulomb Range Separation                    ... NOT USED
Exchange Range Separation                   ... Long Range
   Mu parameter                             ... 3.000e-01
   Scaling (regular/separated)              ... 1.670e-01 8.330e-01
Multipole approximations                    ... NOT USED
Finite Nucleus Model                        ... NOT USED
CABS basis                                  ... NOT available
Auxiliary Coulomb fitting basis             ... AVAILABLE
   # of basis functions in Aux-J            ...    313
   # of shells in Aux-J                     ...    107
   Maximum angular momentum in Aux-J        ...      4
Auxiliary J/K fitting basis                 ... NOT available
Auxiliary Correlation fitting basis         ... NOT available
Auxiliary 'external' fitting basis          ... NOT available

Checking pre-screening integrals            ... done (  0.0 sec) Dimension = 81
Check shell pair data                       ... done (  0.0 sec)
Shell pair information
Shell pair cut-off parameter TPreSel        ...   1.0e-12
Total number of shell pairs                 ...      3321
Shell pairs after pre-screening             ...      3192
Total number of primitive shell pairs       ...     10438
Primitive shell pairs kept                  ...      7761
          la=0 lb=0:    869 shell pairs
          la=1 lb=0:    959 shell pairs
          la=1 lb=1:    276 shell pairs
          la=2 lb=0:    412 shell pairs
          la=2 lb=1:    230 shell pairs
          la=2 lb=2:     55 shell pairs
          la=3 lb=0:    211 shell pairs
          la=3 lb=1:    115 shell pairs
          la=3 lb=2:     50 shell pairs
          la=3 lb=3:     15 shell pairs

Calculating one electron integrals          ... done (  0.0 sec)
Calculating RI/J V-Matrix + Cholesky decomp.... done (  0.0 sec)
Calculating Nuclear repulsion               ... done (  0.0 sec) ENN=    269.627584857867 Eh

Diagonalization of the overlap matrix:
Smallest eigenvalue                        ... 1.129e-03
Time for diagonalization                   ...    0.002 sec
Threshold for overlap eigenvalues          ... 1.000e-07
Number of eigenvalues below threshold      ... 0
Time for construction of square roots      ...    0.001 sec
Total time needed                          ...    0.004 sec

-------------------
DFT GRID GENERATION
-------------------

General Integration Accuracy     IntAcc      ... 4.388
Radial Grid Type                 RadialGrid  ... OptM3 with GC (2021)
Angular Grid (max. ang.)         AngularGrid ... 4 (Lebedev-302)
Angular grid pruning method      GridPruning ... 4 (adaptive)
Weight generation scheme         WeightScheme... mBecke (2022)
Basis function cutoff            BFCut       ... 1.0000e-11
Integration weight cutoff        WCut        ... 1.0000e-14
Partially contracted basis set               ... off
Rotationally invariant grid construction     ... off
Angular grids for H and He will be reduced by one unit

Total number of grid points                  ...    51079
Total number of batches                      ...      802
Average number of points per batch           ...       63
Average number of grid points per atom       ...     4644

--------------------
COSX GRID GENERATION
--------------------

GRIDX 1
-------
General Integration Accuracy     IntAcc      ... 3.816
Radial Grid Type                 RadialGrid  ... OptM3 with GC (2021)
Angular Grid (max. ang.)         AngularGrid ... 1 (Lebedev-50)
Angular grid pruning method      GridPruning ... 4 (adaptive)
Weight generation scheme         WeightScheme... mBecke (2022)
Basis function cutoff            BFCut       ... 1.0000e-11
Integration weight cutoff        WCut        ... 1.0000e-14
Partially contracted basis set               ... on
Rotationally invariant grid construction     ... off
Angular grids for H and He will be reduced by one unit

Total number of grid points                  ...     7561
Total number of batches                      ...       65
Average number of points per batch           ...      116
Average number of grid points per atom       ...      687
UseSFitting                                  ... on

GRIDX 2
-------
General Integration Accuracy     IntAcc      ... 4.020
Radial Grid Type                 RadialGrid  ... OptM3 with GC (2021)
Angular Grid (max. ang.)         AngularGrid ... 2 (Lebedev-110)
Angular grid pruning method      GridPruning ... 4 (adaptive)
Weight generation scheme         WeightScheme... mBecke (2022)
Basis function cutoff            BFCut       ... 1.0000e-11
Integration weight cutoff        WCut        ... 1.0000e-14
Partially contracted basis set               ... on
Rotationally invariant grid construction     ... off
Angular grids for H and He will be reduced by one unit

Total number of grid points                  ...    13949
Total number of batches                      ...      113
Average number of points per batch           ...      123
Average number of grid points per atom       ...     1268
UseSFitting                                  ... on

GRIDX 3
-------
General Integration Accuracy     IntAcc      ... 4.338
Radial Grid Type                 RadialGrid  ... OptM3 with GC (2021)
Angular Grid (max. ang.)         AngularGrid ... 3 (Lebedev-194)
Angular grid pruning method      GridPruning ... 4 (adaptive)
Weight generation scheme         WeightScheme... mBecke (2022)
Basis function cutoff            BFCut       ... 1.0000e-11
Integration weight cutoff        WCut        ... 1.0000e-14
Partially contracted basis set               ... on
Rotationally invariant grid construction     ... off
Angular grids for H and He will be reduced by one unit

Total number of grid points                  ...    31273
Total number of batches                      ...      250
Average number of points per batch           ...      125
Average number of grid points per atom       ...     2843
UseSFitting                                  ... on
Initializing property integral containers    ... done (  0.0 sec)

SHARK setup successfully completed in   0.6 seconds

Maximum memory used throughout the entire STARTUP-calculation: 28.3 MB
-------------------------------------------------------------------------------
                                 ORCA GUESS
                   Start orbitals & Density for SCF / CASSCF
-------------------------------------------------------------------------------

------------
SCF SETTINGS
------------
Hamiltonian:
 Density Functional     Method          .... DFT(GTOs)
 Exchange Functional    Exchange        .... WB97X-V
 Correlation Functional Correlation     .... WB97X-V
 Gradients option       PostSCFGGA      .... off
 Hybrid DFT is turned on
   Fraction HF Exchange ScalHFX         ....  0.167000
   Scaling of DF-GGA-X  ScalDFX         ....  0.000000
   Scaling of DF-GGA-C  ScalDFC         ....  1.000000
   Scaling of DF-LDA-C  ScalLDAC        ....  1.000000
   Perturbative correction              ....  0.000000
 Long-range corrected/Screened/Range-Separated Hybrid DFT is turned on
   Amount of maximum screened exact exchange              ....  0.833000
   Range separation parameter mu (erf(mu*r12)/r12)        ....  0.300000
   NL short-range parameter             ....  6.000000
   NL long-range parameter              ....  0.010000
 RI-approximation to the Coulomb term is turned on
   Number of AuxJ basis functions       .... 313
   RIJ-COSX (HFX calculated with COS-X)).... on


General Settings:
 Integral files         IntName         .... sp
 Hartree-Fock type      HFTyp           .... RHF
 Total Charge           Charge          ....    0
 Multiplicity           Mult            ....    1
 Number of Electrons    NEL             ....   50
 Basis Dimension        Dim             ....  197
 Nuclear Repulsion      ENuc            ....    269.6275848579 Eh

Convergence Acceleration:
 AO-DIIS                CNVDIIS         .... on
   Start iteration      DIISMaxIt       ....    12
   Startup error        DIISStart       ....  0.200000
   # of expansion vecs  DIISMaxEq       ....     5
   Bias factor          DIISBfac        ....   1.050
   Max. coefficient     DIISMaxC        ....  10.000
 MO-DIIS                CNVKDIIS        .... off
 Trust-Rad. Augm. Hess. CNVTRAH         .... auto
   Auto Start mean grad. ratio tolernc. ....  1.125000
   Auto Start start iteration           ....     1
   Auto Start num. interpolation iter.  ....    10
   Max. Number of Micro iterations      ....    24
   Max. Number of Macro iterations      .... Maxiter - #DIIS iter
   Number of Davidson start vectors     ....     2
   Converg. threshold    (grad. norm)   ....   1.000e-04
   Grad. Scal. Fac. for Micro threshold ....   0.100
   Minimum threshold for Micro iter.    ....   1.000e-02
   NR start threshold (gradient norm)   ....   1.000e-04
   Initial trust radius                 ....   0.400
   Minimum AH scaling param. (alpha)    ....   1.000
   Maximum AH scaling param. (alpha)    .... 1000.000
   Quad. conv. algorithm                .... NR
   White noise on init. David. guess    .... on
   Maximum white noise                  ....   0.010
   Pseudo random numbers                .... off
   Inactive MOs                         .... canonical
   Orbital update algorithm             .... Taylor
   Preconditioner                       .... Diag
   Full preconditioner red. dimension   ....   250
 SOSCF                  CNVSOSCF        .... on
   Start iteration      SOSCFMaxIt      ....   150
   Startup grad/error   SOSCFStart      ....  0.003300
   Hessian update       SOSCFHessUp     .... L-BFGS
 Level Shifting         CNVShift        .... on
   Level shift para.    LevelShift      ....    0.2500
   Turn off err/grad.   ShiftErr        ....    0.0010
 Zerner damping         CNVZerner       .... off
 Static damping         CNVDamp         .... on
   Fraction old density DampFac         ....    0.7000
   Max. Damping (<1)    DampMax         ....    0.9800
   Min. Damping (>=0)   DampMin         ....    0.0000
   Turn off err/grad.   DampErr         ....    0.1000

SCF Procedure:
 Maximum # iterations   MaxIter         ....   125
 SCF integral mode      SCFMode         .... Direct
   Integral package                     .... SHARK and LIBINT hybrid scheme
 Reset frequency        DirectResetFreq ....    20
 Integral Threshold     Thresh          ....  3.000e-11 Eh
 Primitive CutOff       TCut            ....  1.000e-12 Eh

Convergence Tolerance:
 Convergence Check Mode ConvCheckMode   .... Total+1el-Energy
 Convergence forced     ConvForced      .... 0
 Energy Change          TolE            ....  1.000e-07 Eh
 1-El. energy change                    ....  1.000e-04 Eh
 Orbital Gradient       TolG            ....  1.000e-04
 Orbital Rotation angle TolX            ....  1.000e-04
 DIIS Error             TolErr          ....  1.000e-07

---------------------
INITIAL GUESS: MOREAD
---------------------
Guess MOs are being read from file: sp.ges
Input Geometry matches current geometry (good)
Atom 0: N(Shells)= 11 and 9 - projection required
Input basis set needs projection
NBasis(read)= 143
NBasis(calc)= 197
Basis set overlap was calculated
Using GuessMode=FMatrix for the initial guess
C*T matrix was formed
Effective Fockian was calculated
Effective Fockian was diagonalized
Initial density was built
                      ------------------
                      INITIAL GUESS DONE (   0.0 sec)
                      ------------------
             **** ENERGY FILE WAS UPDATED (sp.en.tmp) ****
Finished Guess after   0.0 sec
Maximum memory used throughout the entire GUESS-calculation: 16.4 MB

-------------------------------------------------------------------------------------------
                                      ORCA LEAN-SCF
                              memory conserving SCF solver
-------------------------------------------------------------------------------------------

----------------------------------------D-I-I-S--------------------------------------------
Iteration    Energy (Eh)           Delta-E    RMSDP     MaxDP     DIISErr   Damp  Time(sec)
-------------------------------------------------------------------------------------------
               ***  Starting incremental Fock matrix formation  ***
    1    -628.5831089397993310     0.00e+00  1.13e-03  2.43e-02  5.16e-02  0.700   3.6
    2    -628.5922661318636528    -9.16e-03  9.37e-04  2.04e-02  3.86e-02  0.700   1.9
                               ***Turning on AO-DIIS***
    3    -628.5991259251078418    -6.86e-03  7.60e-04  1.61e-02  2.82e-02  0.700   1.9
    4    -628.6041612759494228    -5.04e-03  1.87e-03  4.15e-02  2.03e-02  0.000   1.9
                              *** Initializing SOSCF ***
---------------------------------------S-O-S-C-F--------------------------------------
Iteration    Energy (Eh)           Delta-E    RMSDP     MaxDP     MaxGrad    Time(sec)
--------------------------------------------------------------------------------------
    5    -628.6169611936854835    -1.28e-02  7.48e-05  2.27e-03  1.32e-03     2.0
               *** Restarting incremental Fock matrix formation ***
    6    -628.6169808116659397    -1.96e-05  3.77e-05  1.28e-03  3.72e-04     3.6
    7    -628.6169851902890287    -4.38e-06  1.96e-05  6.71e-04  2.13e-04     3.0
    8    -628.6169862797820542    -1.09e-06  6.55e-06  1.61e-04  8.41e-05     2.9
    9    -628.6169864799637708    -2.00e-07  2.44e-06  1.02e-04  3.16e-05     2.7
   10    -628.6169865053077501    -2.53e-08  9.11e-07  3.00e-05  9.44e-06     2.6
                 **** Energy Check signals convergence ****

               *****************************************************
               *                     SUCCESS                       *
               *           SCF CONVERGED AFTER  10 CYCLES          *
               *****************************************************


------------------
NL GRID GENERATION
------------------

General Integration Accuracy     IntAcc      ... 4.004
Radial Grid Type                 RadialGrid  ... OptM3 with GC (2021)
Angular Grid (max. ang.)         AngularGrid ... 2 (Lebedev-110)
Angular grid pruning method      GridPruning ... 4 (adaptive)
Weight generation scheme         WeightScheme... mBecke (2022)
Basis function cutoff            BFCut       ... 1.0000e-10
Integration weight cutoff        WCut        ... 1.0000e-14
Partially contracted basis set               ... off
Rotationally invariant grid construction     ... off
Angular grids for H and He will be reduced by one unit

Total number of grid points                  ...    15658
Total number of batches                      ...      252
Average number of points per batch           ...       62
Average number of grid points per atom       ...     1423
Final grid set up in    0.1 sec

-------------------------------------------------------------------------------
                    post-SCF DFT-NL dispersion correction                      
-------------------------------------------------------------------------------

SCF Energy:     -628.616986505 
NL    Energy:      0.198273818 
SC+NL Energy:   -628.418712687 
NL done in  :              0.8 sec
-------------------------------------------------------------------------------
Recomputing exchange energy using gridx3       ... done (    7.653 sec)
Old exchange energy                            :    -15.623531365 Eh
New exchange energy                            :    -15.623510381 Eh
Exchange energy change after final integration :      0.000020984 Eh
Total energy after final integration           :   -628.418691703 Eh
             **** ENERGY FILE WAS UPDATED (sp.en.tmp) ****

----------------
TOTAL SCF ENERGY
----------------

Total Energy       :       -628.41869170314953 Eh          -17100.14196 eV

Components:
Nuclear Repulsion  :        269.62758485786730 Eh            7336.93959 eV
Electronic Energy  :       -898.24457136317506 Eh          -24442.47742 eV
One Electron Energy:      -1398.30469369905927 Eh          -38049.80513 eV
Two Electron Energy:        500.06012233588422 Eh           13607.32771 eV

Virial components:
Potential Energy   :      -1254.94655188797333 Eh          -34148.83177 eV
Kinetic Energy     :        626.52786018482379 Eh           17048.68981 eV
Virial Ratio       :          2.00301795281341

DFT components:
N(Alpha)           :       25.000028590388 electrons
N(Beta)            :       25.000028590388 electrons
N(Total)           :       50.000057180777 electrons
E(X)               :      -38.236143724856 Eh       
E(C)               :       -2.264413048368 Eh       
NL Energy, E(C,NL) :        0.198273818388 Eh       
E(XC)              :      -40.302282954835 Eh       

---------------
SCF CONVERGENCE
---------------

  Last Energy change         ...    2.5344e-08  Tolerance :   1.0000e-07
  Last MAX-Density change    ...    3.0000e-05  Tolerance :   1.0000e-05
  Last RMS-Density change    ...    9.1073e-07  Tolerance :   1.0000e-06
  Last DIIS Error            ...    1.3213e-03  Tolerance :   1.0000e-07
  Last Orbital Gradient      ...    9.4390e-06  Tolerance :   1.0000e-04
  Last Orbital Rotation      ...    1.3216e-05  Tolerance :   1.0000e-04


----------------
ORBITAL ENERGIES
----------------

  NO   OCC          E(Eh)            E(eV) 
   0   2.0000     -89.058174     -2423.3961 
   1   2.0000     -19.204444      -522.5795 
   2   2.0000     -19.204420      -522.5788 
   3   2.0000     -10.319393      -280.8050 
   4   2.0000     -10.318406      -280.7781 
   5   2.0000      -8.206879      -223.3205 
   6   2.0000      -6.162712      -167.6959 
   7   2.0000      -6.161814      -167.6715 
   8   2.0000      -6.160549      -167.6371 
   9   2.0000      -1.225729       -33.3538 
  10   2.0000      -1.122237       -30.5376 
  11   2.0000      -0.928168       -25.2567 
  12   2.0000      -0.880456       -23.9584 
  13   2.0000      -0.726127       -19.7589 
  14   2.0000      -0.618083       -16.8189 
  15   2.0000      -0.604320       -16.4444 
  16   2.0000      -0.594427       -16.1752 
  17   2.0000      -0.564058       -15.3488 
  18   2.0000      -0.560096       -15.2410 
  19   2.0000      -0.533841       -14.5266 
  20   2.0000      -0.529319       -14.4035 
  21   2.0000      -0.439896       -11.9702 
  22   2.0000      -0.428374       -11.6567 
  23   2.0000      -0.410333       -11.1657 
  24   2.0000      -0.398446       -10.8423 
  25   0.0000       0.094474         2.5708 
  26   0.0000       0.119317         3.2468 
  27   0.0000       0.135273         3.6810 
  28   0.0000       0.146572         3.9884 
  29   0.0000       0.146800         3.9946 
  30   0.0000       0.160514         4.3678 
  31   0.0000       0.161438         4.3930 
  32   0.0000       0.188310         5.1242 
  33   0.0000       0.192170         5.2292 
  34   0.0000       0.213429         5.8077 
  35   0.0000       0.275544         7.4979 
*Only the first 10 virtual orbitals were printed.

                    ********************************
                    * MULLIKEN POPULATION ANALYSIS *
                    ********************************

-----------------------
MULLIKEN ATOMIC CHARGES
-----------------------
   0 C :   -0.389491
   1 S :    0.793563
   2 O :   -0.467395
   3 O :   -0.467362
   4 C :   -0.389511
   5 H :    0.149488
   6 H :    0.149478
   7 H :    0.157700
   8 H :    0.163491
   9 H :    0.136517
  10 H :    0.163523
Sum of atomic charges:   -0.0000000

--------------------------------
MULLIKEN REDUCED ORBITAL CHARGES
--------------------------------
  0 C s       :     3.223485  s :     3.223485
      pz      :     1.079896  p :     3.115707
      px      :     1.003621
      py      :     1.032191
      dz2     :     0.010201  d :     0.047807
      dxz     :     0.002660
      dyz     :     0.014381
      dx2y2   :     0.006073
      dxy     :     0.014492
      f0      :     0.000136  f :     0.002492
      f+1     :     0.000163
      f-1     :     0.001066
      f+2     :    -0.000080
      f-2     :     0.000257
      f+3     :     0.000307
      f-3     :     0.000643

  1 S s       :     5.424385  s :     5.424385
      pz      :     2.771347  p :     8.736789
      px      :     3.035607
      py      :     2.929836
      dz2     :     0.282697  d :     0.962388
      dxz     :     0.197363
      dyz     :     0.198039
      dx2y2   :     0.062775
      dxy     :     0.221514
      f0      :     0.021509  f :     0.082874
      f+1     :     0.017258
      f-1     :     0.008920
      f+2     :     0.010592
      f-2     :     0.015605
      f+3     :     0.005106
      f-3     :     0.003884

  2 O s       :     3.830739  s :     3.830739
      pz      :     1.351777  p :     4.600637
      px      :     1.682890
      py      :     1.565970
      dz2     :     0.010975  d :     0.034117
      dxz     :     0.007345
      dyz     :     0.010331
      dx2y2   :     0.002893
      dxy     :     0.002573
      f0      :     0.000479  f :     0.001902
      f+1     :     0.000272
      f-1     :     0.000545
      f+2     :     0.000266
      f-2     :     0.000266
      f+3     :     0.000039
      f-3     :     0.000036

  3 O s       :     3.830809  s :     3.830809
      pz      :     1.350890  p :     4.600539
      px      :     1.683002
      py      :     1.566646
      dz2     :     0.011000  d :     0.034114
      dxz     :     0.007359
      dyz     :     0.010326
      dx2y2   :     0.002875
      dxy     :     0.002553
      f0      :     0.000481  f :     0.001901
      f+1     :     0.000274
      f-1     :     0.000545
      f+2     :     0.000264
      f-2     :     0.000264
      f+3     :     0.000038
      f-3     :     0.000035

  4 C s       :     3.227105  s :     3.227105
      pz      :     1.122730  p :     3.118850
      px      :     0.981844
      py      :     1.014276
      dz2     :     0.009908  d :     0.041108
      dxz     :     0.007880
      dyz     :     0.003789
      dx2y2   :     0.006971
      dxy     :     0.012561
      f0      :     0.000103  f :     0.002448
      f+1     :     0.000954
      f-1     :     0.000291
      f+2     :    -0.000056
      f-2     :     0.000193
      f+3     :     0.000404
      f-3     :     0.000559

  5 H s       :     0.828934  s :     0.828934
      pz      :     0.010394  p :     0.021578
      px      :     0.004151
      py      :     0.007033

  6 H s       :     0.828945  s :     0.828945
      pz      :     0.010395  p :     0.021577
      px      :     0.004151
      py      :     0.007032

  7 H s       :     0.820056  s :     0.820056
      pz      :     0.004252  p :     0.022244
      px      :     0.010859
      py      :     0.007132

  8 H s       :     0.814775  s :     0.814775
      pz      :     0.010619  p :     0.021734
      px      :     0.006790
      py      :     0.004326

  9 H s       :     0.841935  s :     0.841935
      pz      :     0.004230  p :     0.021548
      px      :     0.004733
      py      :     0.012584

 10 H s       :     0.814741  s :     0.814741
      pz      :     0.010418  p :     0.021736
      px      :     0.006924
      py      :     0.004394


------------------------
MULLIKEN OVERLAP CHARGES
------------------------
B(  0-C ,  1-S ) :   0.5836 B(  0-C ,  2-O ) :  -0.1074 B(  0-C ,  3-O ) :  -0.1075 
B(  0-C ,  4-C ) :  -0.0899 B(  0-C ,  5-H ) :   0.7493 B(  0-C ,  6-H ) :   0.7490 
B(  0-C ,  7-H ) :   0.7728 B(  1-S ,  2-O ) :   1.1731 B(  1-S ,  3-O ) :   1.1726 
B(  1-S ,  4-C ) :   0.5658 B(  2-O ,  3-O ) :  -0.1097 B(  2-O ,  4-C ) :  -0.1132 
B(  3-O ,  4-C ) :  -0.1134 B(  4-C ,  8-H ) :   0.7713 B(  4-C ,  9-H ) :   0.7288 
B(  4-C , 10-H ) :   0.7708 


                     *******************************
                     * LOEWDIN POPULATION ANALYSIS *
                     *******************************

----------------------
LOEWDIN ATOMIC CHARGES
----------------------
   0 C :   -0.406430
   1 S :    0.721929
   2 O :   -0.323124
   3 O :   -0.323176
   4 C :   -0.397516
   5 H :    0.118935
   6 H :    0.118954
   7 H :    0.127085
   8 H :    0.123154
   9 H :    0.116881
  10 H :    0.123309

-------------------------------
LOEWDIN REDUCED ORBITAL CHARGES
-------------------------------
  0 C s       :     2.914188  s :     2.914188
      pz      :     1.110748  p :     3.270780
      px      :     1.068925
      py      :     1.091107
      dz2     :     0.042660  d :     0.204208
      dxz     :     0.010491
      dyz     :     0.055157
      dx2y2   :     0.026108
      dxy     :     0.069792
      f0      :     0.000920  f :     0.017254
      f+1     :     0.003104
      f-1     :     0.003295
      f+2     :     0.002228
      f-2     :     0.001134
      f+3     :     0.002325
      f-3     :     0.004249

  1 S s       :     4.791675  s :     4.791675
      pz      :     2.862245  p :     8.704852
      px      :     2.944671
      py      :     2.897936
      dz2     :     0.454326  d :     1.533024
      dxz     :     0.265443
      dyz     :     0.347794
      dx2y2   :     0.107495
      dxy     :     0.357966
      f0      :     0.060796  f :     0.248520
      f+1     :     0.048414
      f-1     :     0.038088
      f+2     :     0.032593
      f-2     :     0.042680
      f+3     :     0.014327
      f-3     :     0.011622

  2 O s       :     3.576255  s :     3.576255
      pz      :     1.486268  p :     4.677762
      px      :     1.624102
      py      :     1.567392
      dz2     :     0.022278  d :     0.064956
      dxz     :     0.009629
      dyz     :     0.024831
      dx2y2   :     0.004156
      dxy     :     0.004062
      f0      :     0.000863  f :     0.004151
      f+1     :     0.000391
      f-1     :     0.001677
      f+2     :     0.000583
      f-2     :     0.000487
      f+3     :     0.000092
      f-3     :     0.000058

  3 O s       :     3.576295  s :     3.576295
      pz      :     1.485939  p :     4.677782
      px      :     1.624315
      py      :     1.567528
      dz2     :     0.022383  d :     0.064949
      dxz     :     0.009651
      dyz     :     0.024761
      dx2y2   :     0.004119
      dxy     :     0.004035
      f0      :     0.000869  f :     0.004150
      f+1     :     0.000394
      f-1     :     0.001676
      f+2     :     0.000578
      f-2     :     0.000486
      f+3     :     0.000091
      f-3     :     0.000057

  4 C s       :     2.915377  s :     2.915377
      pz      :     1.129564  p :     3.271691
      px      :     1.058666
      py      :     1.083462
      dz2     :     0.041370  d :     0.192920
      dxz     :     0.045834
      dyz     :     0.011442
      dx2y2   :     0.036312
      dxy     :     0.057962
      f0      :     0.000840  f :     0.017528
      f+1     :     0.003474
      f-1     :     0.003265
      f+2     :     0.001535
      f-2     :     0.002047
      f+3     :     0.002901
      f-3     :     0.003464

  5 H s       :     0.815941  s :     0.815941
      pz      :     0.031068  p :     0.065125
      px      :     0.012937
      py      :     0.021120

  6 H s       :     0.815916  s :     0.815916
      pz      :     0.031071  p :     0.065130
      px      :     0.012940
      py      :     0.021119

  7 H s       :     0.807322  s :     0.807322
      pz      :     0.012850  p :     0.065594
      px      :     0.031067
      py      :     0.021677

  8 H s       :     0.811017  s :     0.811017
      pz      :     0.031976  p :     0.065829
      px      :     0.020439
      py      :     0.013414

  9 H s       :     0.817888  s :     0.817888
      pz      :     0.013850  p :     0.065231
      px      :     0.014599
      py      :     0.036781

 10 H s       :     0.810864  s :     0.810864
      pz      :     0.031406  p :     0.065827
      px      :     0.020825
      py      :     0.013597


---------------------------------
LOEWDIN BOND ORDERS (THRESH 0.050000)
---------------------------------
B(  0-C ,  1-S ) :   1.1096 B(  0-C ,  2-O ) :   0.1246 B(  0-C ,  3-O ) :   0.1246 
B(  0-C ,  4-C ) :   0.1006 B(  0-C ,  5-H ) :   0.9322 B(  0-C ,  6-H ) :   0.9322 
B(  0-C ,  7-H ) :   0.9245 B(  1-S ,  2-O ) :   2.3223 B(  1-S ,  3-O ) :   2.3221 
B(  1-S ,  4-C ) :   1.0887 B(  1-S ,  5-H ) :   0.0528 B(  1-S ,  6-H ) :   0.0528 
B(  1-S ,  7-H ) :   0.0606 B(  1-S ,  8-H ) :   0.0524 B(  1-S ,  9-H ) :   0.0523 
B(  1-S , 10-H ) :   0.0526 B(  2-O ,  3-O ) :   0.1196 B(  2-O ,  4-C ) :   0.1193 
B(  3-O ,  4-C ) :   0.1194 B(  4-C ,  8-H ) :   0.9331 B(  4-C ,  9-H ) :   0.9306 
B(  4-C , 10-H ) :   0.9328 

------------------------------------------
LOEWDIN REDUCED ORBITAL POPULATIONS PER MO
-------------------------------------------
THRESHOLD FOR PRINTING IS 0.1%%
                      0         1         2         3         4         5   
                 -89.05817 -19.20444 -19.20442 -10.31939 -10.31841  -8.20688
                   2.00000   2.00000   2.00000   2.00000   2.00000   2.00000
                  --------  --------  --------  --------  --------  --------
 0 C  s               0.0       0.0       0.0      99.6       0.0       0.0
 1 S  s             100.0       0.0       0.0       0.0       0.0      98.4
 2 O  s               0.0      71.8      28.0       0.0       0.0       0.0
 2 O  pz              0.0       0.0       0.0       0.0       0.0       0.3
 3 O  s               0.0      28.0      71.8       0.0       0.0       0.0
 3 O  pz              0.0       0.0       0.0       0.0       0.0       0.3
 4 C  s               0.0       0.0       0.0       0.0      99.6       0.0

                      6         7         8         9        10        11   
                  -6.16271  -6.16181  -6.16055  -1.22573  -1.12224  -0.92817
                   2.00000   2.00000   2.00000   2.00000   2.00000   2.00000
                  --------  --------  --------  --------  --------  --------
 0 C  s               0.0       0.0       0.0       1.5       0.0      18.0
 0 C  pz              0.0       0.0       0.0       0.0       0.3       0.0
 0 C  px              0.0       0.0       0.0       1.6       0.0       1.2
 0 C  py              0.0       0.0       0.0       1.5       0.0       0.1
 0 C  dz2             0.0       0.0       0.0       0.2       0.0       0.1
 0 C  dxz             0.0       0.0       0.0       0.0       0.1       0.0
 0 C  dx2y2           0.0       0.0       0.0       0.0       0.0       0.1
 0 C  dxy             0.0       0.0       0.0       0.5       0.0       0.1
 1 S  s               0.0       0.0       0.0      24.2       0.0       4.3
 1 S  pz              0.0       0.0      99.8       0.0      25.2       0.0
 1 S  px             99.8       0.1       0.0       0.0       0.0       0.0
 1 S  py              0.1      99.7       0.0       3.1       0.0      15.7
 1 S  dz2             0.0       0.0       0.0       2.4       0.0       3.6
 1 S  dyz             0.0       0.0       0.0       0.0       6.7       0.0
 1 S  dx2y2           0.0       0.0       0.0       0.2       0.0       0.5
 1 S  f0              0.0       0.0       0.0       0.0       0.3       0.0
 1 S  f-1             0.0       0.0       0.0       1.3       0.0       0.1
 1 S  f+2             0.0       0.0       0.0       0.0       0.5       0.0
 1 S  f-3             0.0       0.0       0.0       0.0       0.0       0.1
 2 O  s               0.0       0.0       0.0      22.9      31.0       5.0
 2 O  pz              0.0       0.0       0.0       4.0       1.2       0.2
 2 O  py              0.0       0.0       0.0       1.0       0.8       0.7
 2 O  dz2             0.0       0.0       0.0       0.2       0.0       0.0
 2 O  dyz             0.0       0.0       0.0       0.2       0.1       0.1
 3 O  s               0.0       0.0       0.0      22.9      31.0       5.1
 3 O  pz              0.0       0.0       0.0       4.0       1.2       0.2
 3 O  py              0.0       0.0       0.0       0.9       0.8       0.7
 3 O  dz2             0.0       0.0       0.0       0.2       0.0       0.0
 3 O  dyz             0.0       0.0       0.0       0.2       0.1       0.1
 4 C  s               0.0       0.0       0.0       1.4       0.0      15.9
 4 C  pz              0.0       0.0       0.0       0.0       0.3       0.0
 4 C  px              0.0       0.0       0.0       1.6       0.0       1.2
 4 C  py              0.0       0.0       0.0       1.4       0.0       0.1
 4 C  dz2             0.0       0.0       0.0       0.1       0.0       0.1
 4 C  dx2y2           0.0       0.0       0.0       0.0       0.0       0.1
 4 C  dxy             0.0       0.0       0.0       0.4       0.0       0.1
 5 H  s               0.0       0.0       0.0       0.2       0.0       4.4
 5 H  pz              0.0       0.0       0.0       0.0       0.0       0.3
 5 H  py              0.0       0.0       0.0       0.0       0.0       0.1
 6 H  s               0.0       0.0       0.0       0.2       0.0       4.4
 6 H  pz              0.0       0.0       0.0       0.0       0.0       0.3
 6 H  py              0.0       0.0       0.0       0.0       0.0       0.1
 7 H  s               0.0       0.0       0.0       0.3       0.0       3.7
 7 H  px              0.0       0.0       0.0       0.0       0.0       0.3
 8 H  s               0.0       0.0       0.0       0.3       0.0       3.3
 8 H  pz              0.0       0.0       0.0       0.0       0.0       0.2
 8 H  px              0.0       0.0       0.0       0.0       0.0       0.1
 9 H  s               0.0       0.0       0.0       0.2       0.0       4.5
 9 H  py              0.0       0.0       0.0       0.0       0.0       0.4
10 H  s               0.0       0.0       0.0       0.3       0.0       3.3
10 H  pz              0.0       0.0       0.0       0.0       0.0       0.2
10 H  px              0.0       0.0       0.0       0.0       0.0       0.1

                     12        13        14        15        16        17   
                  -0.88046  -0.72613  -0.61808  -0.60432  -0.59443  -0.56406
                   2.00000   2.00000   2.00000   2.00000   2.00000   2.00000
                  --------  --------  --------  --------  --------  --------
 0 C  s              20.3       4.4       0.6       0.2       0.0       0.0
 0 C  pz              0.0       0.0       0.0       0.0      20.7      23.9
 0 C  px              0.2       6.8       1.4      14.3       0.0       0.0
 0 C  py              0.1       3.1      16.2       2.8       0.0       0.0
 0 C  dz2             0.0       0.4       0.6       0.0       0.0       0.0
 0 C  dxz             0.0       0.0       0.0       0.0       0.2       0.0
 0 C  dyz             0.0       0.0       0.0       0.0       0.3       0.7
 0 C  dx2y2           0.0       0.2       0.0       0.1       0.0       0.0
 0 C  dxy             0.0       1.1       0.3       0.3       0.0       0.0
 1 S  s               0.0      11.7       0.0       0.4       0.0       0.0
 1 S  pz              0.0       0.0       0.0       0.0       7.0       0.0
 1 S  px             13.8       0.0      26.8       0.1       0.0       0.0
 1 S  py              0.0       2.6       0.0      13.2       0.0       0.0
 1 S  dz2             0.0       0.7       0.0       1.3       0.0       0.0
 1 S  dxz             0.0       0.0       0.0       0.0       0.0       3.7
 1 S  dyz             0.0       0.0       0.0       0.0       3.5       0.0
 1 S  dx2y2           0.0       0.1       0.0       0.9       0.0       0.0
 1 S  dxy             2.8       0.0       0.3       0.0       0.0       0.0
 1 S  f-1             0.0       0.3       0.0       0.1       0.0       0.0
 1 S  f+2             0.0       0.0       0.0       0.0       0.1       0.0
 1 S  f-2             0.0       0.0       0.0       0.0       0.0       0.1
 2 O  s               0.0       7.6       0.0       3.0       3.4       0.0
 2 O  pz              0.0       5.1       0.0      12.3       3.5       0.0
 2 O  px              0.5       0.0       9.6       0.0       0.0       1.8
 2 O  py              0.0       2.9       0.0       0.2       7.7       0.0
 2 O  dz2             0.0       0.1       0.0       0.3       0.0       0.0
 2 O  dxz             0.1       0.0       0.3       0.0       0.0       0.0
 2 O  dyz             0.0       0.3       0.0       0.0       0.2       0.0
 2 O  dxy             0.0       0.0       0.1       0.0       0.0       0.0
 3 O  s               0.0       7.6       0.0       3.0       3.5       0.0
 3 O  pz              0.0       5.1       0.0      12.2       3.7       0.0
 3 O  px              0.5       0.0       9.6       0.0       0.0       1.8
 3 O  py              0.0       2.8       0.0       0.2       7.6       0.0
 3 O  dz2             0.0       0.1       0.0       0.3       0.0       0.0
 3 O  dxz             0.1       0.0       0.3       0.0       0.0       0.0
 3 O  dyz             0.0       0.3       0.0       0.0       0.2       0.0
 3 O  dxy             0.0       0.0       0.1       0.0       0.0       0.0
 4 C  s              22.7       4.3       0.6       0.2       0.0       0.0
 4 C  pz              0.0       0.0       0.0       0.0      15.3      29.0
 4 C  px              0.2       6.5       2.1      12.2       0.0       0.0
 4 C  py              0.0       3.3      14.6       4.0       0.0       0.0
 4 C  dz2             0.0       0.4       0.0       0.4       0.0       0.0
 4 C  dxz             0.0       0.0       0.0       0.0       0.1       0.8
 4 C  dyz             0.0       0.0       0.0       0.0       0.2       0.2
 4 C  dx2y2           0.0       0.2       0.0       0.0       0.0       0.0
 4 C  dxy             0.0       1.0       0.9       0.0       0.0       0.0
 5 H  s               5.2       3.1       3.5       0.2       6.5       8.0
 5 H  pz              0.4       0.2       0.3       0.0       0.0       0.0
 5 H  px              0.0       0.1       0.0       0.2       0.0       0.0
 5 H  py              0.2       0.0       0.0       0.0       0.2       0.3
 6 H  s               5.2       3.1       3.6       0.2       6.5       8.1
 6 H  pz              0.4       0.2       0.3       0.0       0.0       0.0
 6 H  px              0.0       0.1       0.0       0.2       0.0       0.0
 6 H  py              0.2       0.0       0.0       0.0       0.2       0.3
 7 H  s               6.0       3.1       0.2       8.0       0.0       0.0
 7 H  pz              0.0       0.0       0.0       0.0       0.2       0.3
 7 H  px              0.4       0.1       0.1       0.2       0.0       0.0
 7 H  py              0.2       0.3       0.1       0.1       0.0       0.0
 8 H  s               6.4       3.1       0.2       2.5       4.3      10.1
 8 H  pz              0.5       0.2       0.0       0.2       0.0       0.1
 8 H  px              0.2       0.0       0.0       0.0       0.1       0.3
 8 H  py              0.0       0.1       0.2       0.0       0.0       0.0
 9 H  s               5.5       3.1       5.9       3.1       0.0       0.0
 9 H  pz              0.0       0.0       0.0       0.0       0.2       0.3
 9 H  px              0.1       0.2       0.2       0.0       0.0       0.0
 9 H  py              0.5       0.1       0.2       0.1       0.0       0.0
10 H  s               6.4       3.1       0.2       2.7       4.2       9.6
10 H  pz              0.4       0.2       0.0       0.2       0.0       0.0
10 H  px              0.2       0.0       0.0       0.0       0.1       0.3
10 H  py              0.0       0.1       0.2       0.0       0.0       0.0

                     18        19        20        21        22        23   
                  -0.56010  -0.53384  -0.52932  -0.43990  -0.42837  -0.41033
                   2.00000   2.00000   2.00000   2.00000   2.00000   2.00000
                  --------  --------  --------  --------  --------  --------
 0 C  s               0.0       0.0       0.0       0.2       0.0       0.0
 0 C  pz              0.0       8.8       0.0       0.0       1.0       0.9
 0 C  px              0.5       0.0      17.2       3.2       0.0       0.0
 0 C  py             15.1       0.0       8.8       1.8       0.0       0.0
 0 C  dz2             0.3       0.0       0.4       0.1       0.0       0.0
 0 C  dxz             0.0       0.1       0.0       0.0       0.0       0.1
 0 C  dyz             0.0       0.8       0.0       0.0       0.6       0.2
 0 C  dx2y2           0.3       0.0       0.5       0.1       0.0       0.0
 0 C  dxy             0.0       0.0       1.1       0.0       0.0       0.0
 1 S  s               0.2       0.0       0.0       0.4       0.0       0.0
 1 S  pz              0.0       9.8       0.0       0.0       0.0       1.2
 1 S  px              0.0       0.0       4.9       0.0       0.0       0.0
 1 S  py              8.3       0.0       0.1       1.9       0.0       0.0
 1 S  dz2             0.7       0.0       0.0      13.9       0.0       0.0
 1 S  dxz             0.0       0.0       0.0       0.0       9.6       0.0
 1 S  dyz             0.0       0.7       0.0       0.0       0.0       6.4
 1 S  dx2y2           3.1       0.0       0.0       0.6       0.0       0.0
 1 S  dxy             0.0       0.0       0.3       0.0       0.0       0.0
 1 S  f0              0.0       0.2       0.0       0.0       0.0       2.5
 1 S  f+2             0.0       0.0       0.0       0.0       0.0       1.0
 1 S  f-2             0.0       0.0       0.0       0.0       2.0       0.0
 1 S  f+3             0.0       0.0       0.6       0.0       0.0       0.0
 1 S  f-3             0.1       0.0       0.0       0.3       0.0       0.0
 2 O  s               1.3       3.7       0.0       0.7       0.0       0.1
 2 O  pz             11.6      15.5       0.1       0.3       0.0      20.1
 2 O  px              0.0       0.0       2.2       0.0      40.8       0.1
 2 O  py              1.1       7.9       0.0      34.2       0.0      21.8
 2 O  dz2             0.3       0.1       0.0       0.0       0.0       0.0
 2 O  dyz             0.0       0.2       0.0       0.1       0.0       0.0
 3 O  s               1.2       3.8       0.0       0.7       0.0       0.1
 3 O  pz             11.4      15.7       0.1       0.3       0.0      20.0
 3 O  px              0.0       0.0       2.2       0.0      40.7       0.1
 3 O  py              1.2       7.8       0.0      34.2       0.0      21.9
 3 O  dz2             0.3       0.1       0.0       0.0       0.0       0.0
 3 O  dyz             0.0       0.2       0.0       0.1       0.0       0.0
 4 C  s               0.0       0.0       0.0       0.2       0.0       0.0
 4 C  pz              0.0       9.2       0.0       0.0       1.7       1.0
 4 C  px              1.6       0.0      18.3       2.2       0.0       0.0
 4 C  py             17.4       0.0       5.5       2.9       0.0       0.0
 4 C  dz2             0.3       0.0       0.6       0.1       0.0       0.0
 4 C  dxz             0.0       0.7       0.0       0.0       0.3       0.4
 4 C  dyz             0.0       0.0       0.0       0.0       0.1       0.0
 4 C  dx2y2           0.7       0.0       0.6       0.1       0.0       0.0
 4 C  dxy             0.2       0.0       0.1       0.0       0.0       0.0
 5 H  s               2.4       3.4       1.9       0.2       0.7       0.5
 5 H  pz              0.2       0.0       0.1       0.0       0.0       0.0
 5 H  px              0.0       0.0       0.2       0.1       0.0       0.0
 6 H  s               2.3       3.4       1.8       0.2       0.7       0.5
 6 H  pz              0.2       0.0       0.1       0.0       0.0       0.0
 6 H  px              0.0       0.0       0.2       0.1       0.0       0.0
 7 H  s               3.7       0.0      14.8       0.0       0.0       0.0
 7 H  pz              0.0       0.1       0.0       0.0       0.0       0.0
 7 H  px              0.2       0.0       0.2       0.0       0.0       0.0
 7 H  py              0.0       0.0       0.1       0.1       0.0       0.0
 8 H  s               1.1       3.5       4.0       0.1       0.7       0.5
 8 H  pz              0.1       0.0       0.3       0.0       0.0       0.0
 8 H  py              0.2       0.0       0.0       0.0       0.0       0.0
 9 H  s              10.5       0.0       7.0       0.5       0.0       0.0
 9 H  pz              0.0       0.1       0.0       0.0       0.0       0.0
 9 H  py              0.2       0.0       0.3       0.0       0.0       0.0
10 H  s               1.4       3.4       4.3       0.0       0.7       0.5
10 H  pz              0.1       0.0       0.3       0.0       0.0       0.0
10 H  py              0.1       0.0       0.0       0.0       0.0       0.0

                     24        25        26        27        28        29   
                  -0.39845   0.09447   0.11932   0.13527   0.14657   0.14680
                   2.00000   0.00000   0.00000   0.00000   0.00000   0.00000
                  --------  --------  --------  --------  --------  --------
 0 C  s               0.8       6.1       3.0       3.8       0.0       1.3
 0 C  px              6.8       0.7       7.6       1.3       0.3       7.2
 0 C  py              4.9       1.6       4.5       0.5       0.0       1.2
 0 C  dz2             0.0       0.2       2.4       0.1       0.0       0.0
 0 C  dxz             0.0       0.0       0.0       0.0       3.3       0.1
 0 C  dyz             0.0       0.0       0.0       0.0       0.8       0.0
 0 C  dx2y2           0.0       0.9       3.7       0.3       0.0       0.2
 0 C  dxy             0.0       0.5       1.2       0.0       0.2       5.3
 0 C  f-3             0.0       0.0       0.3       0.0       0.0       0.1
 1 S  s               0.0       0.1       3.3       2.3       0.3       8.3
 1 S  pz              0.0       0.0       0.0       0.0      12.2       0.5
 1 S  px              1.6       0.0       0.4       8.3       0.0       0.1
 1 S  py              0.0       3.9      12.4       0.4       0.1       1.4
 1 S  dz2             0.0       0.6       2.6       0.2       0.1       1.4
 1 S  dxz             0.0       0.0       0.0       0.0       0.4       0.0
 1 S  dyz             0.0       0.0       0.0       0.0      14.4       0.6
 1 S  dx2y2           0.0       1.3       9.5       0.3       0.1       3.4
 1 S  dxy            14.5       0.0       0.4       5.2       0.0       0.1
 1 S  f0              0.0       0.0       0.0       0.0       1.3       0.1
 1 S  f+1             2.2       0.0       0.0       0.2       0.0       0.0
 1 S  f-1             0.0       0.7       0.1       0.2       0.1       1.4
 1 S  f+3             0.0       0.0       0.0       0.2       0.0       0.0
 1 S  f-3             0.0       0.2       0.4       0.1       0.0       0.3
 2 O  s               0.0       0.7       0.1       0.1       0.4       0.7
 2 O  pz              0.0       0.7       0.5       0.6       0.1       3.7
 2 O  px             26.2       0.0       0.1       3.8       0.0       0.2
 2 O  py              0.0       0.0       1.5       0.1       4.0       0.7
 2 O  dz2             0.0       0.0       0.0       0.1       0.1       0.3
 2 O  dxz             0.0       0.0       0.0       0.5       0.0       0.0
 2 O  dyz             0.0       0.0       0.2       0.1       0.1       0.5
 2 O  dx2y2           0.0       0.0       0.3       0.0       0.3       0.0
 3 O  s               0.0       0.7       0.1       0.1       0.8       0.3
 3 O  pz              0.0       0.7       0.5       0.6       0.5       3.2
 3 O  px             26.2       0.0       0.1       3.8       0.1       0.2
 3 O  py              0.0       0.0       1.5       0.1       4.7       0.1
 3 O  dz2             0.0       0.0       0.0       0.1       0.0       0.4
 3 O  dxz             0.0       0.0       0.0       0.5       0.0       0.0
 3 O  dyz             0.0       0.0       0.2       0.1       0.4       0.3
 3 O  dx2y2           0.0       0.0       0.3       0.0       0.3       0.0
 4 C  s               0.8       5.6       2.1       5.2       0.1       1.9
 4 C  pz              0.0       0.0       0.0       0.0       4.8       0.2
 4 C  px              7.0       0.1       3.2      12.7       0.3       7.9
 4 C  py              4.9       1.7       6.2       2.1       0.0       1.0
 4 C  dz2             0.0       0.0       0.1       4.2       0.1       4.7
 4 C  dxz             0.0       0.0       0.0       0.0      13.6       0.5
 4 C  dyz             0.0       0.0       0.0       0.0       0.4       0.0
 4 C  dx2y2           0.0       1.2       6.6       0.6       0.0       0.6
 4 C  dxy             0.1       0.6       2.4       1.9       0.2       3.7
 4 C  f+1             0.0       0.0       0.1       0.1       0.0       0.0
 4 C  f+3             0.0       0.1       0.1       0.1       0.0       0.0
 4 C  f-3             0.0       0.0       0.1       0.1       0.0       0.0
 5 H  s               0.5      13.6       0.5       5.9       0.6       2.9
 5 H  pz              0.0       1.3       0.0       0.8       0.0       0.2
 5 H  px              0.1       0.1       0.1       0.0       0.1       0.5
 5 H  py              0.1       0.4       0.2       0.2       0.0       0.2
 6 H  s               0.5      13.5       0.6       6.2       0.8       2.2
 6 H  pz              0.0       1.3       0.0       0.8       0.0       0.2
 6 H  px              0.1       0.1       0.1       0.0       0.3       0.3
 6 H  py              0.1       0.4       0.2       0.3       0.1       0.1
 7 H  s               0.3       5.4       5.5       4.4       0.1       1.2
 7 H  px              0.1       0.3       1.6       0.2       0.0       0.0
 7 H  py              0.1       0.7       0.0       0.4       0.0       0.0
 8 H  s               0.4       5.4       3.7       2.9       9.9      15.7
 8 H  pz              0.0       0.5       0.4       0.1       0.2       2.0
 8 H  px              0.1       0.1       0.5       0.6       1.2       0.1
 8 H  py              0.1       0.2       0.3       0.0       0.0       0.2
 9 H  s               0.6      19.2       2.6      10.0       0.0       0.5
 9 H  pz              0.0       0.0       0.0       0.0       0.5       0.0
 9 H  px              0.2       0.4       0.1       0.1       0.0       1.2
 9 H  py              0.0       2.2       0.0       2.0       0.0       0.0
10 H  s               0.4       5.3       3.9       2.9      18.3       6.8
10 H  pz              0.0       0.5       0.4       0.1       0.8       1.3
10 H  px              0.1       0.1       0.5       0.6       1.2       0.0
10 H  py              0.1       0.2       0.2       0.0       0.1       0.2

                     30        31        32        33        34        35   
                   0.16051   0.16144   0.18831   0.19217   0.21343   0.27554
                   0.00000   0.00000   0.00000   0.00000   0.00000   0.00000
                  --------  --------  --------  --------  --------  --------
 0 C  s               0.0       0.7       0.6       0.5       0.0       1.1
 0 C  pz             13.1       0.2       0.0       0.0       2.5       0.0
 0 C  px              0.2       8.6       1.4       1.3       0.0       6.3
 0 C  py              0.0       0.9      10.8      18.8       0.0      10.8
 0 C  dz2             0.0       0.1       4.5       7.5       0.0       0.0
 0 C  dxz             0.1       0.0       0.0       0.0       1.8       0.0
 0 C  dyz             9.1       0.2       0.0       0.0       1.0       0.0
 0 C  dx2y2           0.0       1.1       0.5       0.0       0.0       0.6
 0 C  dxy             0.2       8.5       0.0       0.6       0.0       0.4
 1 S  s               0.0       1.6       1.4       0.1       0.0       0.4
 1 S  pz              1.5       0.0       0.0       0.0      12.3       0.0
 1 S  px              0.1       6.8       1.7       8.4       0.0       3.3
 1 S  py              0.1       1.6       7.7       1.1       0.0       0.7
 1 S  dz2             0.0       0.9       2.7       0.2       0.0       0.2
 1 S  dxz             1.2       0.0       0.0       0.0       0.4       0.0
 1 S  dyz             0.9       0.0       0.0       0.0       5.0       0.0
 1 S  dx2y2           0.0       1.3       0.7       0.2       0.0       0.0
 1 S  dxy             0.0       3.0       0.7       2.5       0.0       5.3
 1 S  f0              0.3       0.0       0.0       0.0       0.5       0.0
 1 S  f+1             0.0       0.1       0.0       0.0       0.0       0.2
 1 S  f-1             0.0       0.7       0.9       0.4       0.0       0.4
 1 S  f+2             0.1       0.0       0.0       0.0       0.0       0.0
 1 S  f-2             0.3       0.0       0.0       0.0       0.0       0.0
 1 S  f+3             0.0       0.4       0.0       0.0       0.0       0.0
 1 S  f-3             0.0       0.0       0.7       0.0       0.0       0.0
 2 O  s               0.1       0.9       1.3       1.0       1.9       0.2
 2 O  pz              0.0       1.2       3.0       0.4       1.1       0.4
 2 O  px              0.2       1.2       0.4       1.2       0.2       2.3
 2 O  py              0.2       0.1       1.1       0.0       2.7       0.0
 2 O  dz2             0.1       0.1       0.4       0.0       0.1       0.2
 2 O  dxz             0.0       0.5       0.1       0.6       0.0       0.2
 2 O  dyz             0.0       0.0       0.0       0.0       0.2       0.0
 2 O  dx2y2           0.0       0.0       0.1       0.0       0.1       0.0
 3 O  s               0.4       0.6       1.3       1.0       2.0       0.2
 3 O  pz              0.2       1.1       3.0       0.4       1.1       0.4
 3 O  px              0.3       1.0       0.4       1.2       0.2       2.3
 3 O  py              0.2       0.1       1.1       0.0       2.7       0.0
 3 O  dz2             0.0       0.2       0.4       0.0       0.1       0.2
 3 O  dxz             0.0       0.4       0.1       0.6       0.0       0.2
 3 O  dyz             0.1       0.0       0.0       0.0       0.2       0.0
 3 O  dx2y2           0.0       0.0       0.1       0.0       0.1       0.0
 4 C  s               0.0       0.4       0.3       0.8       0.0       0.2
 4 C  pz              4.4       0.1       0.0       0.0      18.2       0.0
 4 C  px              0.1       4.2       0.4       0.2       0.0       3.3
 4 C  py              0.0       0.9       5.9       7.8       0.0      39.2
 4 C  dz2             0.0       2.3       0.0       0.4       0.0       2.3
 4 C  dxz             0.7       0.0       0.0       0.0       0.1       0.0
 4 C  dyz             1.2       0.0       0.0       0.0       0.9       0.0
 4 C  dx2y2           0.0       0.0       0.1       0.0       0.0       0.1
 4 C  dxy             0.0       0.0       0.3       4.1       0.0       4.7
 5 H  s              25.9       1.1       6.8       2.9       2.2       1.4
 5 H  pz              1.0       0.0       1.2       0.9       0.1       0.0
 5 H  px              0.0       0.8       0.0       0.0       0.1       0.0
 5 H  py              2.1       0.0       0.0       0.1       0.0       0.0
 6 H  s              27.2       0.3       7.0       2.5       2.1       1.4
 6 H  pz              1.0       0.0       1.2       0.8       0.0       0.0
 6 H  px              0.0       0.8       0.0       0.0       0.1       0.0
 6 H  py              2.1       0.0       0.0       0.1       0.0       0.0
 7 H  s               0.5      24.8      22.5       0.7       0.0       0.2
 7 H  pz              1.0       0.0       0.0       0.0       0.0       0.0
 7 H  px              0.0       1.7       1.4       0.0       0.0       0.0
 7 H  py              0.0       1.3       0.5       0.3       0.0       0.1
 8 H  s               0.8       6.7       1.1       2.2      18.1       0.7
 8 H  pz              0.0       1.0       0.1       0.2       0.8       0.0
 8 H  px              0.1       0.0       0.0       0.0       0.6       0.2
 8 H  py              0.0       0.0       0.0       0.6       0.2       0.4
 9 H  s               0.1       1.9       2.2      21.6       0.0       7.3
 9 H  pz              0.3       0.0       0.0       0.0       0.3       0.0
 9 H  px              0.0       0.0       0.0       0.7       0.0       0.1
 9 H  py              0.0       0.2       0.1       1.9       0.0       0.2
10 H  s               1.9       5.9       1.2       1.9      18.4       0.7
10 H  pz              0.1       0.9       0.1       0.2       0.7       0.0
10 H  px              0.1       0.0       0.0       0.0       0.6       0.1
10 H  py              0.0       0.0       0.0       0.6       0.2       0.5

                     36        37        38        39        40        41   
                   0.29121   0.29850   0.30663   0.30959   0.33271   0.39011
                   0.00000   0.00000   0.00000   0.00000   0.00000   0.00000
                  --------  --------  --------  --------  --------  --------
 0 C  s               0.6       0.0       2.4       0.0       2.0       7.3
 0 C  pz              0.0      52.8       0.1      10.4       0.0       0.0
 0 C  px             13.1       0.0      27.9       0.1       8.8       3.1
 0 C  py              1.5       0.0       3.2       0.1      31.2       3.8
 0 C  dz2             2.1       0.0       0.4       0.0       4.9       0.6
 0 C  dxz             0.0       7.8       0.0       0.4       0.0       0.0
 0 C  dyz             0.0       7.9       0.0       0.3       0.0       0.0
 0 C  dx2y2           1.1       0.0       0.9       0.0       3.1       0.2
 0 C  dxy             0.4       0.0       1.1       0.0       3.8       0.2
 0 C  f-1             0.0       0.0       0.1       0.0       0.0       0.3
 0 C  f+2             0.0       0.1       0.0       0.0       0.0       0.0
 1 S  s               0.7       0.0       0.1       0.0       0.3       9.1
 1 S  pz              0.0       1.8       0.0       4.0       0.0       0.0
 1 S  px              0.7       0.0       2.0       0.0       5.9       0.1
 1 S  py              4.1       0.0       4.2       0.1       5.5      27.1
 1 S  dz2             0.3       0.0       1.1       0.0       2.9       1.1
[...]
 2 O  px              0.0       0.0       0.0       0.3       0.0       0.0
 2 O  py              0.0       0.0       0.0       0.0       0.3       0.5
 2 O  dz2             7.0       0.2       0.0       0.0      21.2      14.4
 2 O  dxz             0.7       0.0      12.8      33.9       0.7       0.0
 2 O  dyz            12.9       5.6       0.0       0.0       3.9      27.6
 2 O  dx2y2          27.3      43.0       0.0       0.0      13.7       5.1
 2 O  dxy             1.3       0.0      35.1      11.4       0.3       0.0
 2 O  f0              0.2       0.0       0.0       0.0       4.2       1.0
 2 O  f+1             0.0       0.0       0.3       1.2       0.0       0.0
 2 O  f-1             0.0       0.3       0.0       0.0       0.1       0.9
 2 O  f+2             0.1       0.2       0.0       0.0       2.0       0.4
 2 O  f-2             0.0       0.0       0.4       1.7       0.0       0.0
 2 O  f+3             0.0       0.0       0.3       0.5       0.0       0.0
 2 O  f-3             0.1       0.1       0.0       0.0       0.4       0.0
 3 O  s               0.1       0.1       0.0       0.0       0.1       0.1
 3 O  pz              0.1       0.0       0.0       0.0       0.3       0.0
 3 O  px              0.0       0.0       0.0       0.3       0.0       0.0
 3 O  py              0.0       0.0       0.0       0.0       0.3       0.5
 3 O  dz2             7.0       0.2       0.0       0.0      22.2      13.3
 3 O  dxz             0.7       0.0      12.7      33.9       0.7       0.0
 3 O  dyz            12.9       5.5       0.0       0.0       4.7      27.2
 3 O  dx2y2          27.4      43.0       0.0       0.0      14.1       4.6
 3 O  dxy             1.3       0.0      35.3      11.3       0.3       0.0
 3 O  f0              0.2       0.0       0.0       0.0       4.3       0.9
 3 O  f+1             0.0       0.0       0.3       1.2       0.0       0.0
 3 O  f-1             0.0       0.3       0.0       0.0       0.1       0.9
 3 O  f+2             0.1       0.2       0.0       0.0       2.1       0.3
 3 O  f-2             0.0       0.0       0.4       1.7       0.0       0.0
 3 O  f+3             0.0       0.0       0.3       0.5       0.0       0.0
 3 O  f-3             0.1       0.1       0.0       0.0       0.4       0.0
 4 C  s               0.0       0.0       0.2       0.0       0.0       0.0

                    186       187       188       189       190       191   
                   6.88696   6.97281   7.02671   9.48020   9.50746   9.71928
                   0.00000   0.00000   0.00000   0.00000   0.00000   0.00000
                  --------  --------  --------  --------  --------  --------
 0 C  s               0.0       0.0       0.0       0.2       0.3       0.0
 0 C  px              0.0       0.0       0.0       0.0       0.2       0.0
 1 S  s               0.0       2.8       0.0       0.1       0.3       0.0
 1 S  pz              0.0       0.0       4.1       0.0       0.0      94.3
 1 S  px              0.0       0.0       0.0      83.8      13.8       0.0
 1 S  py              0.0       1.1       0.0      13.7      83.3       0.0
 1 S  dz2             0.0       0.5       0.0       0.0       0.3       0.0
 1 S  dxz             2.1       0.0       0.0       0.0       0.0       0.0
 1 S  dyz             0.0       0.0       0.5       0.0       0.0       0.3
 1 S  dxy             0.0       0.0       0.0       0.3       0.1       0.0
 1 S  f-1             0.0       0.4       0.0       0.0       0.0       0.0
 1 S  f-2             0.2       0.0       0.0       0.0       0.0       0.0
 2 O  s               0.0       0.7       0.8       0.0       0.0       0.3
 2 O  pz              0.0       0.7       0.8       0.0       0.0       0.3
 2 O  px              0.5       0.0       0.0       0.0       0.0       0.0
 2 O  py              0.0       0.0       0.4       0.0       0.0       0.1
 2 O  dz2             0.5      31.0      13.0       0.0       0.1       0.1
 2 O  dxz            28.7       0.0       0.0       0.0       0.0       0.0
 2 O  dyz             0.1      11.7      26.4       0.0       0.0       0.2
 2 O  dx2y2           0.3       0.7       2.7       0.0       0.0       0.0
 2 O  dxy            15.5       0.0       0.0       0.0       0.0       0.0
 2 O  f0              0.1       1.0       0.1       0.0       0.2       0.1
 2 O  f+1             1.1       0.0       0.0       0.1       0.0       0.0
 2 O  f-1             0.0       1.4       2.4       0.0       0.3       1.1
 2 O  f+2             0.1       0.3       0.9       0.0       0.0       0.4
 2 O  f-2             1.5       0.0       0.0       0.1       0.0       0.0
 2 O  f+3             0.1       0.0       0.0       0.0       0.0       0.0
 3 O  s               0.0       0.7       0.8       0.0       0.0       0.3
 3 O  pz              0.0       0.7       0.8       0.0       0.0       0.3
 3 O  px              0.5       0.0       0.0       0.0       0.0       0.0
 3 O  py              0.0       0.0       0.4       0.0       0.0       0.1
 3 O  dz2             0.4      31.1      13.1       0.0       0.1       0.1
 3 O  dxz            28.9       0.0       0.0       0.0       0.0       0.0
 3 O  dyz             0.1      11.7      26.3       0.0       0.0       0.2
 3 O  dx2y2           0.3       0.7       2.6       0.0       0.0       0.0
 3 O  dxy            15.4       0.0       0.0       0.0       0.0       0.0
 3 O  f0              0.1       1.0       0.1       0.0       0.3       0.1
 3 O  f+1             1.1       0.0       0.0       0.1       0.0       0.0
 3 O  f-1             0.0       1.4       2.4       0.0       0.3       1.1
 3 O  f+2             0.0       0.3       0.9       0.0       0.0       0.4
 3 O  f-2             1.5       0.0       0.0       0.1       0.0       0.0
 3 O  f+3             0.1       0.0       0.0       0.0       0.0       0.0
 4 C  s               0.0       0.0       0.0       0.4       0.0       0.0
 4 C  pz              0.2       0.0       0.0       0.0       0.0       0.0
 4 C  px              0.0       0.0       0.0       0.2       0.1       0.0
 4 C  py              0.0       0.0       0.0       0.1       0.0       0.0

                    192       193       194       195       196   
                  21.60872  22.21018  22.31859  43.57436  43.75120
                   0.00000   0.00000   0.00000   0.00000   0.00000
                  --------  --------  --------  --------  --------
 0 C  s               3.8      13.5      81.4       0.0       0.0
 0 C  px              0.0       0.0       0.1       0.0       0.0
 1 S  s              88.7       1.0       5.8       0.1       0.0
 1 S  py              0.2       0.0       0.0       0.0       0.0
 1 S  dz2             0.1       0.0       0.0       0.0       0.0
 1 S  f-1             0.2       0.0       0.0       0.0       0.0
 2 O  s               0.8       0.0       0.1      49.8      50.1
 2 O  pz              0.4       0.0       0.0       0.0       0.0
 2 O  py              0.2       0.0       0.0       0.0       0.0
 3 O  s               0.8       0.0       0.1      50.1      49.8
 3 O  pz              0.4       0.0       0.0       0.0       0.0
 3 O  py              0.2       0.0       0.0       0.0       0.0
 4 C  s               3.5      84.2      11.1       0.0       0.0
 5 H  s               0.0       0.0       0.2       0.0       0.0
 6 H  s               0.0       0.0       0.2       0.0       0.0
 7 H  s               0.0       0.0       0.2       0.0       0.0
 8 H  s               0.0       0.2       0.0       0.0       0.0
 9 H  s               0.0       0.2       0.0       0.0       0.0
10 H  s               0.0       0.2       0.0       0.0       0.0


                      *****************************
                      * MAYER POPULATION ANALYSIS *
                      *****************************

  NA   - Mulliken gross atomic population
  ZA   - Total nuclear charge
  QA   - Mulliken gross atomic charge
  VA   - Mayer's total valence
  BVA  - Mayer's bonded valence
  FA   - Mayer's free valence

  ATOM       NA         ZA         QA         VA         BVA        FA
  0 C      6.3895     6.0000    -0.3895     3.8578     3.8578    -0.0000
  1 S     15.2064    16.0000     0.7936     5.5752     5.5752    -0.0000
  2 O      8.4674     8.0000    -0.4674     1.9904     1.9904    -0.0000
  3 O      8.4674     8.0000    -0.4674     1.9900     1.9900     0.0000
  4 C      6.3895     6.0000    -0.3895     3.8124     3.8124     0.0000
  5 H      0.8505     1.0000     0.1495     0.9696     0.9696    -0.0000
  6 H      0.8505     1.0000     0.1495     0.9696     0.9696     0.0000
  7 H      0.8423     1.0000     0.1577     0.9898     0.9898     0.0000
  8 H      0.8365     1.0000     0.1635     0.9812     0.9812     0.0000
  9 H      0.8635     1.0000     0.1365     0.9705     0.9705    -0.0000
 10 H      0.8365     1.0000     0.1635     0.9814     0.9814     0.0000

  Mayer bond orders larger than 0.100000
B(  0-C ,  1-S ) :   0.9058 B(  0-C ,  5-H ) :   0.9490 B(  0-C ,  6-H ) :   0.9489 
B(  0-C ,  7-H ) :   0.9530 B(  1-S ,  2-O ) :   1.8669 B(  1-S ,  3-O ) :   1.8665 
B(  1-S ,  4-C ) :   0.8766 B(  4-C ,  8-H ) :   0.9537 B(  4-C ,  9-H ) :   0.9487 
B(  4-C , 10-H ) :   0.9536 

-------
TIMINGS
-------

Total SCF time: 0 days 0 hours 0 min 34 sec 

Total time                  ....      34.612 sec
Sum of individual times     ....      33.820 sec  ( 97.7%)

SCF preparation             ....       0.042 sec  (  0.1%)
Fock matrix formation       ....      33.564 sec  ( 97.0%)
  Startup                   ....       0.002 sec  (  0.0% of F)
  Split-RI-J                ....       1.158 sec  (  3.5% of F)
  Chain of spheres X        ....      29.439 sec  ( 87.7% of F)
  XC integration            ....       3.714 sec  ( 11.1% of F)
    XC Preparation          ....       0.000 sec  (  0.0% of XC)
    Basis function eval.    ....       1.000 sec  ( 26.9% of XC)
    Density eval.           ....       0.729 sec  ( 19.6% of XC)
    XC-Functional eval.     ....       1.036 sec  ( 27.9% of XC)
    XC-Potential eval.      ....       0.874 sec  ( 23.5% of XC)
Diagonalization             ....       0.000 sec  (  0.0%)
Density matrix formation    ....       0.010 sec  (  0.0%)
Total Energy calculation    ....       0.002 sec  (  0.0%)
Population analysis         ....       0.072 sec  (  0.2%)
Orbital Transformation      ....       0.015 sec  (  0.0%)
Orbital Orthonormalization  ....       0.000 sec  (  0.0%)
DIIS solution               ....       0.035 sec  (  0.1%)
  MO trafo                  ....       0.000 sec  (  0.0 % of DIIS)
  Orb grad                  ....       0.000 sec  (  0.0 % of DIIS)
  Energy W gradient         ....       0.000 sec  (  0.0 % of DIIS)
  DIIS error                ....       0.003 sec  (  9.9 % of DIIS)
  DIIS work                 ....       0.022 sec  ( 62.5 % of DIIS)
  Form Q                    ....       0.000 sec  (  0.0 % of DIIS)
  Form QpQm                 ....       0.000 sec  (  0.0 % of DIIS)
  Exp/Cayley                ....       0.000 sec  (  0.0 % of DIIS)
  Orb update                ....       0.000 sec  (  0.0 % of DIIS)
  Wake-sleep                ....       0.000 sec  (  0.8 % of DIIS)
SOSCF solution              ....       0.018 sec  (  0.1%)
  MO trafo                  ....       0.009 sec  ( 49.7 % of SOSCF)
  Orb grad                  ....       0.000 sec  (  1.0 % of SOSCF)
  Rot update                ....       0.001 sec  (  5.0 % of SOSCF)
  Step                      ....       0.008 sec  ( 44.0 % of SOSCF)
Grid generation             ....       0.062 sec  (  0.2%)
Finished LeanSCF after  34.6 sec

Maximum memory used throughout the entire LEANSCF-calculation: 22.5 MB
------------------   -----------------
gCP correction             0.008139781
------------------   -----------------

-------------------------   --------------------
FINAL SINGLE POINT ENERGY      -628.410551921949
-------------------------   --------------------


------------------------------------------------------------------------------
                              ORCA PROPERTY CALCULATIONS
------------------------------------------------------------------------------

GBWName                                 ... sp.gbw
Number of atoms                         ...     11
Number of basis functions               ...    197
Max core memory                         ...   1024 MB

Electric properties:
Dipole moment                           ... YES
Quadrupole moment                       ...  NO
Static polarizability (Dipole/Dipole)   ...  NO
Static polarizability (Dipole/Quad.)    ...  NO
Static polarizability (Quad./Quad.)     ...  NO
Static polarizability (Velocity)        ...  NO

Atomic electric properties:
Dipole moment                           ...  NO
Quadrupole moment                       ...  NO
Static polarizability                   ...  NO

Choice of electric origin               ... Center of mass
Position of electric origin             ...    -0.004739    -0.000198    -0.001189

General magnetic properties:
Magnetizability                         ...  NO

EPR properties:
g-Tensor (aka g-matrix)                 ...  NO
Zero-Field splitting spin-orbit         ...  NO
Zero-field splitting spin-spin          ...  NO
Hyperfine couplings                     ...  NO (   0 nuclei)
Quadrupole couplings                    ...  NO (   0 nuclei)
Contact density                         ...  NO (   0 nuclei)

NMR properties:
Chemical shifts                         ...  NO (   0 nuclei)
Spin-rotation constants                 ...  NO (   0 nuclei)
Spin-spin couplings                     ...  NO (   0 nuclei,    0 pairs)

Choice of magnetic origin               ... GIAO
Position of magnetic origin             ...     0.000000     0.000000     0.000000

Properties with geometric perturbations:
SCF Hessian                             ...  NO
IR spectrum                             ...  NO
VCD spectrum                            ...  NO
X-ray spectroscopy properties:
SCF XES/XAS/RIXS spectra                ...  NO


-------------
DIPOLE MOMENT
-------------

Method             : SCF
Type of density    : Electron Density
Multiplicity       :   1
Irrep              :   0
Energy             :  -628.4186917031495341 Eh
Relativity type    : 
Basis              : AO
                                X                 Y                 Z
Electronic contribution:     -0.014778240       4.872219057      -0.003375536
Nuclear contribution   :      0.033794335      -6.735342279       0.005278509
                        -----------------------------------------
Total Dipole Moment    :      0.019016095      -1.863123222       0.001902973
                        -----------------------------------------
Magnitude (a.u.)       :      1.863221236
Magnitude (Debye)      :      4.735932010



--------------------
Rotational spectrum 
--------------------
 
Rotational constants in cm-1:             0.147345             0.135897             0.132793 
Rotational constants in MHz :          4417.279376          4074.100441          3981.022275 

Dipole components along the rotational axes: 
x,y,z [a.u.] :    -0.150047    -1.857164     0.004436 
x,y,z [Debye]:    -0.381389    -4.720537     0.011276 

 

Dipole moment calculation done in   0.0 sec 

Maximum memory used throughout the entire PROP-calculation: 13.7 MB

--------------------------------
SUGGESTED CITATIONS FOR THIS RUN
--------------------------------

Below you find a list of papers that are relevant to this ORCA run
We neither can nor want to force you to cite these papers, but we appreciate if you do
You receive ORCA, which is the product of decades of hard work by many enthusiastic individuals, for free
The only thing we kindly ask in return is that you cite our papers,
We deeply appreciate it, if you show your appreciation for ORCA by not just citing the generic ORCA reference.

Please note that relegating all ORCA citations to the supporting information does *not* help us.
SI sections are not indexed - citations you put there will not count into any citation statistics
But we need these citations in order to attract the funding resources that allow us to do what we are doing

Therefore, if you are a happy ORCA user, please consider citing a few of the papers listed below in the main body of your paper

In addition to the list printed below, the program has created the file sp.bibtex that contains the list in bibtex format
You can import this file easily into all common literature databanks and citation aid programs


List of essential papers. We consider these as the minimum necessary citations

  1. Neese,F.
     Software update: the ORCA program system, version 5.0
     WIRES Comput. Molec. Sci., 2022 12(1)e1606
     doi.org/10.1002/wcms.1606

List of papers to cite with high priority. The work reported in these papers was absolutely
necessary for this run to complete.
Our perspective: the developers of density functionals and basis sets usually get cited in chemistry papers
Good! But without the algorithms to do something with them, the functionals or basis sets would not do anything.
Hence, in our opinion, the algorithm design and method developments papers are equally worthy of getting cited

  1. Neese,F.
     An improvement of the resolution of the identity approximation for the formation of the Coulomb matrix
     J. Comp. Chem., 2003 24(14)1740-1747
     doi.org/10.1002/jcc.10318
  2. Neese,F.; Wennmohs,F.; Hansen,A.; Becker,U.
     Efficient, approximate and parallel Hartree-Fock and hybrid DFT calculations. A 'chain-of-spheres' algorithm for the Hartree-Fock exchange
     Chem. Phys., 2009 356(1-3)98-109
     doi.org/10.1016/j.chemphys.2008.10.036
  3. Helmich-Paris,B.; de Souza,B.; Neese,F.; Izsák,R.
     An improved chain of spheres for exchange algorithm
     J. Chem. Phys., 2021 155 104109
     doi.org/doi: 10.1063/5.0058766.
  4. Neese,F.
     The SHARK Integral Generation and Digestion System
     J. Comp. Chem., 2022  1-16
     doi.org/10.1002/jcc.26942

List of suggested additional citations. These are papers that are important in the 'surrounding' of 
of this run, or papers that preceded the highly important papers. If you like your results we are grateful for a citation.

  1. Izsak,R.; Neese,F.
     An overlap fitted chain of spheres exchange method
     J. Chem. Phys., 2011 135 144105
     doi.org/10.1063/1.3646921
  2. Izsak,R.; Hansen,A.; Neese,F.
     The resolution of identity and chain of spheres approximations for the LPNO-CCSD singles Fock term
     Molec. Phys., 2012 110 2413-2417
     doi.org/10.1080/00268976.2012.687466
  3. Neese,F.
     The ORCA program system
     WIRES Comput. Molec. Sci., 2012 2(1)73-78
     doi.org/10.1002/wcms.81
  4. Izsak,R.; Neese,F.; Klopper,W.
     Robust fitting techniques in the chain of spheres approximation to the Fock exchange: The role of the complementary space
     J. Chem. Phys., 2013 139 
     doi.org/10.1063/1.4819264
  5. Neese,F.
     Software update: the ORCA program system, version 4.0
     WIRES Comput. Molec. Sci., 2018 8(1)1-6
     doi.org/10.1002/wcms.1327
  6. Neese,F.; Wennmohs,F.; Becker,U.; Riplinger,C.
     The ORCA quantum chemistry program package
     J. Chem. Phys., 2020 152 Art. No. L224108
     doi.org/10.1063/5.0004608

List of optional additional citations

  1. Neese,F.
     Approximate second-order SCF convergence for spin unrestricted wavefunctions
     Chem. Phys. Lett., 2000 325(1-3)93-98
     doi.org/10.1016/s0009-2614(00)00662-x

Timings for individual modules:

Sum of individual times          ...       35.307 sec (=   0.588 min)
Startup calculation              ...        0.586 sec (=   0.010 min)   1.7 %
SCF iterations                   ...       34.678 sec (=   0.578 min)  98.2 %
Property calculations            ...        0.043 sec (=   0.001 min)   0.1 %
                             ****ORCA TERMINATED NORMALLY****
TOTAL RUN TIME: 0 days 0 hours 0 minutes 35 seconds 356 msec
