
                                 *****************
                                 * O   R   C   A *
                                 *****************

                                            #,                                       
                                            ###                                      
                                            ####                                     
                                            #####                                    
                                            ######                                   
                                           ########,                                 
                                     ,,################,,,,,                         
                               ,,#################################,,                 
                          ,,##########################################,,             
                       ,#########################################, ''#####,          
                    ,#############################################,,   '####,        
                  ,##################################################,,,,####,       
                ,###########''''           ''''###############################       
              ,#####''   ,,,,##########,,,,          '''####'''          '####       
            ,##' ,,,,###########################,,,                        '##       
           ' ,,###''''                  '''############,,,                           
         ,,##''                                '''############,,,,        ,,,,,,###''
      ,#''                                            '''#######################'''  
     '                                                          ''''####''''         
             ,#######,   #######,   ,#######,      ##                                
            ,#'     '#,  ##    ##  ,#'     '#,    #''#        ,####,   ,####,        
            ##       ##  ##   ,#'  ##            #'  '#       #'       #'  '#        
            ##       ##  #######   ##           ,######,      #####,   #    #        
            '#,     ,#'  ##    ##  '#,     ,#' ,#      #,     #,   #   #,  ,#        
             '#######'   ##     ##  '#######'  #'      '#     '####' # '####'        



                #########################################################
                #                        -***-                          #
                #          Department of theory and spectroscopy        #
                #                                                       #
                #                      Frank Neese                      #
                #                                                       #
                #     Directorship, Architecture, Infrastructure        #
                #                    SHARK, DRIVERS                     #
                #        Core code/Algorithms in most modules           #
                #                                                       #
                #        Max Planck Institute fuer Kohlenforschung      #
                #                Kaiser Wilhelm Platz 1                 #
                #                 D-45470 Muelheim/Ruhr                 #
                #                      Germany                          #
                #                                                       #
                #                  All rights reserved                  #
                #                        -***-                          #
                #########################################################


                         Program Version 6.0.1  -  RELEASE   -


 With contributions from (in alphabetic order):
[Max-Planck-Institut fuer Kohlenforschung]                               
  Daniel Aravena         : Magnetic Suceptibility                        
  Michael Atanasov       : Ab Initio Ligand Field Theory (pilot matlab implementation)
  Alexander A. Auer      : GIAO ZORA, VPT2 properties, NMR spectrum      
  Ute Becker             : All parallelization in ORCA, NUMFREQ, NUMCALC 
  Giovanni Bistoni       : ED, misc. LED, open-shell LED, HFLD           
  Martin Brehm           : Molecular dynamics                            
  Dmytro Bykov           : pre 5.0 version of the SCF Hessian            
  Marcos Casanova-Páez   : Triplet and SCS-CIS(D). UHF-(DLPNO)-IP/EA/STEOM-CCSD. UHF-CVS-IP/STEOM-CCSD   
  Vijay G. Chilkuri      : MRCI spin determinant printing, contributions to CSF-ICE 
  Pauline Colinet        : FMM embedding                                 
  Dipayan Datta          : RHF DLPNO-CCSD density                        
  Achintya Kumar Dutta   : EOM-CC, STEOM-CC                              
  Nicolas Foglia         : Exact transition moments, OPA infrastructure, MCD improvements    
  Dmitry Ganyushin       : Spin-Orbit,Spin-Spin,Magnetic field MRCI      
  Miquel Garcia-Rates    : C-PCM and meta-GGA Hessian, CCSD/C-PCM, Gaussian charge scheme 
  Tiago L. C. Gouveia    : GS-ROHF, GS-ROCIS                             
  Yang Guo               : DLPNO-NEVPT2, F12-NEVPT2, CIM, IAO-localization        
  Andreas Hansen         : Spin unrestricted coupled pair/coupled cluster methods 
  Ingolf Harden          : AUTO-CI MPn and infrastructure                
  Benjamin Helmich-Paris : MC-RPA, TRAH-(SCF,CASSCF), AVAS, COSX integrals, SCF dyn. polar. 
  Lee Huntington         : MR-EOM, pCC                                   
  Robert Izsak           : Overlap fitted RIJCOSX, COSX-SCS-MP3, EOM     
  Riya Kayal             : Wick's Theorem for AUTO-CI, AUTO-CI UHF-CCSDT 
  Emily Kempfer          : AUTO-CI, RHF CISDT and CCSDT                  
  Christian Kollmar      : KDIIS, OOCD, Brueckner-CCSD(T), CCSD density, CASPT2, CASPT2-K, improved NEVPT2 
  Axel Koslowski         : Symmetry handling                             
  Simone Kossmann        : meta-GGA functionals, TD-DFT gradient, OOMP2, (MP2 Hessian; deprecated post 5.0) 
  Lucas Lang             : DCDCAS                                        
  Marvin Lechner         : AUTO-CI (C++ implementation), FIC-MRCC        
  Spencer Leger          : CASSCF response                               
  Dagmar Lenk            : GEPOL surface, SMD, ORCA-2-JSON               
  Dimitrios Liakos       : Extrapolation schemes; Compound Job, initial MDCI parallelization 
  Dimitrios Manganas     : Further ROCIS development; embedding schemes. LFT, Crystal Embedding 
  Dimitrios Pantazis     : SARC Basis sets                               
  Anastasios Papadopoulos: AUTO-CI, single reference methods and gradients 
  Taras Petrenko         : pre 6.0 DFT Hessian and TD-DFT gradient, (ASA, deprecated), ECA, 1-Electron XAS/XES, NRVS 
  Peter Pinski           : DLPNO-MP2, DLPNO-MP2 Gradient                 
  Christoph Reimann      : Effective Core Potentials                     
  Marius Retegan         : Local ZFS, SOC                                
  Christoph Riplinger    : Optimizer, TS searches, QM/MM, DLPNO-CCSD(T), (RO)-DLPNO pert. Triples 
  Michael Roemelt        : Original ROCIS implementation                 
  Masaaki Saitow         : Open-shell DLPNO-CCSD energy and density      
  Barbara Sandhoefer     : DKH picture change effects                    
  Kantharuban Sivalingam : CASSCF convergence/infrastructure, NEVPT2 and variants, FIC-MRCI 
  Bernardo de Souza      : ESD, SOC TD-DFT                               
  Georgi L. Stoychev     : AutoAux, RI-MP2 NMR, DLPNO-MP2 response, X2C  
  Van Anh Tran           : RI-MP2 g-tensors                              
  Willem Van den Heuvel  : Paramagnetic NMR                              
  Zikuan Wang            : NOTCH, Electric field optimization            
  Frank Wennmohs         : Technical directorship and infrastructure     
  Hang Xu                : AUTO-CI-Response properties                   
                                                                         
[FACCTs GmbH]                                                            
  Markus Bursch, Miquel Garcia-Rates, Christoph Riplinger, Bernardo de Souza, Georgi L. Stoychev 
                                                                 
  APM, Basis sets (HGBS, AHGBS, def-TZVP (Ac-Lr), def2-XVPD (La-Lu)), CI-OPT, improved COSX, DLPNO-Multilevel,           
  DOCKER, DRACO, updates on ESD, GOAT, IRC, LR-CPCM, MBIS, meta-GGA TD-DFT gradient, ML-optimized integration grids, 
  MM, NACMEs, nearIR, NEB, NEB-TS, NL-DFT gradient (VV10), 2- and 3-layer-ONIOM, interface openCOSMO-RS, QMMM,   
  Crystal-QMMM, SF, symmetry and pop. for TD-DFT, r2SCAN hybrids, SOLVATOR                                   
                                                                         
[Other institutions]                                                     
  V. Asgeirsson          : NEB                                           
  Christoph Bannwarth    : sTDA-DFT, sTD-DFT, PBEh-3c, B97-3c, D3        
  Sebastian Ehlert       : rSCAN, r2SCAN, r2SCAN-3c, D4, dhf basis sets  
  Marvin Friede          : D4 for Fr, Ra, Ac-Lr                          
  Lars Goerigk           : TD-DFT with DH, B97 family of functionals     
  Stefan Grimme          : VdW corrections, initial TS optimization, DFT functionals, gCP, sTDA/sTD-DF 
  Waldemar Hujo          : DFT-NL                                        
  H. Jonsson             : NEB                                           
  Holger Kruse           : gCP                                           
  Marcel Mueller         : wB97X-3c, vDZP basis set                      
  Hagen Neugebauer       : wr2SCAN                                       
  Tobias Risthaus        : range-separated hybrid DFT                    
  Lukas Wittmann         : regularized MP2, r2SCAN double-hybrids, wr2SCAN        
                                                                         
We gratefully acknowledge several colleagues who have allowed us to      
interface, adapt or use parts of their codes:                            
  Ed Valeev, F. Pavosevic, A. Kumar             : LibInt (2-el integral package), F12 methods 
  Garnet Chan, S. Sharma, J. Yang, R. Olivares  : DMRG                   
  Ulf Ekstrom                                   : XCFun DFT Library      
  Mihaly Kallay                                 : mrcc  (arbitrary order and MRCC methods)
  Frank Weinhold                                : gennbo (NPA and NBO analysis)           
  Simon Mueller                                 : openCOSMO-RS                            
  Christopher J. Cramer and Donald G. Truhlar   : smd solvation model                     
  S Lehtola, MJT Oliveira, MAL Marques          : LibXC Library                           
  Liviu Ungur et al                             : ANISO software                          


 Your calculation uses the libint2 library for the computation of 2-el integrals
 For citations please refer to: http://libint.valeyev.net

 Your ORCA version has been built with support for libXC version: 6.2.2
 For citations please refer to: https://libxc.gitlab.io

 This ORCA versions uses:
   CBLAS   interface :  Fast vector & matrix operations
   LAPACKE interface :  Fast linear algebra routines
   SCALAPACK package :  Parallel linear algebra routines
   Shared memory     :  Shared parallel matrices
   BLAS/LAPACK       :  OpenBLAS 0.3.27  USE64BITINT DYNAMIC_ARCH NO_AFFINITY Zen SINGLE_THREADED
        Core in use  :  Zen
   Copyright (c) 2011-2014, The OpenBLAS Project


Your calculation utilizes the geometrical counterpoise correction gCP
Please cite in your paper:
H.Kruse, S. Grimme J.Chem.Phys., 136, (2012), 154101 
   

Your calculation utilizes the atom-pairwise dispersion correction
based on EEQ partial charges (D4)


================================================================================

----- Orbital basis set information -----
Your calculation utilizes the basis: def2-SV(P)
   F. Weigend and R. Ahlrichs, Phys. Chem. Chem. Phys. 7, 3297 (2005).

----- AuxJ basis set information -----
Your calculation utilizes the auxiliary basis: def2/J
   F. Weigend, Phys. Chem. Chem. Phys. 8, 1057 (2006).

================================================================================
                                        WARNINGS
                       Please study these warnings very carefully!
================================================================================


================================================================================
                                       INPUT FILE
================================================================================
NAME = sp.inp
|  1> ! pbe def2-sv(p) def2/J RI DEFGRID1 loosescf d4 GCP(DFT/SV(P)) printgap
|  2> %output
|  3>     printlevel normal
|  4> end
|  5> * xyz 0 1
|  6> C -2.5608674364 0.6225142244 0.0001686588
|  7> C -1.225776805 -0.0575978717 3.86805e-05
|  8> C -1.1491640545 -1.4446284688 -8.5351e-06
|  9> C 0.0756663889 -2.0833344162 -9.22892e-05
| 10> C 1.2400414585 -1.3387431535 -1.21912e-05
| 11> C 1.1768751546 0.0480526559 -8.8604e-06
| 12> C -0.0572801191 0.7034574026 -7.98265e-05
| 13> C -0.1075705006 2.2012964099 -0.0001895747
| 14> O 2.3178584625 0.8022364212 0.0001550985
| 15> H -2.6684822499 1.2557910156 -0.8798056559
| 16> H -3.3651488883 -0.1085822962 0.0015179617
| 17> H -2.6673221791 1.2578060086 0.8788153855
| 18> H -2.0582922591 -2.0279281042 -8.03896e-05
| 19> H 0.1279599902 -3.1618263222 -0.0003069295
| 20> H 2.204596798 -1.8303973339 -3.4721e-06
| 21> H -0.6349753372 2.5664620069 -0.8807973876
| 22> H -0.6343357815 2.5668952876 0.8806776689
| 23> H 0.8991776499 2.6067648525 -0.0007109295
| 24> H 3.0832148699 0.2159574664 0.0004236761
| 25> *
| 26> 
| 27>                          ****END OF INPUT****
================================================================================

                       ****************************
                       * Single Point Calculation *
                       ****************************

---------------------------------
CARTESIAN COORDINATES (ANGSTROEM)
---------------------------------
  C     -2.560867    0.622514    0.000169
  C     -1.225777   -0.057598    0.000039
  C     -1.149164   -1.444628   -0.000009
  C      0.075666   -2.083334   -0.000092
  C      1.240041   -1.338743   -0.000012
  C      1.176875    0.048053   -0.000009
  C     -0.057280    0.703457   -0.000080
  C     -0.107571    2.201296   -0.000190
  O      2.317858    0.802236    0.000155
  H     -2.668482    1.255791   -0.879806
  H     -3.365149   -0.108582    0.001518
  H     -2.667322    1.257806    0.878815
  H     -2.058292   -2.027928   -0.000080
  H      0.127960   -3.161826   -0.000307
  H      2.204597   -1.830397   -0.000003
  H     -0.634975    2.566462   -0.880797
  H     -0.634336    2.566895    0.880678
  H      0.899178    2.606765   -0.000711
  H      3.083215    0.215957    0.000424

----------------------------
CARTESIAN COORDINATES (A.U.)
----------------------------
  NO LB      ZA    FRAG     MASS         X           Y           Z
   0 C     6.0000    0    12.011   -4.839338    1.176381    0.000319
   1 C     6.0000    0    12.011   -2.316382   -0.108844    0.000073
   2 C     6.0000    0    12.011   -2.171605   -2.729952   -0.000016
   3 C     6.0000    0    12.011    0.142989   -3.936931   -0.000174
   4 C     6.0000    0    12.011    2.343339   -2.529858   -0.000023
   5 C     6.0000    0    12.011    2.223972    0.090806   -0.000017
   6 C     6.0000    0    12.011   -0.108244    1.329342   -0.000151
   7 C     6.0000    0    12.011   -0.203279    4.159847   -0.000358
   8 O     8.0000    0    15.999    4.380118    1.516007    0.000293
   9 H     1.0000    0     1.008   -5.042701    2.373101   -1.662592
  10 H     1.0000    0     1.008   -6.359210   -0.205191    0.002869
  11 H     1.0000    0     1.008   -5.040508    2.376909    1.660720
  12 H     1.0000    0     1.008   -3.889609   -3.832229   -0.000152
  13 H     1.0000    0     1.008    0.241809   -5.974986   -0.000580
  14 H     1.0000    0     1.008    4.166084   -3.458950   -0.000007
  15 H     1.0000    0     1.008   -1.199929    4.849910   -1.664466
  16 H     1.0000    0     1.008   -1.198721    4.850729    1.664240
  17 H     1.0000    0     1.008    1.699200    4.926072   -0.001343
  18 H     1.0000    0     1.008    5.826432    0.408100    0.000801

--------------------------------
INTERNAL COORDINATES (ANGSTROEM)
--------------------------------
 C      0   0   0     0.000000000000     0.00000000     0.00000000
 C      1   0   0     1.498338904990     0.00000000     0.00000000
 C      2   1   0     1.389144842362   120.15639487     0.00000000
 C      3   2   1     1.381359804446   120.70197944   180.00173300
 C      4   3   2     1.382094590689   119.86155862     0.00000000
 C      5   4   3     1.388233625486   119.99005871     0.00000000
 C      2   1   3     1.394485442571   119.92847110   179.99787846
 C      7   2   1     1.498683030632   121.15365898     0.00000000
 O      6   5   4     1.367711990015   120.85655910   179.99583559
 H      1   2   3     1.089483931451   110.59656405   239.64129900
 H      1   2   3     1.086909654443   110.73409993     0.07353643
 H      1   2   3     1.089471584602   110.59869053   120.50958369
 H      3   2   1     1.080163210918   119.52283926     0.00000000
 H      4   3   2     1.079758981493   120.31642181   180.01096042
 H      5   4   3     1.082631440583   120.39311628   179.99550045
 H      8   7   2     1.089482397766   110.56612289   300.31066331
 H      8   7   2     1.089528017714   110.58109546    59.72367676
 H      8   7   2     1.085332561149   110.01414122   180.02461023
 H      9   6   5     0.964102440264   109.08264716     0.00000000

---------------------------
INTERNAL COORDINATES (A.U.)
---------------------------
 C      0   0   0     0.000000000000     0.00000000     0.00000000
 C      1   0   0     2.831450186231     0.00000000     0.00000000
 C      2   1   0     2.625103312413   120.15639487     0.00000000
 C      3   2   1     2.610391722809   120.70197944   180.00173300
 C      4   3   2     2.611780267576   119.86155862     0.00000000
 C      5   4   3     2.623381362068   119.99005871     0.00000000
 C      2   1   3     2.635195584200   119.92847110   179.99787846
 C      7   2   1     2.832100489450   121.15365898     0.00000000
 O      6   5   4     2.584601091209   120.85655910   179.99583559
 H      1   2   3     2.058826257749   110.59656405   239.64129900
 H      1   2   3     2.053961579213   110.73409993     0.07353643
 H      1   2   3     2.058802925588   110.59869053   120.50958369
 H      3   2   1     2.041212648571   119.52283926     0.00000000
 H      4   3   2     2.040448765664   120.31642181   180.01096042
 H      5   4   3     2.045876926674   120.39311628   179.99550045
 H      8   7   2     2.058823359506   110.56612289   300.31066331
 H      8   7   2     2.058909568714   110.58109546    59.72367676
 H      8   7   2     2.050981304799   110.01414122   180.02461023
 H      9   6   5     1.821889577145   109.08264716     0.00000000

---------------------
BASIS SET INFORMATION
---------------------
There are 3 groups of distinct atoms

 Group   1 Type C   : 7s4p1d contracted to 3s2p1d pattern {511/31/1}
 Group   2 Type O   : 7s4p1d contracted to 3s2p1d pattern {511/31/1}
 Group   3 Type H   : 4s contracted to 2s pattern {31}

Atom   0C    basis set group =>   1
Atom   1C    basis set group =>   1
Atom   2C    basis set group =>   1
Atom   3C    basis set group =>   1
Atom   4C    basis set group =>   1
Atom   5C    basis set group =>   1
Atom   6C    basis set group =>   1
Atom   7C    basis set group =>   1
Atom   8O    basis set group =>   2
Atom   9H    basis set group =>   3
Atom  10H    basis set group =>   3
Atom  11H    basis set group =>   3
Atom  12H    basis set group =>   3
Atom  13H    basis set group =>   3
Atom  14H    basis set group =>   3
Atom  15H    basis set group =>   3
Atom  16H    basis set group =>   3
Atom  17H    basis set group =>   3
Atom  18H    basis set group =>   3
---------------------------------
AUXILIARY/J BASIS SET INFORMATION
---------------------------------
There are 3 groups of distinct atoms

 Group   1 Type C   : 12s5p4d2f1g contracted to 6s4p3d1f1g pattern {711111/2111/211/2/1}
 Group   2 Type O   : 12s5p4d2f1g contracted to 6s4p3d1f1g pattern {711111/2111/211/2/1}
 Group   3 Type H   : 5s2p1d contracted to 3s1p1d pattern {311/2/1}

Atom   0C    basis set group =>   1
Atom   1C    basis set group =>   1
Atom   2C    basis set group =>   1
Atom   3C    basis set group =>   1
Atom   4C    basis set group =>   1
Atom   5C    basis set group =>   1
Atom   6C    basis set group =>   1
Atom   7C    basis set group =>   1
Atom   8O    basis set group =>   2
Atom   9H    basis set group =>   3
Atom  10H    basis set group =>   3
Atom  11H    basis set group =>   3
Atom  12H    basis set group =>   3
Atom  13H    basis set group =>   3
Atom  14H    basis set group =>   3
Atom  15H    basis set group =>   3
Atom  16H    basis set group =>   3
Atom  17H    basis set group =>   3
Atom  18H    basis set group =>   3
------------------------------------------------------------------------------
                             ORCA STARTUP CALCULATIONS
                           -- RI-GTO INTEGRALS CHOSEN --
------------------------------------------------------------------------------
------------------------------------------------------------------------------
                   ___                                                        
                  /   \      - P O W E R E D   B Y -                         
                 /     \                                                     
                 |  |  |   _    _      __       _____    __    __             
                 |  |  |  | |  | |    /  \     |  _  \  |  |  /  |          
                  \  \/   | |  | |   /    \    | | | |  |  | /  /          
                 / \  \   | |__| |  /  /\  \   | |_| |  |  |/  /          
                |  |  |   |  __  | /  /__\  \  |    /   |      \           
                |  |  |   | |  | | |   __   |  |    \   |  |\   \          
                \     /   | |  | | |  |  |  |  | |\  \  |  | \   \       
                 \___/    |_|  |_| |__|  |__|  |_| \__\ |__|  \__/        
                                                                              
                      - O R C A' S   B I G   F R I E N D -                    
                                      &                                       
                       - I N T E G R A L  F E E D E R -                       
                                                                              
 v1 FN, 2020, v2 2021, v3 2022-2024                                           
------------------------------------------------------------------------------


----------------------
SHARK INTEGRAL PACKAGE
----------------------

Number of atoms                             ...     19
Number of basis functions                   ...    146
Number of shells                            ...     74
Maximum angular momentum                    ...      2
Integral batch strategy                     ... SHARK/LIBINT Hybrid
RI-J (if used) integral strategy            ... SPLIT-RIJ (Revised 2003 algorithm where possible)
Printlevel                                  ...      1
Contraction scheme used                     ... SEGMENTED contraction
Prescreening option                         ... SCHWARTZ
   Thresh                                   ... 1.000e-09
   Tcut                                     ... 1.000e-10
   Tpresel                                  ... 1.000e-10 
Coulomb Range Separation                    ... NOT USED
Exchange Range Separation                   ... NOT USED
Multipole approximations                    ... NOT USED
Finite Nucleus Model                        ... NOT USED
CABS basis                                  ... NOT available
Auxiliary Coulomb fitting basis             ... AVAILABLE
   # of basis functions in Aux-J            ...    551
   # of shells in Aux-J                     ...    185
   Maximum angular momentum in Aux-J        ...      4
Auxiliary J/K fitting basis                 ... NOT available
Auxiliary Correlation fitting basis         ... NOT available
Auxiliary 'external' fitting basis          ... NOT available

Checking pre-screening integrals            ... done (  0.0 sec) Dimension = 74
Check shell pair data                       ... done (  0.0 sec)
Shell pair information
Shell pair cut-off parameter TPreSel        ...   1.0e-10
Total number of shell pairs                 ...      2775
Shell pairs after pre-screening             ...      2626
Total number of primitive shell pairs       ...     11173
Primitive shell pairs kept                  ...      7392
          la=0 lb=0:   1041 shell pairs
          la=1 lb=0:    817 shell pairs
          la=1 lb=1:    170 shell pairs
          la=2 lb=0:    394 shell pairs
          la=2 lb=1:    160 shell pairs
          la=2 lb=2:     44 shell pairs

Calculating one electron integrals          ... done (  0.0 sec)
Calculating RI/J V-Matrix + Cholesky decomp.... done (  0.0 sec)
Calculating Nuclear repulsion               ... done (  0.0 sec) ENN=    433.261404320588 Eh

Diagonalization of the overlap matrix:
Smallest eigenvalue                        ... 2.118e-04
Time for diagonalization                   ...    0.001 sec
Threshold for overlap eigenvalues          ... 1.000e-07
Number of eigenvalues below threshold      ... 0
Time for construction of square roots      ...    0.000 sec
Total time needed                          ...    0.003 sec

-------------------
DFT GRID GENERATION
-------------------

General Integration Accuracy     IntAcc      ... 4.159
Radial Grid Type                 RadialGrid  ... OptM3 with GC (2021)
Angular Grid (max. ang.)         AngularGrid ... 3 (Lebedev-194)
Angular grid pruning method      GridPruning ... 4 (adaptive)
Weight generation scheme         WeightScheme... mBecke (2022)
Basis function cutoff            BFCut       ... 1.0000e-10
Integration weight cutoff        WCut        ... 1.0000e-14
Partially contracted basis set               ... off
Rotationally invariant grid construction     ... off
Angular grids for H and He will be reduced by one unit

Total number of grid points                  ...    43333
Total number of batches                      ...      686
Average number of points per batch           ...       63
Average number of grid points per atom       ...     2281
Initializing property integral containers    ... done (  0.0 sec)

SHARK setup successfully completed in   0.3 seconds

Maximum memory used throughout the entire STARTUP-calculation: 21.7 MB
-------------------------------------------------------------------------------
                                 ORCA GUESS
                   Start orbitals & Density for SCF / CASSCF
-------------------------------------------------------------------------------

------------
SCF SETTINGS
------------
Hamiltonian:
 Density Functional     Method          .... DFT(GTOs)
 Exchange Functional    Exchange        .... PBE
   PBE kappa parameter   XKappa         ....  0.804000
   PBE mue parameter    XMuePBE         ....  0.219520
 Correlation Functional Correlation     .... PBE
   PBE beta parameter  CBetaPBE         ....  0.066725
 LDA part of GGA corr.  LDAOpt          .... PW91-LDA
 Gradients option       PostSCFGGA      .... off
   NL short-range parameter             ....  6.400000
 RI-approximation to the Coulomb term is turned on
   Number of AuxJ basis functions       .... 551


General Settings:
 Integral files         IntName         .... sp
 Hartree-Fock type      HFTyp           .... RHF
 Total Charge           Charge          ....    0
 Multiplicity           Mult            ....    1
 Number of Electrons    NEL             ....   66
 Basis Dimension        Dim             ....  146
 Nuclear Repulsion      ENuc            ....    433.2614043206 Eh

Convergence Acceleration:
 AO-DIIS                CNVDIIS         .... on
   Start iteration      DIISMaxIt       ....    12
   Startup error        DIISStart       ....  0.200000
   # of expansion vecs  DIISMaxEq       ....     5
   Bias factor          DIISBfac        ....   1.050
   Max. coefficient     DIISMaxC        ....  10.000
 MO-DIIS                CNVKDIIS        .... off
 Trust-Rad. Augm. Hess. CNVTRAH         .... auto
   Auto Start mean grad. ratio tolernc. ....  1.125000
   Auto Start start iteration           ....    50
   Auto Start num. interpolation iter.  ....    10
   Max. Number of Micro iterations      ....    24
   Max. Number of Macro iterations      .... Maxiter - #DIIS iter
   Number of Davidson start vectors     ....     2
   Converg. threshold    (grad. norm)   ....   1.000e-04
   Grad. Scal. Fac. for Micro threshold ....   0.100
   Minimum threshold for Micro iter.    ....   1.000e-02
   NR start threshold (gradient norm)   ....   1.000e-04
   Initial trust radius                 ....   0.400
   Minimum AH scaling param. (alpha)    ....   1.000
   Maximum AH scaling param. (alpha)    .... 1000.000
   Quad. conv. algorithm                .... NR
   White noise on init. David. guess    .... on
   Maximum white noise                  ....   0.010
   Pseudo random numbers                .... off
   Inactive MOs                         .... canonical
   Orbital update algorithm             .... Taylor
   Preconditioner                       .... Diag
   Full preconditioner red. dimension   ....   250
 SOSCF                  CNVSOSCF        .... on
   Start iteration      SOSCFMaxIt      ....   150
   Startup grad/error   SOSCFStart      ....  0.003300
   Hessian update       SOSCFHessUp     .... L-BFGS
 Level Shifting         CNVShift        .... on
   Level shift para.    LevelShift      ....    0.2500
   Turn off err/grad.   ShiftErr        ....    0.0010
 Zerner damping         CNVZerner       .... off
 Static damping         CNVDamp         .... on
   Fraction old density DampFac         ....    0.7000
   Max. Damping (<1)    DampMax         ....    0.9800
   Min. Damping (>=0)   DampMin         ....    0.0000
   Turn off err/grad.   DampErr         ....    0.1000

SCF Procedure:
 Maximum # iterations   MaxIter         ....   125
 SCF integral mode      SCFMode         .... Direct
   Integral package                     .... SHARK and LIBINT hybrid scheme
 Reset frequency        DirectResetFreq ....    20
 Integral Threshold     Thresh          ....  1.000e-09 Eh
 Primitive CutOff       TCut            ....  1.000e-10 Eh

Convergence Tolerance:
 Convergence Check Mode ConvCheckMode   .... Total+1el-Energy
 Convergence forced     ConvForced      .... 0
 Energy Change          TolE            ....  1.000e-05 Eh
 1-El. energy change                    ....  1.000e-02 Eh
 Orbital Gradient       TolG            ....  1.000e-04
 Orbital Rotation angle TolX            ....  1.000e-04
 DIIS Error             TolErr          ....  5.000e-04

------------------------------
INITIAL GUESS: MODEL POTENTIAL
------------------------------
Loading Hartree-Fock densities                     ... done
Calculating cut-offs                               ... done
Initializing the effective Hamiltonian             ... done
Setting up the integral package (SHARK)            ... done
Starting the Coulomb interaction                   ... done (   0.1 sec)
Making the grid                                    ... done (   0.1 sec)
Mapping shells                                     ... done
Starting the XC term evaluation                    ... done (   0.1 sec)
  promolecular density results
     # of electrons  =     65.990977017
     EX              =    -52.059651920
     EC              =     -2.186698623
     EX+EC           =    -54.246350543
Transforming the Hamiltonian                       ... done (   0.0 sec)
Diagonalizing the Hamiltonian                      ... done (   0.0 sec)
Back transforming the eigenvectors                 ... done (   0.0 sec)
Now organizing SCF variables                       ... done
                      ------------------
                      INITIAL GUESS DONE (   0.3 sec)
                      ------------------
             **** ENERGY FILE WAS UPDATED (sp.en.tmp) ****
Finished Guess after   0.3 sec
Maximum memory used throughout the entire GUESS-calculation: 16.9 MB

-------------------------------------------------------------------------------------------
                                      ORCA LEAN-SCF
                              memory conserving SCF solver
-------------------------------------------------------------------------------------------

----------------------------------------D-I-I-S--------------------------------------------
Iteration    Energy (Eh)           Delta-E    RMSDP     MaxDP     DIISErr   Damp  Time(sec)
-------------------------------------------------------------------------------------------
               ***  Starting incremental Fock matrix formation  ***
    1    -385.0840961515324352     0.00e+00  4.35e-03  7.86e-02  1.76e-01  0.700   0.3
    2    -385.1884734308800944    -1.04e-01  3.13e-03  4.60e-02  7.77e-02  0.700   0.3
                               ***Turning on AO-DIIS***
    3    -385.2268214631602632    -3.83e-02  1.21e-03  1.42e-02  2.47e-02  0.700   0.3
    4    -385.2490022230873592    -2.22e-02  1.83e-03  2.29e-02  1.04e-02  0.000   0.3
    5    -385.2984806803616493    -4.95e-02  5.24e-04  6.65e-03  9.26e-03  0.000   0.3
                              *** Initializing SOSCF ***
---------------------------------------S-O-S-C-F--------------------------------------
Iteration    Energy (Eh)           Delta-E    RMSDP     MaxDP     MaxGrad    Time(sec)
--------------------------------------------------------------------------------------
    6    -385.2989003414915032    -4.20e-04  1.89e-04  2.71e-03  2.07e-03     0.3
               *** Restarting incremental Fock matrix formation ***
    7    -385.2989371981408340    -3.69e-05  1.07e-04  1.64e-03  2.64e-04     0.3
    8    -385.2989341012624891     3.10e-06  4.89e-05  1.07e-03  7.10e-04     0.3
                 **** Energy Check signals convergence ****

               *****************************************************
               *                     SUCCESS                       *
               *           SCF CONVERGED AFTER   8 CYCLES          *
               *****************************************************

             **** ENERGY FILE WAS UPDATED (sp.en.tmp) ****

----------------
TOTAL SCF ENERGY
----------------

Total Energy       :       -385.29893410126249 Eh          -10484.51702 eV

Components:
Nuclear Repulsion  :        433.26140432058776 Eh           11789.64219 eV
Electronic Energy  :       -818.56033842185025 Eh          -22274.15920 eV
One Electron Energy:      -1380.17660302846093 Eh          -37556.51470 eV
Two Electron Energy:        561.61626460661068 Eh           15282.35550 eV

Virial components:
Potential Energy   :       -767.34783813768411 Eh          -20880.59622 eV
Kinetic Energy     :        382.04890403642162 Eh           10396.07921 eV
Virial Ratio       :          2.00850684305204

DFT components:
N(Alpha)           :       33.000403550215 electrons
N(Beta)            :       33.000403550215 electrons
N(Total)           :       66.000807100430 electrons
E(X)               :      -53.055234282832 Eh       
E(C)               :       -2.202300249654 Eh       
E(XC)              :      -55.257534532485 Eh       

---------------
SCF CONVERGENCE
---------------

  Last Energy change         ...   -3.0969e-06  Tolerance :   1.0000e-05
  Last MAX-Density change    ...    1.0654e-03  Tolerance :   1.0000e-03
  Last RMS-Density change    ...    4.8895e-05  Tolerance :   1.0000e-04
  Last DIIS Error            ...    2.0671e-03  Tolerance :   5.0000e-04
  Last Orbital Gradient      ...    7.0992e-04  Tolerance :   1.0000e-04
  Last Orbital Rotation      ...    1.4433e-03  Tolerance :   1.0000e-04


----------------
ORBITAL ENERGIES
----------------

  NO   OCC          E(Eh)            E(eV) 
   0   2.0000     -18.777297      -510.9562 
   1   2.0000      -9.943855      -270.5861 
   2   2.0000      -9.895038      -269.2577 
   3   2.0000      -9.889874      -269.1171 
   4   2.0000      -9.885451      -268.9968 
   5   2.0000      -9.883784      -268.9514 
   6   2.0000      -9.880172      -268.8531 
   7   2.0000      -9.876783      -268.7609 
   8   2.0000      -9.874286      -268.6930 
   9   2.0000      -0.959148       -26.0998 
  10   2.0000      -0.771846       -21.0030 
  11   2.0000      -0.698583       -19.0094 
  12   2.0000      -0.676636       -18.4122 
  13   2.0000      -0.618807       -16.8386 
  14   2.0000      -0.600604       -16.3433 
  15   2.0000      -0.550455       -14.9787 
  16   2.0000      -0.515761       -14.0346 
  17   2.0000      -0.469222       -12.7682 
  18   2.0000      -0.434720       -11.8293 
  19   2.0000      -0.427192       -11.6245 
  20   2.0000      -0.390884       -10.6365 
  21   2.0000      -0.374503       -10.1908 
  22   2.0000      -0.356303        -9.6955 
  23   2.0000      -0.355990        -9.6870 
  24   2.0000      -0.347511        -9.4563 
  25   2.0000      -0.340810        -9.2739 
  26   2.0000      -0.340799        -9.2736 
  27   2.0000      -0.322741        -8.7822 
  28   2.0000      -0.297724        -8.1015 
  29   2.0000      -0.284419        -7.7394 
  30   2.0000      -0.283741        -7.7210 
  31   2.0000      -0.209968        -5.7135 
  32   2.0000      -0.187579        -5.1043 
  33   0.0000      -0.026483        -0.7206 
  34   0.0000      -0.009614        -0.2616 
  35   0.0000       0.024771         0.6741 
  36   0.0000       0.046928         1.2770 
  37   0.0000       0.056487         1.5371 
  38   0.0000       0.088921         2.4197 
  39   0.0000       0.090472         2.4619 
  40   0.0000       0.109539         2.9807 
  41   0.0000       0.117645         3.2013 
  42   0.0000       0.121010         3.2928 
  43   0.0000       0.139289         3.7903 
*Only the first 10 virtual orbitals were printed.

                    ********************************
                    * MULLIKEN POPULATION ANALYSIS *
                    ********************************

-----------------------
MULLIKEN ATOMIC CHARGES
-----------------------
   0 C :   -0.210780
   1 C :   -0.025971
   2 C :   -0.137166
   3 C :   -0.044640
   4 C :   -0.163435
   5 C :    0.167316
   6 C :   -0.097480
   7 C :   -0.198303
   8 O :   -0.341448
   9 H :    0.109584
  10 H :    0.100609
  11 H :    0.109539
  12 H :    0.027586
  13 H :    0.045456
  14 H :    0.018876
  15 H :    0.104625
  16 H :    0.104680
  17 H :    0.115899
  18 H :    0.315053
Sum of atomic charges:   -0.0000000

--------------------------------
MULLIKEN REDUCED ORBITAL CHARGES
--------------------------------
  0 C s       :     2.990058  s :     2.990058
      pz      :     1.069371  p :     3.191863
      px      :     1.058677
      py      :     1.063815
      dz2     :     0.004964  d :     0.028859
      dxz     :     0.002936
      dyz     :     0.008760
      dx2y2   :     0.004351
      dxy     :     0.007848

  1 C s       :     3.068506  s :     3.068506
      pz      :     0.973376  p :     2.915352
      px      :     1.037106
      py      :     0.904871
      dz2     :     0.002698  d :     0.042113
      dxz     :     0.006193
      dyz     :     0.007345
      dx2y2   :     0.012847
      dxy     :     0.013031

  2 C s       :     3.264404  s :     3.264404
      pz      :     1.045578  p :     2.838205
      px      :     0.811270
      py      :     0.981356
      dz2     :     0.003171  d :     0.034557
      dxz     :     0.003285
      dyz     :     0.005129
      dx2y2   :     0.010055
      dxy     :     0.012916

  3 C s       :     3.187993  s :     3.187993
      pz      :     0.994632  p :     2.820601
      px      :     0.987293
      py      :     0.838677
      dz2     :     0.003127  d :     0.036046
      dxz     :     0.007896
      dyz     :     0.001948
      dx2y2   :     0.013949
      dxy     :     0.009126

  4 C s       :     3.259505  s :     3.259505
      pz      :     1.091013  p :     2.870962
      px      :     0.804288
      py      :     0.975662
      dz2     :     0.003316  d :     0.032968
      dxz     :     0.002863
      dyz     :     0.005631
      dx2y2   :     0.011560
      dxy     :     0.009598

  5 C s       :     2.965669  s :     2.965669
      pz      :     0.991782  p :     2.795596
      px      :     0.929283
      py      :     0.874530
      dz2     :     0.004972  d :     0.071419
      dxz     :     0.013635
      dyz     :     0.010146
      dx2y2   :     0.019556
      dxy     :     0.023111

  6 C s       :     3.099452  s :     3.099452
      pz      :     1.040561  p :     2.958941
      px      :     0.952553
      py      :     0.965828
      dz2     :     0.002787  d :     0.039087
      dxz     :     0.005841
      dyz     :     0.006449
      dx2y2   :     0.011037
      dxy     :     0.012973

  7 C s       :     2.973871  s :     2.973871
      pz      :     1.057806  p :     3.195580
      px      :     1.074630
      py      :     1.063144
      dz2     :     0.004994  d :     0.028852
      dxz     :     0.005367
      dyz     :     0.006509
      dx2y2   :     0.006032
      dxy     :     0.005950

  8 O s       :     3.749201  s :     3.749201
      pz      :     1.832081  p :     4.575930
      px      :     1.193362
      py      :     1.550488
      dz2     :     0.002752  d :     0.016317
      dxz     :     0.001147
      dyz     :     0.001867
      dx2y2   :     0.001772
      dxy     :     0.008779

  9 H s       :     0.890416  s :     0.890416

 10 H s       :     0.899391  s :     0.899391

 11 H s       :     0.890461  s :     0.890461

 12 H s       :     0.972414  s :     0.972414

 13 H s       :     0.954544  s :     0.954544

 14 H s       :     0.981124  s :     0.981124

 15 H s       :     0.895375  s :     0.895375

 16 H s       :     0.895320  s :     0.895320

 17 H s       :     0.884101  s :     0.884101

 18 H s       :     0.684947  s :     0.684947


------------------------
MULLIKEN OVERLAP CHARGES
------------------------
B(  0-C ,  1-C ) :   0.8844 B(  0-C ,  2-C ) :  -0.2327 B(  0-C ,  6-C ) :  -0.2335 
B(  0-C ,  7-C ) :  -0.0726 B(  0-C ,  9-H ) :   0.6839 B(  0-C , 10-H ) :   0.7055 
B(  0-C , 11-H ) :   0.6839 B(  1-C ,  2-C ) :   0.4570 B(  1-C ,  3-C ) :   0.3481 
B(  1-C ,  4-C ) :  -0.3820 B(  1-C ,  5-C ) :   0.3069 B(  1-C ,  6-C ) :   0.4843 
B(  1-C ,  7-C ) :  -0.2011 B(  1-C , 12-H ) :  -0.1677 B(  2-C ,  3-C ) :   0.3019 
B(  2-C ,  4-C ) :   0.3351 B(  2-C ,  5-C ) :  -0.4342 B(  2-C ,  6-C ) :   0.2559 
B(  2-C , 12-H ) :   0.8756 B(  2-C , 13-H ) :  -0.1814 B(  3-C ,  4-C ) :   0.1720 
B(  3-C ,  5-C ) :   0.4287 B(  3-C ,  6-C ) :  -0.3481 B(  3-C , 12-H ) :  -0.1928 
B(  3-C , 13-H ) :   0.8797 B(  3-C , 14-H ) :  -0.1529 B(  4-C ,  5-C ) :   0.2593 
B(  4-C ,  6-C ) :   0.1317 B(  4-C ,  8-O ) :  -0.1754 B(  4-C , 13-H ) :  -0.1768 
B(  4-C , 14-H ) :   0.8361 B(  5-C ,  6-C ) :   0.2948 B(  5-C ,  7-C ) :  -0.1991 
B(  5-C ,  8-O ) :   0.8501 B(  5-C , 14-H ) :  -0.1962 B(  5-C , 18-H ) :  -0.0744 
B(  6-C ,  7-C ) :   0.8251 B(  6-C ,  8-O ) :  -0.1782 B(  7-C , 15-H ) :   0.6885 
B(  7-C , 16-H ) :   0.6886 B(  7-C , 17-H ) :   0.7106 B(  8-O , 18-H ) :   0.5395 



                     *******************************
                     * LOEWDIN POPULATION ANALYSIS *
                     *******************************

----------------------
LOEWDIN ATOMIC CHARGES
----------------------
   0 C :   -0.319636
   1 C :   -0.040502
   2 C :   -0.149579
   3 C :   -0.121851
   4 C :   -0.181692
   5 C :    0.024607
   6 C :   -0.073050
   7 C :   -0.325244
   8 O :   -0.239462
   9 H :    0.130045
  10 H :    0.123915
  11 H :    0.130018
  12 H :    0.118310
  13 H :    0.122193
  14 H :    0.117163
  15 H :    0.128519
  16 H :    0.128522
  17 H :    0.131191
  18 H :    0.296531

-------------------------------
LOEWDIN REDUCED ORBITAL CHARGES
-------------------------------
  0 C s       :     2.933955  s :     2.933955
      pz      :     1.122475  p :     3.314936
      px      :     1.078807
      py      :     1.113654
      dz2     :     0.012999  d :     0.070745
      dxz     :     0.005763
      dyz     :     0.021296
      dx2y2   :     0.010224
      dxy     :     0.020463

  1 C s       :     2.847946  s :     2.847946
      pz      :     0.959377  p :     3.081820
      px      :     1.046196
      py      :     1.076247
      dz2     :     0.007057  d :     0.110736
      dxz     :     0.012189
      dyz     :     0.015196
      dx2y2   :     0.037580
      dxy     :     0.038714

  2 C s       :     2.886983  s :     2.886983
      pz      :     1.037518  p :     3.170769
      px      :     1.065259
      py      :     1.067992
      dz2     :     0.007146  d :     0.091827
      dxz     :     0.006469
      dyz     :     0.011074
      dx2y2   :     0.030447
      dxy     :     0.036692

  3 C s       :     2.887029  s :     2.887029
      pz      :     0.987970  p :     3.139997
      px      :     1.091150
      py      :     1.060877
      dz2     :     0.007141  d :     0.094826
      dxz     :     0.017807
      dyz     :     0.003264
      dx2y2   :     0.038018
      dxy     :     0.028595

  4 C s       :     2.890202  s :     2.890202
      pz      :     1.071405  p :     3.201849
      px      :     1.067256
      py      :     1.063189
      dz2     :     0.007574  d :     0.089640
      dxz     :     0.005508
      dyz     :     0.012006
      dx2y2   :     0.034243
      dxy     :     0.030308

  5 C s       :     2.838592  s :     2.838592
      pz      :     0.980634  p :     2.966175
      px      :     0.944526
      py      :     1.041015
      dz2     :     0.011324  d :     0.170626
      dxz     :     0.027981
      dyz     :     0.020910
      dx2y2   :     0.050764
      dxy     :     0.059648

  6 C s       :     2.848695  s :     2.848695
      pz      :     1.016775  p :     3.119354
      px      :     1.060030
      py      :     1.042549
      dz2     :     0.007341  d :     0.105000
      dxz     :     0.012271
      dyz     :     0.011654
      dx2y2   :     0.035504
      dxy     :     0.038230

  7 C s       :     2.930182  s :     2.930182
      pz      :     1.118520  p :     3.324091
      px      :     1.134408
      py      :     1.071164
      dz2     :     0.013063  d :     0.070970
      dxz     :     0.012959
      dyz     :     0.014777
      dx2y2   :     0.016461
      dxy     :     0.013710

  8 O s       :     3.509615  s :     3.509615
      pz      :     1.826988  p :     4.701152
      px      :     1.262108
      py      :     1.612056
      dz2     :     0.004421  d :     0.028695
      dxz     :     0.002244
      dyz     :     0.002071
      dx2y2   :     0.003639
      dxy     :     0.016320

  9 H s       :     0.869955  s :     0.869955

 10 H s       :     0.876085  s :     0.876085

 11 H s       :     0.869982  s :     0.869982

 12 H s       :     0.881690  s :     0.881690

 13 H s       :     0.877807  s :     0.877807

 14 H s       :     0.882837  s :     0.882837

 15 H s       :     0.871481  s :     0.871481

 16 H s       :     0.871478  s :     0.871478

 17 H s       :     0.868809  s :     0.868809

 18 H s       :     0.703469  s :     0.703469


---------------------------------
LOEWDIN BOND ORDERS (THRESH 0.050000)
---------------------------------
B(  0-C ,  1-C ) :   1.0959 B(  0-C ,  2-C ) :   0.0757 B(  0-C ,  6-C ) :   0.0697 
B(  0-C ,  9-H ) :   0.9214 B(  0-C , 10-H ) :   0.9300 B(  0-C , 11-H ) :   0.9214 
B(  1-C ,  2-C ) :   1.4346 B(  1-C ,  3-C ) :   0.0877 B(  1-C ,  4-C ) :   0.1047 
B(  1-C ,  5-C ) :   0.0901 B(  1-C ,  6-C ) :   1.3968 B(  1-C ,  7-C ) :   0.0682 
B(  2-C ,  3-C ) :   1.5009 B(  2-C ,  4-C ) :   0.0917 B(  2-C ,  5-C ) :   0.0979 
B(  2-C ,  6-C ) :   0.0845 B(  2-C , 12-H ) :   0.8827 B(  3-C ,  4-C ) :   1.5011 
B(  3-C ,  5-C ) :   0.0921 B(  3-C ,  6-C ) :   0.1085 B(  3-C , 13-H ) :   0.8867 
B(  4-C ,  5-C ) :   1.4205 B(  4-C ,  6-C ) :   0.0863 B(  4-C ,  8-O ) :   0.1129 
B(  4-C , 14-H ) :   0.8782 B(  5-C ,  6-C ) :   1.3567 B(  5-C ,  7-C ) :   0.0722 
B(  5-C ,  8-O ) :   1.3114 B(  6-C ,  7-C ) :   1.0921 B(  6-C ,  8-O ) :   0.1009 
B(  7-C , 15-H ) :   0.9217 B(  7-C , 16-H ) :   0.9217 B(  7-C , 17-H ) :   0.9234 
B(  8-O , 18-H ) :   0.8729 

------------------------------------------
LOEWDIN REDUCED ORBITAL POPULATIONS PER MO
-------------------------------------------
THRESHOLD FOR PRINTING IS 0.1%%
                      0         1         2         3         4         5   
                 -18.77730  -9.94386  -9.89504  -9.88987  -9.88545  -9.88378
                   2.00000   2.00000   2.00000   2.00000   2.00000   2.00000
                  --------  --------  --------  --------  --------  --------
 1 C  s               0.0       0.0      99.5       0.0       0.0       0.0
 2 C  px              0.0       0.0       0.0       0.0       0.1       0.0
 2 C  py              0.0       0.0       0.1       0.0       0.0       0.0
 3 C  s               0.0       0.0       0.0       0.0      98.9       0.7
 3 C  px              0.0       0.0       0.0       0.0       0.0       0.1
 4 C  s               0.0       0.0       0.0       0.0       0.7      98.9
 4 C  px              0.0       0.0       0.0       0.0       0.1       0.0
 4 C  py              0.0       0.1       0.0       0.0       0.0       0.0
 5 C  s               0.0      99.5       0.0       0.0       0.0       0.0
 5 C  px              0.0       0.0       0.0       0.1       0.0       0.0
 5 C  py              0.0       0.0       0.0       0.0       0.0       0.1
 6 C  s               0.0       0.0       0.0      99.5       0.0       0.0
 6 C  px              0.0       0.1       0.1       0.0       0.0       0.0
 7 C  py              0.0       0.0       0.0       0.1       0.0       0.0
 8 O  s              99.9       0.0       0.0       0.0       0.0       0.0

                      6         7         8         9        10        11   
                  -9.88017  -9.87678  -9.87429  -0.95915  -0.77185  -0.69858
                   2.00000   2.00000   2.00000   2.00000   2.00000   2.00000
                  --------  --------  --------  --------  --------  --------
 0 C  s              99.7       0.0       0.0       0.0       3.3       7.5
 0 C  px              0.0       0.0       0.0       0.0       1.3       0.8
 0 C  py              0.0       0.0       0.0       0.0       0.3       0.0
 1 C  s               0.0       0.0       0.0       0.1      15.5       5.9
 1 C  px              0.1       0.0       0.0       0.1       1.1       0.3
 1 C  py              0.0       0.1       0.0       0.0       0.1       4.3
 1 C  dz2             0.0       0.0       0.0       0.0       0.2       0.1
 2 C  s               0.0      99.5       0.0       0.0      11.2       1.3
 2 C  px              0.0       0.0       0.0       0.0       1.3       2.9
 2 C  py              0.0       0.0       0.0       0.0       1.3       3.0
 2 C  dz2             0.0       0.0       0.0       0.0       0.1       0.0
 2 C  dx2y2           0.0       0.0       0.0       0.0       0.0       0.1
 3 C  s               0.0       0.0       0.0       0.1       9.2      13.4
 3 C  px              0.0       0.1       0.0       0.0       0.0       0.9
 3 C  py              0.0       0.0       0.0       0.1       2.2       0.6
 3 C  dz2             0.0       0.0       0.0       0.0       0.1       0.1
 4 C  s               0.0       0.0       0.0       0.9       8.1      13.6
 4 C  px              0.0       0.0       0.0       0.1       2.1       1.1
 4 C  py              0.0       0.0       0.0       1.4       0.2       0.4
 4 C  dz2             0.0       0.0       0.0       0.0       0.1       0.1
 5 C  s               0.0       0.0       0.0      10.6       6.7       0.5
 5 C  px              0.0       0.0       0.0       7.1       4.9       0.7
 5 C  py              0.0       0.0       0.0       2.2       0.9       7.1
 5 C  dz2             0.0       0.0       0.0       0.4       0.1       0.0
 5 C  dx2y2           0.0       0.0       0.0       0.2       0.0       0.1
 5 C  dxy             0.0       0.0       0.0       0.5       0.1       0.0
 6 C  s               0.0       0.0       0.0       0.8      13.8       7.2
 6 C  px              0.0       0.0       0.0       1.2       0.2       1.7
 6 C  py              0.0       0.0       0.1       0.1       1.4       2.0
 6 C  dz2             0.0       0.0       0.0       0.0       0.2       0.1
 7 C  s               0.0       0.0      99.7       0.1       2.6       8.1
 7 C  py              0.0       0.0       0.0       0.1       1.4       0.9
 8 O  s               0.0       0.0       0.0      58.1       1.6       0.2
 8 O  px              0.0       0.0       0.0       0.1       0.9       0.0
 8 O  py              0.0       0.0       0.0       3.4       0.1       0.2
 9 H  s               0.1       0.0       0.0       0.0       0.5       1.6
10 H  s               0.1       0.0       0.0       0.0       0.6       1.3
11 H  s               0.1       0.0       0.0       0.0       0.5       1.6
12 H  s               0.0       0.1       0.0       0.0       1.5       0.1
13 H  s               0.0       0.0       0.0       0.0       1.2       2.4
14 H  s               0.0       0.0       0.0       0.2       0.9       2.5
15 H  s               0.0       0.0       0.1       0.0       0.4       1.7
16 H  s               0.0       0.0       0.1       0.0       0.4       1.7
17 H  s               0.0       0.0       0.1       0.2       0.4       1.5
18 H  s               0.0       0.0       0.0      11.7       0.6       0.0

                     12        13        14        15        16        17   
                  -0.67664  -0.61881  -0.60060  -0.55046  -0.51576  -0.46922
                   2.00000   2.00000   2.00000   2.00000   2.00000   2.00000
                  --------  --------  --------  --------  --------  --------
 0 C  s               9.9      12.9       6.7       3.2       0.9       1.8
 0 C  px              0.2       0.1       0.4       2.2       0.1       7.5
 0 C  py              0.5       0.1       0.6       0.0       1.7       1.3
 0 C  dxy             0.0       0.0       0.0       0.0       0.0       0.1
 1 C  s               6.5       0.1       2.4       3.3       0.3       5.7
 1 C  px              5.7       2.8       4.1       4.5       2.2       0.3
 1 C  py              2.3       3.6       2.4       1.6       9.0       0.6
 1 C  dx2y2           0.0       0.2       0.0       0.0       0.2       0.0
 1 C  dxy             0.1       0.0       0.1       0.1       0.0       0.0
 2 C  s              10.1       8.8       1.6       2.4       4.6       0.3
 2 C  px              0.2       0.7       0.5       0.2       6.5       1.1
 2 C  py              0.4       1.3       2.5       3.9       2.3       2.3
 2 C  dx2y2           0.0       0.0       0.1       0.1       0.0       0.1
 3 C  s               1.3       4.0       5.1       1.2       7.5       0.2
 3 C  px              3.2       6.1       3.7       3.2       0.6       5.0
 3 C  py              0.0       0.1       0.4       0.7       2.8       3.2
 3 C  dxy             0.1       0.2       0.1       0.0       0.0       0.0
 4 C  s               2.0       5.6       6.0       1.6       1.9       1.1
 4 C  px              0.2       1.6       0.0       0.3       6.3       3.7
 4 C  py              2.0       2.9       3.8       0.0       5.9      10.7
 4 C  dx2y2           0.1       0.1       0.0       0.0       0.0       0.0
 5 C  s               8.4       5.2       2.1       3.0       0.6       1.1
 5 C  px              2.2       0.1       1.8       1.0       4.0       8.3
 5 C  py              0.0       3.8       2.2       7.0       7.1       3.1
 5 C  dx2y2           0.0       0.1       0.1       0.0       0.2       0.0
 5 C  dxy             0.1       0.0       0.0       0.1       0.0       0.3
 6 C  s               6.8       0.2       1.7       1.4       4.3       0.0
 6 C  px              5.5       0.3       0.4       9.6       0.0       6.1
 6 C  py              1.4       3.7       9.6       1.0       0.5       0.7
 6 C  dx2y2           0.0       0.1       0.2       0.0       0.2       0.1
 6 C  dxy             0.1       0.0       0.0       0.1       0.0       0.3
 7 C  s               7.6       9.3      13.4       0.0       4.4       0.2
 7 C  px              0.2       0.0       0.2       1.0       0.0       0.1
 7 C  py              0.6       0.1       0.9       0.1       4.1       0.4
 8 O  s               1.8       1.1       0.0       0.1       1.1       0.2
 8 O  px              4.3       1.6       2.2      28.4       0.2      15.9
 8 O  py              0.1       0.5       0.0       0.5       1.9       0.2
 8 O  dxy             0.1       0.0       0.0       0.3       0.0       0.2
 9 H  s               1.8       3.3       2.5       1.1       0.7       1.7
10 H  s               2.5       3.2       1.7       2.2       0.0       2.2
11 H  s               1.8       3.3       2.5       1.1       0.7       1.7
12 H  s               2.4       2.0       0.2       2.1       3.2       0.1
13 H  s               0.3       1.2       2.0       0.8       5.3       1.6
14 H  s               0.3       1.7       2.7       1.1       1.7       5.3
15 H  s               1.3       2.2       4.4       0.0       2.2       0.1
16 H  s               1.3       2.2       4.4       0.0       2.2       0.1
17 H  s               1.8       2.6       3.3       0.4       1.8       0.2
18 H  s               1.8       0.5       0.6       8.6       0.0       4.3

                     18        19        20        21        22        23   
                  -0.43472  -0.42719  -0.39088  -0.37450  -0.35630  -0.35599
                   2.00000   2.00000   2.00000   2.00000   2.00000   2.00000
                  --------  --------  --------  --------  --------  --------
 0 C  pz              0.0       0.0      19.1       0.0      31.9       0.0
 0 C  px              0.9       1.1       0.0       3.1       0.0      10.3
 0 C  py              2.2       4.2       0.0      10.9       0.0       0.9
 0 C  dz2             0.0       0.0       0.0       0.1       0.0       0.0
 0 C  dyz             0.0       0.0       0.2       0.0       0.4       0.0
 1 C  s               0.4       0.3       0.0       1.2       0.0       0.2
 1 C  pz              0.0       0.0      10.3       0.0       2.1       0.0
 1 C  px              0.4       1.6       0.0       5.1       0.0      10.4
 1 C  py              7.7       1.1       0.0       0.2       0.0       3.8
 1 C  dxz             0.0       0.0       0.0       0.0       0.2       0.0
 1 C  dx2y2           0.0       0.0       0.0       0.3       0.0       0.0
 1 C  dxy             0.1       0.1       0.0       0.0       0.0       0.0
 2 C  s               0.8       0.4       0.0       2.5       0.0       0.0
 2 C  pz              0.0       0.0       2.2       0.0       0.1       0.0
 2 C  px              0.7      13.8       0.0       1.4       0.0       2.6
 2 C  py             16.1       0.4       0.0       0.4       0.0       3.4
 2 C  dx2y2           0.0       0.0       0.0       0.1       0.0       0.5
 2 C  dxy             0.0       0.1       0.0       0.1       0.0       0.0
 3 C  s               0.1       0.5       0.0       1.1       0.0       0.1
 3 C  pz              0.0       0.0       1.1       0.0       0.3       0.0
 3 C  px             10.2       1.9       0.0       1.1       0.0       1.7
 3 C  py              7.0       4.3       0.0      14.7       0.0       9.0
 3 C  dx2y2           0.0       0.0       0.0       0.8       0.0       0.1
 3 C  dxy             0.1       0.0       0.0       0.1       0.0       0.4
 4 C  s               0.2       0.8       0.0       1.2       0.0       1.0
 4 C  pz              0.0       0.0       1.9       0.0       2.4       0.0
 4 C  px              8.2       4.4       0.0       4.5       0.0      12.4
 4 C  py              4.4       3.9       0.0       4.4       0.0       0.7
 4 C  dx2y2           0.1       0.0       0.0       0.7       0.0       0.0
 4 C  dxy             0.0       0.2       0.0       0.2       0.0       0.1
 5 C  s               0.7       0.1       0.0       2.3       0.0       0.0
 5 C  pz              0.0       0.0       6.8       0.0       9.8       0.0
 5 C  px              1.8       6.7       0.0       0.3       0.0       0.0
 5 C  py              2.0       1.6       0.0       1.3       0.0       0.9
 5 C  dx2y2           0.0       0.0       0.0       0.0       0.0       0.5
 5 C  dxy             0.2       0.9       0.0       0.0       0.0       0.1
 6 C  s               1.5       3.3       0.0       0.5       0.0       0.0
 6 C  pz              0.0       0.0      12.2       0.0       3.4       0.0
 6 C  px              3.0       7.8       0.0       0.5       0.0       0.0
 6 C  py              0.7       0.8       0.0       1.9       0.0       9.5
 6 C  dxz             0.0       0.0       0.0       0.0       0.1       0.0
 6 C  dxy             0.0       0.1       0.0       0.1       0.0       0.2
 7 C  s               0.3       0.1       0.0       0.1       0.0       0.1
 7 C  pz              0.0       0.0      18.4       0.0      10.7       0.0
 7 C  px              3.4       4.6       0.0       0.0       0.0       0.2
 7 C  py              3.3       4.3       0.0       4.9       0.0       8.8
 7 C  dxz             0.0       0.0       0.2       0.0       0.1       0.0
 7 C  dx2y2           0.1       0.1       0.0       0.0       0.0       0.1
 8 O  s               2.1       0.1       0.0       0.6       0.0       0.4
 8 O  pz              0.0       0.0       3.8       0.0      11.5       0.0
 8 O  px              0.0       7.1       0.0       0.4       0.0       0.0
 8 O  py              8.4       1.0       0.0       3.5       0.0       1.6
 8 O  dxy             0.0       0.1       0.0       0.0       0.0       0.0
 9 H  s               0.1       0.5       6.1       2.4      10.6       0.5
10 H  s               1.0       1.9       0.0       0.2       0.0       1.6
11 H  s               0.1       0.5       6.1       2.4      10.4       0.7
12 H  s               4.8       6.6       0.0       0.3       0.0       3.4
13 H  s               2.5       0.9       0.0      13.2       0.0       5.3
14 H  s               0.6       5.9       0.0       8.8       0.0       5.6
15 H  s               0.0       1.8       5.7       0.5       2.8       0.6
16 H  s               0.0       1.8       5.7       0.5       2.9       0.5
17 H  s               3.4       0.1       0.0       0.4       0.0       1.2
18 H  s               0.3       2.0       0.0       0.4       0.0       0.1

                     24        25        26        27        28        29   
                  -0.34751  -0.34081  -0.34080  -0.32274  -0.29772  -0.28442
                   2.00000   2.00000   2.00000   2.00000   2.00000   2.00000
                  --------  --------  --------  --------  --------  --------
 0 C  s               0.0       0.3       0.0       0.0       0.2       0.0
 0 C  pz              0.0       0.0       0.6       0.0       0.0       2.9
 0 C  px              8.5       4.7       0.1       4.2       5.9       0.0
 0 C  py             13.6       0.0       0.0      13.6       2.5       0.0
 0 C  dz2             0.1       0.0       0.0       0.2       0.0       0.0
 0 C  dyz             0.0       0.0       0.0       0.0       0.0       0.2
 0 C  dx2y2           0.0       0.0       0.0       0.1       0.0       0.0
 0 C  dxy             0.2       0.1       0.0       0.4       0.1       0.0
 1 C  s               0.1       0.7       0.0       0.0       0.0       0.0
 1 C  pz              0.0       0.0       0.9       0.0       0.0       8.3
 1 C  px              0.0       1.4       0.0       2.0       9.6       0.0
 1 C  py              0.9       1.2       0.0       6.1       0.5       0.0
 1 C  dyz             0.0       0.0       0.0       0.0       0.0       0.2
 1 C  dx2y2           0.0       0.0       0.0       0.4       0.0       0.0
 1 C  dxy             0.0       0.3       0.0       0.2       0.7       0.0
 2 C  s               0.1       0.0       0.0       0.4       0.1       0.0
 2 C  pz              0.0       0.0       1.8       0.0       0.0      22.3
 2 C  px              4.8       6.7       0.1       0.2       9.1       0.0
 2 C  py              1.4       0.2       0.0       5.8       0.2       0.0
 2 C  dxz             0.0       0.0       0.0       0.0       0.0       0.1
 2 C  dxy             0.1       0.3       0.0       0.0       0.9       0.0
 3 C  s               0.5       0.1       0.0       0.1       0.1       0.0
 3 C  pz              0.0       0.1       3.2       0.0       0.0      23.2
 3 C  px              0.2       5.9       0.1       2.1       8.3       0.0
 3 C  py              1.3       0.0       0.0       0.0       0.0       0.0
 3 C  dxy             0.1       0.1       0.0       0.0       0.2       0.0
 4 C  s               0.2       0.0       0.0       0.4       0.1       0.0
 4 C  pz              0.0       0.1       7.5       0.0       0.0       7.8
 4 C  px              0.1       2.1       0.0       0.6       5.6       0.0
 4 C  py              0.1       1.8       0.0       1.8       0.1       0.0
 4 C  dxz             0.0       0.0       0.0       0.0       0.0       0.2
 4 C  dxy             0.1       0.0       0.0       0.1       0.4       0.0
 5 C  s               0.3       0.1       0.0       0.2       0.4       0.0
 5 C  pz              0.0       0.3      15.9       0.0       0.0       0.4
 5 C  px              3.4       0.6       0.0       0.0       3.2       0.0
 5 C  py              0.2       1.0       0.0       2.8       0.7       0.0
 5 C  dxz             0.0       0.0       0.2       0.0       0.0       0.4
 5 C  dyz             0.0       0.0       0.0       0.0       0.0       0.3
 5 C  dx2y2           0.0       0.1       0.0       0.2       0.1       0.0
 5 C  dxy             0.0       0.1       0.0       0.1       0.4       0.0
 6 C  s               0.8       0.1       0.0       0.0       0.2       0.0
 6 C  pz              0.0       0.0       0.0       0.0       0.0       1.8
 6 C  px              0.3       0.1       0.0       7.1       8.1       0.0
 6 C  py              8.3       0.9       0.0       1.7       0.4       0.0
 6 C  dyz             0.0       0.0       0.3       0.0       0.0       0.0
 6 C  dx2y2           0.2       0.0       0.0       0.0       0.0       0.0
 6 C  dxy             0.0       0.3       0.0       0.0       0.6       0.0
 7 C  s               0.3       0.0       0.0       0.0       0.0       0.0
 7 C  pz              0.0       0.4      24.4       0.0       0.0       0.2
 7 C  px              0.1      35.7       0.6       0.1      10.3       0.0
 7 C  py             10.7       0.2       0.0       1.1       0.2       0.0
 7 C  dz2             0.0       0.3       0.0       0.0       0.1       0.0
 7 C  dxz             0.0       0.0       0.3       0.0       0.0       0.0
 7 C  dyz             0.0       0.0       0.2       0.0       0.0       0.0
 7 C  dx2y2           0.2       0.1       0.0       0.0       0.0       0.0
 7 C  dxy             0.0       0.2       0.0       0.1       0.3       0.0
 8 O  s               2.2       0.2       0.0       4.0       0.2       0.0
 8 O  pz              0.0       0.4      23.6       0.0       0.0      27.4
 8 O  px              0.2       0.2       0.0       0.2       0.9       0.0
 8 O  py             17.1       0.0       0.0      23.1       6.0       0.0
 9 H  s               1.9       0.1       0.1       2.6       0.4       1.8
10 H  s              11.8       1.4       0.0      11.4       0.5       0.0
11 H  s               1.9       0.1       0.1       2.7       0.4       1.8
12 H  s               3.9       3.6       0.1       0.6       8.1       0.0
13 H  s               0.3       0.0       0.0       0.1       0.0       0.0
14 H  s               0.2       0.3       0.0       0.2       4.1       0.0
15 H  s               0.5       7.0       7.8       0.0       1.4       0.1
16 H  s               0.5       3.5      11.3       0.0       1.4       0.1
17 H  s               1.9      16.3       0.3       0.5       6.6       0.0
18 H  s               0.5       0.1       0.0       2.3       0.2       0.0

                     30        31        32        33        34        35   
                  -0.28374  -0.20997  -0.18758  -0.02648  -0.00961   0.02477
                   2.00000   2.00000   2.00000   0.00000   0.00000   0.00000
                  --------  --------  --------  --------  --------  --------
 0 C  s               0.2       0.0       0.0       0.0       0.0       0.7
 0 C  pz              0.0       1.5       0.1       0.1       0.0       0.0
 0 C  px              2.3       0.0       0.0       0.0       0.0       0.1
 0 C  py              3.4       0.0       0.0       0.0       0.0       0.0
 0 C  dxz             0.0       0.2       0.0       0.3       0.2       0.0
 0 C  dyz             0.0       0.3       0.0       0.5       0.1       0.0
 1 C  pz              0.0      25.5       0.8      20.7       9.5       0.0
 1 C  px              0.4       0.0       0.0       0.0       0.0       0.0
 1 C  py              8.2       0.0       0.0       0.0       0.0       0.1
 1 C  dxz             0.0       0.2       0.1       0.4       0.1       0.0
 1 C  dyz             0.0       0.0       0.5       0.2       1.1       0.0
 1 C  dx2y2           0.6       0.0       0.0       0.0       0.0       0.1
 2 C  s               0.1       0.0       0.0       0.0       0.0       0.2
 2 C  pz              0.0       1.9      23.5       0.0      29.9       0.0
 2 C  px              0.4       0.0       0.0       0.0       0.0       0.0
 2 C  py              8.5       0.0       0.0       0.0       0.0       0.3
 2 C  dxz             0.0       0.2       0.0       0.5       0.3       0.0
 2 C  dyz             0.0       0.5       0.0       1.1       0.1       0.0
 2 C  dx2y2           0.3       0.0       0.0       0.0       0.0       0.1
 3 C  s               0.1       0.0       0.0       0.0       0.0       0.1
 3 C  pz              0.0      15.9       5.7      23.4       8.6       0.0
 3 C  px              0.1       0.0       0.0       0.0       0.0       0.2
 3 C  py              6.3       0.0       0.0       0.0       0.0       0.5
 3 C  dxz             0.0       0.3       0.5       0.3       1.1       0.0
 3 C  dyz             0.0       0.0       0.0       0.3       0.1       0.0
 3 C  dx2y2           0.8       0.0       0.0       0.0       0.0       0.3
 4 C  s               0.1       0.0       0.0       0.0       0.0       1.9
 4 C  pz              0.0      24.1       9.7      21.7       4.9       0.0
 4 C  px              0.1       0.0       0.0       0.0       0.0       3.2
 4 C  py              8.4       0.0       0.0       0.0       0.0       1.4
 4 C  dxz             0.0       0.1       0.0       0.5       0.1       0.0
 4 C  dyz             0.0       0.1       0.3       0.1       1.3       0.0
 4 C  dx2y2           0.4       0.0       0.0       0.0       0.0       0.2
 5 C  pz              0.0       0.0      16.0       0.0      28.5       0.0
 5 C  px              1.0       0.0       0.0       0.0       0.0       0.2
 5 C  py              8.0       0.0       0.0       0.0       0.0       0.7
 5 C  dxz             0.0       0.2       0.7       0.5       0.0       0.0
 5 C  dyz             0.0       0.5       0.2       1.1       0.0       0.0
 5 C  dx2y2           0.8       0.0       0.0       0.0       0.0       0.5
 6 C  s               0.1       0.0       0.0       0.0       0.0       0.4
 6 C  pz              0.0      19.4      14.1      20.7       5.1       0.0
 6 C  px              0.7       0.0       0.0       0.0       0.0       0.2
 6 C  py              7.3       0.0       0.0       0.0       0.0       0.1
 6 C  dxz             0.0       0.2       0.2       0.4       1.3       0.0
 6 C  dyz             0.0       0.1       0.1       0.2       0.0       0.0
 6 C  dx2y2           0.8       0.0       0.0       0.0       0.0       0.1
 7 C  s               0.1       0.0       0.0       0.0       0.0       1.2
 7 C  pz              0.0       1.2       0.6       0.1       0.0       0.0
 7 C  px              0.1       0.0       0.0       0.0       0.0       0.2
 7 C  py             11.3       0.0       0.0       0.0       0.0       0.1
 7 C  dxz             0.0       0.1       0.0       0.1       0.0       0.0
 7 C  dyz             0.0       0.3       0.2       0.7       0.2       0.0
 8 O  s               1.5       0.0       0.0       0.0       0.0       7.9
 8 O  pz              0.0       0.1      24.5       0.0       5.8       0.0
 8 O  px              0.1       0.0       0.0       0.0       0.0       5.7
 8 O  py             13.0       0.0       0.0       0.0       0.0       3.4
 8 O  dxz             0.0       0.0       0.1       0.0       0.2       0.0
 9 H  s               0.8       2.1       0.1       1.5       0.4       0.4
10 H  s               0.2       0.0       0.0       0.0       0.0       0.9
11 H  s               0.8       2.1       0.1       1.5       0.4       0.4
12 H  s               1.0       0.0       0.0       0.0       0.0       0.9
13 H  s               6.8       0.0       0.0       0.0       0.0       0.6
14 H  s               1.9       0.0       0.0       0.0       0.0      10.3
15 H  s               0.4       1.6       0.9       1.5       0.3       0.5
16 H  s               0.4       1.6       0.9       1.5       0.3       0.5
17 H  s               0.5       0.0       0.0       0.0       0.0       1.4
18 H  s               1.1       0.0       0.0       0.0       0.0      53.5

                     36        37        38        39        40        41   
                   0.04693   0.05649   0.08892   0.09047   0.10954   0.11764
                   0.00000   0.00000   0.00000   0.00000   0.00000   0.00000
                  --------  --------  --------  --------  --------  --------
 0 C  s              11.9       1.5       1.0       0.0       8.2       0.0
 0 C  pz              0.0       0.0       0.0      15.0       0.0       2.7
 0 C  px              0.4       3.8       3.9       0.0       1.1       0.0
 0 C  py              2.2       0.0       5.8       0.0       0.4       0.0
 0 C  dz2             0.0       0.0       0.2       0.0       0.0       0.0
 0 C  dxz             0.0       0.0       0.0       0.0       0.0       0.3
 0 C  dyz             0.0       0.0       0.0       0.6       0.0       0.6
 0 C  dxy             0.0       0.1       0.2       0.0       0.1       0.0
 1 C  s               0.1       0.7       0.3       0.0       0.0       0.0
 1 C  pz              0.0       0.0       0.0       0.7       0.0       8.3
 1 C  px              0.1       0.6       0.3       0.0       0.4       0.0
 1 C  py              0.0       0.0       0.4       0.0       0.4       0.0
 1 C  dz2             0.3       0.0       0.0       0.0       0.1       0.0
 1 C  dxz             0.0       0.0       0.0       0.5       0.0       0.5
 1 C  dyz             0.0       0.0       0.0       0.0       0.0       0.1
 1 C  dx2y2           0.0       0.0       0.3       0.0       0.0       0.0
 1 C  dxy             0.2       0.6       0.4       0.0       0.3       0.0
 2 C  s               0.1       2.9       0.8       0.0       0.4       0.0
 2 C  pz              0.0       0.0       0.0       0.2       0.0      11.9
 2 C  px              0.0       3.7       2.4       0.0       1.3       0.0
 2 C  py              0.1       1.4       1.9       0.0       0.9       0.0
 2 C  dxz             0.0       0.0       0.0       0.0       0.0       0.4
 2 C  dx2y2           0.0       0.2       0.0       0.0       0.0       0.0
 2 C  dxy             0.2       0.4       0.0       0.0       0.4       0.0
 3 C  s               0.7       4.0       1.2       0.0       1.6       0.0
 3 C  pz              0.0       0.0       0.0       0.0       0.0      13.8
 3 C  px              0.1       0.2       0.2       0.0       0.1       0.0
 3 C  py              0.5       4.9       0.9       0.0       2.3       0.0
 3 C  dyz             0.0       0.0       0.0       0.0       0.0       0.6
 3 C  dx2y2           0.1       0.9       0.0       0.0       0.0       0.0
 3 C  dxy             0.0       0.0       0.1       0.0       0.0       0.0
 4 C  s               0.7       1.3       1.4       0.0       1.3       0.0
 4 C  pz              0.0       0.0       0.0       0.1       0.0      14.6
 4 C  px              1.0       1.0       3.7       0.0       1.6       0.0
 4 C  py              0.2       0.6       0.9       0.0       0.8       0.0
 4 C  dxz             0.0       0.0       0.0       0.0       0.0       0.5
 4 C  dyz             0.0       0.0       0.0       0.0       0.0       0.2
 4 C  dx2y2           0.0       0.2       0.0       0.0       0.0       0.0
 4 C  dxy             0.2       0.8       0.4       0.0       0.1       0.0
 5 C  s               0.2       0.7       0.4       0.0       0.7       0.0
 5 C  pz              0.0       0.0       0.0       0.0       0.0      15.5
 5 C  px              0.8       1.2       0.8       0.0       1.1       0.0
 5 C  py              0.0       0.3       0.9       0.0       0.4       0.0
 5 C  dz2             0.0       0.1       0.0       0.0       0.0       0.0
 5 C  dx2y2           0.0       0.1       0.1       0.0       0.1       0.0
 5 C  dxy             0.4       0.6       0.7       0.0       0.5       0.0
 6 C  s               0.2       0.6       0.1       0.0       0.1       0.0
 6 C  pz              0.0       0.0       0.0       0.3       0.0       9.4
 6 C  px              0.1       0.2       0.4       0.0       0.2       0.0
 6 C  py              0.1       0.1       0.4       0.0       0.5       0.0
 6 C  dz2             0.3       0.0       0.1       0.0       0.1       0.0
 6 C  dxz             0.0       0.0       0.0       0.1       0.0       0.0
 6 C  dyz             0.0       0.0       0.0       0.5       0.0       0.7
 6 C  dx2y2           0.2       0.3       0.2       0.0       0.1       0.0
 6 C  dxy             0.1       0.0       0.0       0.0       0.1       0.0
 7 C  s              10.4       0.1       1.3       0.0       8.5       0.0
 7 C  pz              0.0       0.0       0.0      14.7       0.0       1.8
 7 C  px              1.7       0.4       1.1       0.0       0.2       0.0
 7 C  py              0.8       0.8       0.9       0.0       1.3       0.0
 7 C  dz2             0.0       0.0       0.1       0.0       0.0       0.0
 7 C  dxz             0.0       0.0       0.0       0.6       0.0       0.2
 7 C  dyz             0.0       0.0       0.0       0.0       0.0       0.8
 8 O  s               0.1       2.2       0.9       0.0       0.9       0.0
 8 O  pz              0.0       0.0       0.0       0.1       0.0       1.5
 8 O  px              0.7       0.1       0.2       0.0       0.3       0.0
 8 O  py              0.0       1.3       0.6       0.0       0.1       0.0
 8 O  dxz             0.0       0.0       0.0       0.0       0.0       0.2
 9 H  s              13.4       1.0       1.0      16.8       7.2       4.2
10 H  s               2.9       6.6      23.8       0.0       5.1       0.0
11 H  s              13.4       0.9       1.1      16.6       7.2       4.1
12 H  s               0.3      17.5      12.8       0.0       3.6       0.0
[...]
 1 C  s               0.6       2.1       0.0       0.0       0.0       0.0
 1 C  px              1.4       0.3       0.0       0.0       0.1       0.4
 1 C  py              0.1       1.2       0.0       0.8       0.7       0.7
 1 C  dz2             0.0       2.0       0.0       0.1       0.0       0.0
 1 C  dxz             0.0       0.0       0.2       0.0       0.0       0.0
 1 C  dx2y2           3.2       0.4       0.0      11.7      12.9       3.3
 1 C  dxy             4.0      14.2       0.0       0.0       4.8       1.0
 2 C  s               2.6       0.6       0.0       0.1       0.1       0.1
 2 C  px              2.1       0.1       0.0       0.3       0.7       0.1
 2 C  py              0.1       0.6       0.0       1.4       2.2       0.4
 2 C  dz2             0.9       1.1       0.0       0.0       0.0       0.1
 2 C  dx2y2           3.2      11.9       0.0       3.7       4.8       2.3
 2 C  dxy             0.7       1.2       0.0       0.2       5.0       0.0
 3 C  s               0.1       0.1       0.0       0.6       0.7       0.3
 3 C  px              4.8       1.0       0.0       0.1       0.9       0.8
 3 C  py              0.1       0.0       0.0       0.1       0.2       0.1
 3 C  dz2             0.0       0.7       0.0       0.2       0.2       0.1
 3 C  dx2y2           0.9       9.2       0.0       0.7       3.2       0.9
 3 C  dxy            27.4       2.5       0.0       1.2       2.8       2.1
 4 C  s               0.8       2.1       0.0       0.3       0.1       0.2
 4 C  px              1.7       0.6       0.0       0.1       0.1       0.1
 4 C  py              1.6       0.1       0.0       0.0       0.2       1.8
 4 C  dz2             0.0       1.9       0.0       0.2       0.0       0.0
 4 C  dxz             0.0       0.0       0.5       0.0       0.0       0.0
 4 C  dyz             0.0       0.0       0.5       0.0       0.0       0.0
 4 C  dx2y2          14.3       5.8       0.0       0.4       1.2       1.9
 4 C  dxy             4.5       3.3       0.0       1.5       0.5       6.1
 5 C  s               2.3       0.5       0.0       0.1       0.2       0.1
 5 C  pz              0.0       0.0       0.4       0.0       0.0       0.0
 5 C  px              0.6       0.2       0.0       0.2       0.3       0.2
 5 C  py              0.6       1.3       0.0       1.0       0.4       0.8
 5 C  dz2             0.6       0.5       0.0       1.4       0.7       0.0
 5 C  dxz             0.0       0.0      12.7       0.0       0.0       0.0
 5 C  dyz             0.0       0.0       5.7       0.0       0.0       0.0
 5 C  dx2y2           0.0       2.2       0.0       1.5       0.4      20.8
 5 C  dxy             0.0       0.1       0.0       1.0       0.0       4.6
 6 C  s               0.1       0.3       0.0       0.6       0.3       0.1
 6 C  px              0.9       0.2       0.0       0.3       0.8       1.4
 6 C  py              0.3       1.2       0.0       0.2       0.1       0.1
 6 C  dz2             0.0       0.9       0.0       0.8       0.0       0.0
 6 C  dyz             0.0       0.0       1.6       0.0       0.0       0.0
 6 C  dx2y2           0.0      11.7       0.0       3.2       2.5       0.0
 6 C  dxy            15.1       0.6       0.0       1.0       5.5      12.4
 7 C  s               0.1       0.6       0.0       0.1       0.0       0.0
 7 C  py              0.0       1.0       0.0       0.2       0.1       0.0
 7 C  dz2             0.1       0.8       0.0       0.2       0.1       0.0
 7 C  dyz             0.0       0.0       0.3       0.0       0.0       0.0
 7 C  dx2y2           0.1       4.1       0.0       0.5       0.2       0.0
 7 C  dxy             1.9       1.0       0.0       0.1       1.1       1.3
 8 O  s               0.0       0.0       0.0       1.3       1.4       0.0
 8 O  pz              0.0       0.0       0.9       0.0       0.0       0.0
 8 O  px              0.0       0.0       0.0       0.9       0.2       0.0
 8 O  py              0.0       0.1       0.0       1.7       0.5       0.3
 8 O  dz2             0.1       1.3       0.0      39.3      18.5       0.1
 8 O  dxz             0.0       0.0      50.9       0.0       0.0       0.0
 8 O  dyz             0.0       0.0      26.2       0.0       0.0       0.0
 8 O  dx2y2           0.0       1.4       0.0       7.2       6.3      23.5
 8 O  dxy             0.0       0.0       0.0       7.5      12.1      10.3
13 H  s               0.0       0.4       0.0       0.0       0.1       0.1
14 H  s               0.0       0.3       0.0       0.1       0.1       0.1
17 H  s               0.0       0.2       0.0       0.0       0.0       0.0
18 H  s               0.0       0.1       0.0       3.7       3.4       0.4

                    144       145   
                   3.19326   3.46476
                   0.00000   0.00000
                  --------  --------
 0 C  s               0.1       0.1
 0 C  px              0.2       0.1
 0 C  dx2y2           0.3       0.1
 0 C  dxy             0.4       0.3
 1 C  s               0.7       0.2
 1 C  px              0.2       0.0
 1 C  dz2             0.5       0.1
 1 C  dx2y2           2.5       3.0
 1 C  dxy             8.9       3.8
 2 C  s               0.7       0.6
 2 C  dz2             0.4       0.3
 2 C  dx2y2           1.3       0.8
 2 C  dxy             9.2       3.9
 3 C  s               0.8       0.4
 3 C  dz2             0.6       0.2
 3 C  dx2y2           7.0       5.5
 4 C  s               0.7       0.5
 4 C  px              0.1       0.0
 4 C  dz2             0.7       0.1
 4 C  dx2y2           2.3       2.5
 4 C  dxy             1.3       5.3
 5 C  s               3.8       0.3
 5 C  px              1.4       1.6
 5 C  py              0.4       0.7
 5 C  dz2             2.8       0.2
 5 C  dx2y2           1.2       3.4
 5 C  dxy             0.1      16.3
 6 C  s               0.3       0.2
 6 C  px              0.5       0.2
 6 C  py              0.1       0.1
 6 C  dz2             0.4       0.1
 6 C  dx2y2           5.9       9.8
 6 C  dxy             0.4       0.1
 7 C  py              0.1       0.2
 7 C  dx2y2           0.3       0.6
 8 O  s               3.2       1.9
 8 O  px              2.2       2.3
 8 O  py              0.2       0.4
 8 O  dz2            11.3       4.4
 8 O  dx2y2           8.2       3.0
 8 O  dxy            16.7      25.1
12 H  s               0.4       0.2
13 H  s               0.2       0.2
14 H  s               0.1       0.3
18 H  s               0.1       0.4


                      *****************************
                      * MAYER POPULATION ANALYSIS *
                      *****************************

  NA   - Mulliken gross atomic population
  ZA   - Total nuclear charge
  QA   - Mulliken gross atomic charge
  VA   - Mayer's total valence
  BVA  - Mayer's bonded valence
  FA   - Mayer's free valence

  ATOM       NA         ZA         QA         VA         BVA        FA
  0 C      6.2108     6.0000    -0.2108     3.9400     3.9400    -0.0000
  1 C      6.0260     6.0000    -0.0260     4.1234     4.1234    -0.0000
  2 C      6.1372     6.0000    -0.1372     3.8090     3.8090     0.0000
  3 C      6.0446     6.0000    -0.0446     3.8022     3.8022     0.0000
  4 C      6.1634     6.0000    -0.1634     3.7566     3.7566    -0.0000
  5 C      5.8327     6.0000     0.1673     4.0248     4.0248    -0.0000
  6 C      6.0975     6.0000    -0.0975     4.1468     4.1468     0.0000
  7 C      6.1983     6.0000    -0.1983     3.9528     3.9528    -0.0000
  8 O      8.3414     8.0000    -0.3414     2.1623     2.1623     0.0000
  9 H      0.8904     1.0000     0.1096     0.9564     0.9564    -0.0000
 10 H      0.8994     1.0000     0.1006     0.9659     0.9659    -0.0000
 11 H      0.8905     1.0000     0.1095     0.9564     0.9564    -0.0000
 12 H      0.9724     1.0000     0.0276     0.9611     0.9611     0.0000
 13 H      0.9545     1.0000     0.0455     0.9494     0.9494     0.0000
 14 H      0.9811     1.0000     0.0189     0.9632     0.9632    -0.0000
 15 H      0.8954     1.0000     0.1046     0.9575     0.9575    -0.0000
 16 H      0.8953     1.0000     0.1047     0.9575     0.9575     0.0000
 17 H      0.8841     1.0000     0.1159     0.9813     0.9813    -0.0000
 18 H      0.6849     1.0000     0.3151     0.8786     0.8786    -0.0000

  Mayer bond orders larger than 0.100000
B(  0-C ,  1-C ) :   1.1443 B(  0-C ,  9-H ) :   0.9235 B(  0-C , 10-H ) :   0.9372 
B(  0-C , 11-H ) :   0.9235 B(  1-C ,  2-C ) :   1.3803 B(  1-C ,  6-C ) :   1.4229 
B(  2-C ,  3-C ) :   1.3550 B(  2-C , 12-H ) :   0.9625 B(  3-C ,  4-C ) :   1.3524 
B(  3-C , 13-H ) :   0.9623 B(  4-C ,  5-C ) :   1.3201 B(  4-C , 14-H ) :   0.9561 
B(  5-C ,  6-C ) :   1.3952 B(  5-C ,  8-O ) :   1.1744 B(  6-C ,  7-C ) :   1.1691 
B(  7-C , 15-H ) :   0.9228 B(  7-C , 16-H ) :   0.9228 B(  7-C , 17-H ) :   0.9232 
B(  8-O , 18-H ) :   0.8428 

-------
TIMINGS
-------

Total SCF time: 0 days 0 hours 0 min 2 sec 

Total time                  ....       2.677 sec
Sum of individual times     ....       2.660 sec  ( 99.3%)

SCF preparation             ....       0.028 sec  (  1.1%)
Fock matrix formation       ....       2.540 sec  ( 94.9%)
  Startup                   ....       0.001 sec  (  0.1% of F)
  Split-RI-J                ....       1.226 sec  ( 48.3% of F)
  XC integration            ....       1.301 sec  ( 51.2% of F)
    Basis function eval.    ....       0.558 sec  ( 42.9% of XC)
    Density eval.           ....       0.281 sec  ( 21.6% of XC)
    XC-Functional eval.     ....       0.094 sec  (  7.3% of XC)
    XC-Potential eval.      ....       0.318 sec  ( 24.4% of XC)
Diagonalization             ....       0.000 sec  (  0.0%)
Density matrix formation    ....       0.009 sec  (  0.3%)
Total Energy calculation    ....       0.001 sec  (  0.0%)
Population analysis         ....       0.052 sec  (  1.9%)
Orbital Transformation      ....       0.005 sec  (  0.2%)
Orbital Orthonormalization  ....       0.000 sec  (  0.0%)
DIIS solution               ....       0.020 sec  (  0.8%)
  MO trafo                  ....       0.000 sec  (  0.0 % of DIIS)
  Orb grad                  ....       0.000 sec  (  0.0 % of DIIS)
  Energy W gradient         ....       0.000 sec  (  0.0 % of DIIS)
  DIIS error                ....       0.002 sec  ( 10.0 % of DIIS)
  DIIS work                 ....       0.016 sec  ( 77.5 % of DIIS)
  Form Q                    ....       0.000 sec  (  0.0 % of DIIS)
  Form QpQm                 ....       0.000 sec  (  0.0 % of DIIS)
  Exp/Cayley                ....       0.000 sec  (  0.0 % of DIIS)
  Orb update                ....       0.000 sec  (  0.0 % of DIIS)
  Wake-sleep                ....       0.000 sec  (  1.1 % of DIIS)
SOSCF solution              ....       0.005 sec  (  0.2%)
  MO trafo                  ....       0.003 sec  ( 63.3 % of SOSCF)
  Orb grad                  ....       0.000 sec  (  1.1 % of SOSCF)
  Rot update                ....       0.000 sec  (  3.1 % of SOSCF)
  Step                      ....       0.002 sec  ( 31.8 % of SOSCF)
Finished LeanSCF after   2.7 sec

Maximum memory used throughout the entire LEANSCF-calculation: 14.2 MB


-------------------------------------------------------------------------------
                          DFT DISPERSION CORRECTION                            
                                                                               
                                DFTD4 V3.4.0                                   
-------------------------------------------------------------------------------
The PBE functional is recognized
Active option DFTDOPT                   ...         5   

-------------------------   ----------------
Dispersion correction           -0.019517661
-------------------------   ----------------

------------------   -----------------
gCP correction             0.078620556
------------------   -----------------

-------------------------   --------------------
FINAL SINGLE POINT ENERGY      -385.239831206824
-------------------------   --------------------


------------------------------------------------------------------------------
                              ORCA PROPERTY CALCULATIONS
------------------------------------------------------------------------------

GBWName                                 ... sp.gbw
Number of atoms                         ...     19
Number of basis functions               ...    146
Max core memory                         ...   1024 MB

Electric properties:
Dipole moment                           ... YES
Quadrupole moment                       ...  NO
Static polarizability (Dipole/Dipole)   ...  NO
Static polarizability (Dipole/Quad.)    ...  NO
Static polarizability (Quad./Quad.)     ...  NO
Static polarizability (Velocity)        ...  NO

Atomic electric properties:
Dipole moment                           ...  NO
Quadrupole moment                       ...  NO
Static polarizability                   ...  NO

Choice of electric origin               ... Center of mass
Position of electric origin             ...    -0.000023     0.000000    -0.000000

General magnetic properties:
Magnetizability                         ...  NO

EPR properties:
g-Tensor (aka g-matrix)                 ...  NO
Zero-Field splitting spin-orbit         ...  NO
Zero-field splitting spin-spin          ...  NO
Hyperfine couplings                     ...  NO (   0 nuclei)
Quadrupole couplings                    ...  NO (   0 nuclei)
Contact density                         ...  NO (   0 nuclei)

NMR properties:
Chemical shifts                         ...  NO (   0 nuclei)
Spin-rotation constants                 ...  NO (   0 nuclei)
Spin-spin couplings                     ...  NO (   0 nuclei,    0 pairs)

Choice of magnetic origin               ... GIAO
Position of magnetic origin             ...     0.000000     0.000000     0.000000

Properties with geometric perturbations:
SCF Hessian                             ...  NO
IR spectrum                             ...  NO
VCD spectrum                            ...  NO
X-ray spectroscopy properties:
SCF XES/XAS/RIXS spectra                ...  NO


-------------
DIPOLE MOMENT
-------------

Method             : SCF
Type of density    : Electron Density
Multiplicity       :   1
Irrep              :   0
Energy             :  -385.2989341012624891 Eh
Relativity type    : 
Basis              : AO
                                X                 Y                 Z
Electronic contribution:      5.593173583      -3.318596311       0.000275975
Nuclear contribution   :     -5.325976945       3.146257036      -0.000251075
                        -----------------------------------------
Total Dipole Moment    :      0.267196638      -0.172339275       0.000024900
                        -----------------------------------------
Magnitude (a.u.)       :      0.317954194
Magnitude (Debye)      :      0.808175335



--------------------
Rotational spectrum 
--------------------
 
Rotational constants in cm-1:             0.075941             0.059512             0.033783 
Rotational constants in MHz :          2276.643752          1784.120738          1012.775171 

Dipole components along the rotational axes: 
x,y,z [a.u.] :     0.267201     0.172333     0.000025 
x,y,z [Debye]:     0.679170     0.438036     0.000063 

 

Dipole moment calculation done in   0.0 sec 

Maximum memory used throughout the entire PROP-calculation: 9.2 MB

--------------------------------
SUGGESTED CITATIONS FOR THIS RUN
--------------------------------

Below you find a list of papers that are relevant to this ORCA run
We neither can nor want to force you to cite these papers, but we appreciate if you do
You receive ORCA, which is the product of decades of hard work by many enthusiastic individuals, for free
The only thing we kindly ask in return is that you cite our papers,
We deeply appreciate it, if you show your appreciation for ORCA by not just citing the generic ORCA reference.

Please note that relegating all ORCA citations to the supporting information does *not* help us.
SI sections are not indexed - citations you put there will not count into any citation statistics
But we need these citations in order to attract the funding resources that allow us to do what we are doing

Therefore, if you are a happy ORCA user, please consider citing a few of the papers listed below in the main body of your paper

In addition to the list printed below, the program has created the file sp.bibtex that contains the list in bibtex format
You can import this file easily into all common literature databanks and citation aid programs


List of essential papers. We consider these as the minimum necessary citations

  1. Neese,F.
     Software update: the ORCA program system, version 5.0
     WIRES Comput. Molec. Sci., 2022 12(1)e1606
     doi.org/10.1002/wcms.1606

List of papers to cite with high priority. The work reported in these papers was absolutely
necessary for this run to complete.
Our perspective: the developers of density functionals and basis sets usually get cited in chemistry papers
Good! But without the algorithms to do something with them, the functionals or basis sets would not do anything.
Hence, in our opinion, the algorithm design and method developments papers are equally worthy of getting cited

  1. Neese,F.
     An improvement of the resolution of the identity approximation for the formation of the Coulomb matrix
     J. Comp. Chem., 2003 24(14)1740-1747
     doi.org/10.1002/jcc.10318
  2. Neese,F.
     The SHARK Integral Generation and Digestion System
     J. Comp. Chem., 2022  1-16
     doi.org/10.1002/jcc.26942
  3. Caldeweyher,E.; Bannwarth,C.; Grimme,S.
     Extension of the D3 dispersion coefficient model
     J. Chem. Phys., 2017 147 034112
     doi.org/10.1063/1.4993215
  4. Caldeweyher,E.; Ehlert,S.; Hansen,A.; Neugebauer,H.; Spicher,S.; Bannwarth,C.; Grimme,S.
     A generally applicable atomic-charge dependent London dispersion correction
     J. Chem. Phys., 2019 150 154122
     doi.org/10.1063/1.5090222
  5. Caldeweyher,E.; Mewes,J.; Ehlert,S.; Grimme,S.
     Extension and evaluation of the D4 London-dispersion model for periodic systems
     Phys. Chem. Chem. Phys., 2020 22(16)8499-8512
     doi.org/10.1039/D0CP00502A
  6. Wittmann,L.; Gordiy,I.; Friede,M.; Helmich-Paris,B.; Grimme,S.; Hansen,A.; Bursch,M.
     Extension of the D3 and D4 London Dispersion Corrections to the full Actinides Series
     Phys. Chem. Chem. Phys., 2024 26(32)21379-21394
     doi.org/https://doi.org/10.1039/D4CP01514B 

List of suggested additional citations. These are papers that are important in the 'surrounding' of 
of this run, or papers that preceded the highly important papers. If you like your results we are grateful for a citation.

  1. Neese,F.
     The ORCA program system
     WIRES Comput. Molec. Sci., 2012 2(1)73-78
     doi.org/10.1002/wcms.81
  2. Neese,F.
     Software update: the ORCA program system, version 4.0
     WIRES Comput. Molec. Sci., 2018 8(1)1-6
     doi.org/10.1002/wcms.1327
  3. Neese,F.; Wennmohs,F.; Becker,U.; Riplinger,C.
     The ORCA quantum chemistry program package
     J. Chem. Phys., 2020 152 Art. No. L224108
     doi.org/10.1063/5.0004608

List of optional additional citations

  1. Neese,F.
     Approximate second-order SCF convergence for spin unrestricted wavefunctions
     Chem. Phys. Lett., 2000 325(1-3)93-98
     doi.org/10.1016/s0009-2614(00)00662-x

Timings for individual modules:

Sum of individual times          ...        3.355 sec (=   0.056 min)
Startup calculation              ...        0.289 sec (=   0.005 min)   8.6 %
SCF iterations                   ...        3.028 sec (=   0.050 min)  90.2 %
Property calculations            ...        0.038 sec (=   0.001 min)   1.1 %
                             ****ORCA TERMINATED NORMALLY****
TOTAL RUN TIME: 0 days 0 hours 0 minutes 3 seconds 432 msec
