
                                 *****************
                                 * O   R   C   A *
                                 *****************

                                            #,                                       
                                            ###                                      
                                            ####                                     
                                            #####                                    
                                            ######                                   
                                           ########,                                 
                                     ,,################,,,,,                         
                               ,,#################################,,                 
                          ,,##########################################,,             
                       ,#########################################, ''#####,          
                    ,#############################################,,   '####,        
                  ,##################################################,,,,####,       
                ,###########''''           ''''###############################       
              ,#####''   ,,,,##########,,,,          '''####'''          '####       
            ,##' ,,,,###########################,,,                        '##       
           ' ,,###''''                  '''############,,,                           
         ,,##''                                '''############,,,,        ,,,,,,###''
      ,#''                                            '''#######################'''  
     '                                                          ''''####''''         
             ,#######,   #######,   ,#######,      ##                                
            ,#'     '#,  ##    ##  ,#'     '#,    #''#        ,####,   ,####,        
            ##       ##  ##   ,#'  ##            #'  '#       #'       #'  '#        
            ##       ##  #######   ##           ,######,      #####,   #    #        
            '#,     ,#'  ##    ##  '#,     ,#' ,#      #,     #,   #   #,  ,#        
             '#######'   ##     ##  '#######'  #'      '#     '####' # '####'        



                #########################################################
                #                        -***-                          #
                #          Department of theory and spectroscopy        #
                #                                                       #
                #                      Frank Neese                      #
                #                                                       #
                #     Directorship, Architecture, Infrastructure        #
                #                    SHARK, DRIVERS                     #
                #        Core code/Algorithms in most modules           #
                #                                                       #
                #        Max Planck Institute fuer Kohlenforschung      #
                #                Kaiser Wilhelm Platz 1                 #
                #                 D-45470 Muelheim/Ruhr                 #
                #                      Germany                          #
                #                                                       #
                #                  All rights reserved                  #
                #                        -***-                          #
                #########################################################


                         Program Version 6.0.1  -  RELEASE   -


 With contributions from (in alphabetic order):
[Max-Planck-Institut fuer Kohlenforschung]                               
  Daniel Aravena         : Magnetic Suceptibility                        
  Michael Atanasov       : Ab Initio Ligand Field Theory (pilot matlab implementation)
  Alexander A. Auer      : GIAO ZORA, VPT2 properties, NMR spectrum      
  Ute Becker             : All parallelization in ORCA, NUMFREQ, NUMCALC 
  Giovanni Bistoni       : ED, misc. LED, open-shell LED, HFLD           
  Martin Brehm           : Molecular dynamics                            
  Dmytro Bykov           : pre 5.0 version of the SCF Hessian            
  Marcos Casanova-Páez   : Triplet and SCS-CIS(D). UHF-(DLPNO)-IP/EA/STEOM-CCSD. UHF-CVS-IP/STEOM-CCSD   
  Vijay G. Chilkuri      : MRCI spin determinant printing, contributions to CSF-ICE 
  Pauline Colinet        : FMM embedding                                 
  Dipayan Datta          : RHF DLPNO-CCSD density                        
  Achintya Kumar Dutta   : EOM-CC, STEOM-CC                              
  Nicolas Foglia         : Exact transition moments, OPA infrastructure, MCD improvements    
  Dmitry Ganyushin       : Spin-Orbit,Spin-Spin,Magnetic field MRCI      
  Miquel Garcia-Rates    : C-PCM and meta-GGA Hessian, CCSD/C-PCM, Gaussian charge scheme 
  Tiago L. C. Gouveia    : GS-ROHF, GS-ROCIS                             
  Yang Guo               : DLPNO-NEVPT2, F12-NEVPT2, CIM, IAO-localization        
  Andreas Hansen         : Spin unrestricted coupled pair/coupled cluster methods 
  Ingolf Harden          : AUTO-CI MPn and infrastructure                
  Benjamin Helmich-Paris : MC-RPA, TRAH-(SCF,CASSCF), AVAS, COSX integrals, SCF dyn. polar. 
  Lee Huntington         : MR-EOM, pCC                                   
  Robert Izsak           : Overlap fitted RIJCOSX, COSX-SCS-MP3, EOM     
  Riya Kayal             : Wick's Theorem for AUTO-CI, AUTO-CI UHF-CCSDT 
  Emily Kempfer          : AUTO-CI, RHF CISDT and CCSDT                  
  Christian Kollmar      : KDIIS, OOCD, Brueckner-CCSD(T), CCSD density, CASPT2, CASPT2-K, improved NEVPT2 
  Axel Koslowski         : Symmetry handling                             
  Simone Kossmann        : meta-GGA functionals, TD-DFT gradient, OOMP2, (MP2 Hessian; deprecated post 5.0) 
  Lucas Lang             : DCDCAS                                        
  Marvin Lechner         : AUTO-CI (C++ implementation), FIC-MRCC        
  Spencer Leger          : CASSCF response                               
  Dagmar Lenk            : GEPOL surface, SMD, ORCA-2-JSON               
  Dimitrios Liakos       : Extrapolation schemes; Compound Job, initial MDCI parallelization 
  Dimitrios Manganas     : Further ROCIS development; embedding schemes. LFT, Crystal Embedding 
  Dimitrios Pantazis     : SARC Basis sets                               
  Anastasios Papadopoulos: AUTO-CI, single reference methods and gradients 
  Taras Petrenko         : pre 6.0 DFT Hessian and TD-DFT gradient, (ASA, deprecated), ECA, 1-Electron XAS/XES, NRVS 
  Peter Pinski           : DLPNO-MP2, DLPNO-MP2 Gradient                 
  Christoph Reimann      : Effective Core Potentials                     
  Marius Retegan         : Local ZFS, SOC                                
  Christoph Riplinger    : Optimizer, TS searches, QM/MM, DLPNO-CCSD(T), (RO)-DLPNO pert. Triples 
  Michael Roemelt        : Original ROCIS implementation                 
  Masaaki Saitow         : Open-shell DLPNO-CCSD energy and density      
  Barbara Sandhoefer     : DKH picture change effects                    
  Kantharuban Sivalingam : CASSCF convergence/infrastructure, NEVPT2 and variants, FIC-MRCI 
  Bernardo de Souza      : ESD, SOC TD-DFT                               
  Georgi L. Stoychev     : AutoAux, RI-MP2 NMR, DLPNO-MP2 response, X2C  
  Van Anh Tran           : RI-MP2 g-tensors                              
  Willem Van den Heuvel  : Paramagnetic NMR                              
  Zikuan Wang            : NOTCH, Electric field optimization            
  Frank Wennmohs         : Technical directorship and infrastructure     
  Hang Xu                : AUTO-CI-Response properties                   
                                                                         
[FACCTs GmbH]                                                            
  Markus Bursch, Miquel Garcia-Rates, Christoph Riplinger, Bernardo de Souza, Georgi L. Stoychev 
                                                                 
  APM, Basis sets (HGBS, AHGBS, def-TZVP (Ac-Lr), def2-XVPD (La-Lu)), CI-OPT, improved COSX, DLPNO-Multilevel,           
  DOCKER, DRACO, updates on ESD, GOAT, IRC, LR-CPCM, MBIS, meta-GGA TD-DFT gradient, ML-optimized integration grids, 
  MM, NACMEs, nearIR, NEB, NEB-TS, NL-DFT gradient (VV10), 2- and 3-layer-ONIOM, interface openCOSMO-RS, QMMM,   
  Crystal-QMMM, SF, symmetry and pop. for TD-DFT, r2SCAN hybrids, SOLVATOR                                   
                                                                         
[Other institutions]                                                     
  V. Asgeirsson          : NEB                                           
  Christoph Bannwarth    : sTDA-DFT, sTD-DFT, PBEh-3c, B97-3c, D3        
  Sebastian Ehlert       : rSCAN, r2SCAN, r2SCAN-3c, D4, dhf basis sets  
  Marvin Friede          : D4 for Fr, Ra, Ac-Lr                          
  Lars Goerigk           : TD-DFT with DH, B97 family of functionals     
  Stefan Grimme          : VdW corrections, initial TS optimization, DFT functionals, gCP, sTDA/sTD-DF 
  Waldemar Hujo          : DFT-NL                                        
  H. Jonsson             : NEB                                           
  Holger Kruse           : gCP                                           
  Marcel Mueller         : wB97X-3c, vDZP basis set                      
  Hagen Neugebauer       : wr2SCAN                                       
  Tobias Risthaus        : range-separated hybrid DFT                    
  Lukas Wittmann         : regularized MP2, r2SCAN double-hybrids, wr2SCAN        
                                                                         
We gratefully acknowledge several colleagues who have allowed us to      
interface, adapt or use parts of their codes:                            
  Ed Valeev, F. Pavosevic, A. Kumar             : LibInt (2-el integral package), F12 methods 
  Garnet Chan, S. Sharma, J. Yang, R. Olivares  : DMRG                   
  Ulf Ekstrom                                   : XCFun DFT Library      
  Mihaly Kallay                                 : mrcc  (arbitrary order and MRCC methods)
  Frank Weinhold                                : gennbo (NPA and NBO analysis)           
  Simon Mueller                                 : openCOSMO-RS                            
  Christopher J. Cramer and Donald G. Truhlar   : smd solvation model                     
  S Lehtola, MJT Oliveira, MAL Marques          : LibXC Library                           
  Liviu Ungur et al                             : ANISO software                          


 Your calculation uses the libint2 library for the computation of 2-el integrals
 For citations please refer to: http://libint.valeyev.net

 Your ORCA version has been built with support for libXC version: 6.2.2
 For citations please refer to: https://libxc.gitlab.io

 This ORCA versions uses:
   CBLAS   interface :  Fast vector & matrix operations
   LAPACKE interface :  Fast linear algebra routines
   SCALAPACK package :  Parallel linear algebra routines
   Shared memory     :  Shared parallel matrices
   BLAS/LAPACK       :  OpenBLAS 0.3.27  USE64BITINT DYNAMIC_ARCH NO_AFFINITY Zen SINGLE_THREADED
        Core in use  :  Zen
   Copyright (c) 2011-2014, The OpenBLAS Project


Your calculation utilizes the geometrical counterpoise correction gCP
Please cite in your paper:
H.Kruse, S. Grimme J.Chem.Phys., 136, (2012), 154101 
   

Your calculation utilizes the DFT-NL dispersion correction.
Cite in your paper:
Vydrov, O. A.; Van Voorhis, T. J. Chem. Phys. 2010, 133, 244103
Hujo, W.; Grimme, S. J. Chem. Theory Comput. 2011, 7, 3866 
   

================================================================================

----- Orbital basis set information -----
Your calculation utilizes the basis: def2-TZVP
   F. Weigend and R. Ahlrichs, Phys. Chem. Chem. Phys. 7, 3297 (2005).

----- AuxJ basis set information -----
Your calculation utilizes the auxiliary basis: def2/J
   F. Weigend, Phys. Chem. Chem. Phys. 8, 1057 (2006).

================================================================================
                                        WARNINGS
                       Please study these warnings very carefully!
================================================================================

WARNING: Old DensityContainer found on disk!
         Will remove this file - 
         If you want to keep old densities, please start your calculation with a different basename. 


================================================================================
                                       INPUT FILE
================================================================================
NAME = sp.inp
|  1> ! wb97x-v def2-tzvp def2/J RIJCOSX DEFGRID2 scfconv7 GCP(DFT/TZ) printgap
|  2> %output
|  3>     printlevel normal
|  4> end
|  5> * xyz 0 1
|  6> C -3.997690411943754 -0.6990127523304692 0.004743694457316244
|  7> C -3.997687513545851 0.6990488351309615 0.004889490811204959
|  8> C -2.7997046820698137 1.3945046037615194 0.0019422863728365753
|  9> C -1.5846046883235596 0.700995737287002 -0.0006181463501474296
| 10> C -1.584607756999471 -0.7009704930173816 -0.000867744053389071
| 11> C -2.7997111105848598 -1.3944740860225344 0.0016099056768889934
| 12> C -0.318788008545561 -1.4642079775168184 -0.003253667147920908
| 13> O -0.36295039700217463 -2.7095668407319207 -0.005604364385889074
| 14> C 0.9339931600252929 -0.7182904617964555 -0.0027542314396955462
| 15> C 2.160744358303339 -1.425280169601829 0.0005467383041337209
| 16> C 3.3699506402712203 -0.6812764779283307 0.007436739420266654
| 17> C 3.3699535084080665 0.6812637082735195 0.007325069219269209
| 18> C 2.160756200959965 1.4252781524678277 0.000343301539519557
| 19> C 0.9340024244849382 0.7183030088743206 -0.002745861861582121
| 20> C -0.31878109287946316 1.4642293570562848 -0.002587087576203964
| 21> O -0.3629364973753154 2.7095858018941055 -0.004550748567465849
| 22> N 2.23015494452369 2.778209991864222 -0.0050222674568573605
| 23> N 2.2301052282939122 -2.7781955604454396 -0.0035141088289082855
| 24> H -4.9384007082546795 -1.2404694671942942 0.007068782322535607
| 25> H -4.938396089385796 1.2405089003689411 0.007323016466530206
| 26> H -2.773556122013484 2.478250560171558 0.0019772546349248136
| 27> H -2.7735691024877016 -2.4782196727070285 0.0013511403437635229
| 28> H 4.313962612421378 -1.2196141021577063 0.011995578210931536
| 29> H 4.313970094269117 1.2195956961204708 0.011650911221178088
| 30> H 3.124059304811409 3.2337094403691102 0.01708621508297529
| 31> H 1.353486064091957 3.2892203197980407 0.0015111970638857159
| 32> H 1.353444362517894 -3.289244726844611 -0.0007451781755141033
| 33> H 3.1240987141836434 -3.2337735719103247 0.012148080476052193
| 34> *
| 35> 
| 36>                          ****END OF INPUT****
================================================================================

                       ****************************
                       * Single Point Calculation *
                       ****************************

---------------------------------
CARTESIAN COORDINATES (ANGSTROEM)
---------------------------------
  C     -3.997690   -0.699013    0.004744
  C     -3.997688    0.699049    0.004889
  C     -2.799705    1.394505    0.001942
  C     -1.584605    0.700996   -0.000618
  C     -1.584608   -0.700970   -0.000868
  C     -2.799711   -1.394474    0.001610
  C     -0.318788   -1.464208   -0.003254
  O     -0.362950   -2.709567   -0.005604
  C      0.933993   -0.718290   -0.002754
  C      2.160744   -1.425280    0.000547
  C      3.369951   -0.681276    0.007437
  C      3.369954    0.681264    0.007325
  C      2.160756    1.425278    0.000343
  C      0.934002    0.718303   -0.002746
  C     -0.318781    1.464229   -0.002587
  O     -0.362936    2.709586   -0.004551
  N      2.230155    2.778210   -0.005022
  N      2.230105   -2.778196   -0.003514
  H     -4.938401   -1.240469    0.007069
  H     -4.938396    1.240509    0.007323
  H     -2.773556    2.478251    0.001977
  H     -2.773569   -2.478220    0.001351
  H      4.313963   -1.219614    0.011996
  H      4.313970    1.219596    0.011651
  H      3.124059    3.233709    0.017086
  H      1.353486    3.289220    0.001511
  H      1.353444   -3.289245   -0.000745
  H      3.124099   -3.233774    0.012148

----------------------------
CARTESIAN COORDINATES (A.U.)
----------------------------
  NO LB      ZA    FRAG     MASS         X           Y           Z
   0 C     6.0000    0    12.011   -7.554540   -1.320943    0.008964
   1 C     6.0000    0    12.011   -7.554535    1.321011    0.009240
   2 C     6.0000    0    12.011   -5.290675    2.635232    0.003670
   3 C     6.0000    0    12.011   -2.994469    1.324690   -0.001168
   4 C     6.0000    0    12.011   -2.994475   -1.324642   -0.001640
   5 C     6.0000    0    12.011   -5.290687   -2.635174    0.003042
   6 C     6.0000    0    12.011   -0.602422   -2.766952   -0.006149
   7 O     8.0000    0    15.999   -0.685877   -5.120339   -0.010591
   8 C     6.0000    0    12.011    1.764991   -1.357372   -0.005205
   9 C     6.0000    0    12.011    4.083215   -2.693389    0.001033
  10 C     6.0000    0    12.011    6.368284   -1.287426    0.014053
  11 C     6.0000    0    12.011    6.368289    1.287402    0.013842
  12 C     6.0000    0    12.011    4.083237    2.693385    0.000649
  13 C     6.0000    0    12.011    1.765009    1.357396   -0.005189
  14 C     6.0000    0    12.011   -0.602409    2.766992   -0.004889
  15 O     8.0000    0    15.999   -0.685851    5.120375   -0.008600
  16 N     7.0000    0    14.007    4.214382    5.250056   -0.009491
  17 N     7.0000    0    14.007    4.214288   -5.250029   -0.006641
  18 H     1.0000    0     1.008   -9.332225   -2.344148    0.013358
  19 H     1.0000    0     1.008   -9.332216    2.344222    0.013838
  20 H     1.0000    0     1.008   -5.241261    4.683215    0.003736
  21 H     1.0000    0     1.008   -5.241286   -4.683156    0.002553
  22 H     1.0000    0     1.008    8.152208   -2.304737    0.022668
  23 H     1.0000    0     1.008    8.152222    2.304702    0.022017
  24 H     1.0000    0     1.008    5.903617    6.110825    0.032288
  25 H     1.0000    0     1.008    2.557718    6.215726    0.002856
  26 H     1.0000    0     1.008    2.557639   -6.215772   -0.001408
  27 H     1.0000    0     1.008    5.903691   -6.110946    0.022957

--------------------------------
INTERNAL COORDINATES (ANGSTROEM)
--------------------------------
 C      0   0   0     0.000000000000     0.00000000     0.00000000
 C      1   0   0     1.398061595067     0.00000000     0.00000000
 C      2   1   0     1.385218494190   120.13615009     0.00000000
 C      3   2   1     1.399081519604   120.14877802   359.97277942
 C      4   3   2     1.401966252526   119.71506825     0.03197099
 C      1   2   3     1.385218644755   120.13620540     0.00000000
 C      5   4   3     1.478119340902   121.08810501   180.01306513
 O      7   5   4     1.246143868307   119.05741059   180.11611073
 C      7   5   4     1.458030811067   118.14170503     0.11557900
 C      9   7   5     1.415896834455   119.27469970   179.74248588
 C     10   9   7     1.419777728269   118.44171828   180.29624940
 C     11  10   9     1.362540190781   121.60294479   359.82471801
 C     12  11  10     1.419776167778   121.60330567     0.00000000
 C     13  12  11     1.415891318105   118.44168420     0.17828904
 C     14  13  12     1.458037270958   119.27495590   179.67004774
 O     15  14  13     1.246140533973   122.80078448     0.25824116
 N     13  12  11     1.354721202680   118.66805506   180.27243002
 N     10   9   7     1.354698296872   122.88941273     0.34329739
 H      1   2   3     1.085410817014   119.92402087   179.99937113
 H      2   1   3     1.085411234949   119.92400489   180.00035508
 H      3   2   1     1.084061366552   121.51819842   179.99924713
 H      6   1   2     1.084060869234   121.51815462   180.00489419
 H     11  10   9     1.086732158462   118.70279014   179.87952665
 H     12  11  10     1.086732421725   119.69408954   180.06412750
 H     17  13  12     1.003510606785   119.92403191   358.60975755
 H     17  13  12     1.014752466038   117.29900386   180.72931044
 H     18  10   9     1.014747846037   117.30440916   359.46524769
 H     18  10   9     1.003504350522   119.93092977   180.86068788

---------------------------
INTERNAL COORDINATES (A.U.)
---------------------------
 C      0   0   0     0.000000000000     0.00000000     0.00000000
 C      1   0   0     2.641953533029     0.00000000     0.00000000
 C      2   1   0     2.617683589662   120.13615009     0.00000000
 C      3   2   1     2.643880911081   120.14877802   359.97277942
 C      4   3   2     2.649332266274   119.71506825     0.03197099
 C      1   2   3     2.617683874189   120.13620540     0.00000000
 C      5   4   3     2.793240747558   121.08810501   180.01306513
 O      7   5   4     2.354870634566   119.05741059   180.11611073
 C      7   5   4     2.755278927735   118.14170503     0.11557900
 C      9   7   5     2.675657251007   119.27469970   179.74248588
 C     10   9   7     2.682991077470   118.44171828   180.29624940
 C     11  10   9     2.574827807037   121.60294479   359.82471801
 C     12  11  10     2.682988128568   121.60330567     0.00000000
 C     13  12  11     2.675646826615   118.44168420     0.17828904
 C     14  13  12     2.755291135160   119.27495590   179.67004774
 O     15  14  13     2.354864333587   122.80078448     0.25824116
 N     13  12  11     2.560052060882   118.66805506   180.27243002
 N     10   9   7     2.560008775177   122.88941273     0.34329739
 H      1   2   3     2.051129186951   119.92402087   179.99937113
 H      2   1   3     2.051129976735   119.92400489   180.00035508
 H      3   2   1     2.048579095148   121.51819842   179.99924713
 H      6   1   2     2.048578155353   121.51815462   180.00489419
 H     11  10   9     2.053626160418   118.70279014   179.87952665
 H     12  11  10     2.053626657914   119.69408954   180.06412750
 H     17  13  12     1.896360219309   119.92403191   358.60975755
 H     17  13  12     1.917604254534   117.29900386   180.72931044
 H     18  10   9     1.917595523997   117.30440916   359.46524769
 H     18  10   9     1.896348396686   119.93092977   180.86068788

---------------------
BASIS SET INFORMATION
---------------------
There are 4 groups of distinct atoms

 Group   1 Type C   : 11s6p2d1f contracted to 5s3p2d1f pattern {62111/411/11/1}
 Group   2 Type O   : 11s6p2d1f contracted to 5s3p2d1f pattern {62111/411/11/1}
 Group   3 Type N   : 11s6p2d1f contracted to 5s3p2d1f pattern {62111/411/11/1}
 Group   4 Type H   : 5s1p contracted to 3s1p pattern {311/1}

Atom   0C    basis set group =>   1
Atom   1C    basis set group =>   1
Atom   2C    basis set group =>   1
Atom   3C    basis set group =>   1
Atom   4C    basis set group =>   1
Atom   5C    basis set group =>   1
Atom   6C    basis set group =>   1
Atom   7O    basis set group =>   2
Atom   8C    basis set group =>   1
Atom   9C    basis set group =>   1
Atom  10C    basis set group =>   1
Atom  11C    basis set group =>   1
Atom  12C    basis set group =>   1
Atom  13C    basis set group =>   1
Atom  14C    basis set group =>   1
Atom  15O    basis set group =>   2
Atom  16N    basis set group =>   3
Atom  17N    basis set group =>   3
Atom  18H    basis set group =>   4
Atom  19H    basis set group =>   4
Atom  20H    basis set group =>   4
Atom  21H    basis set group =>   4
Atom  22H    basis set group =>   4
Atom  23H    basis set group =>   4
Atom  24H    basis set group =>   4
Atom  25H    basis set group =>   4
Atom  26H    basis set group =>   4
Atom  27H    basis set group =>   4
---------------------------------
AUXILIARY/J BASIS SET INFORMATION
---------------------------------
There are 4 groups of distinct atoms

 Group   1 Type C   : 12s5p4d2f1g contracted to 6s4p3d1f1g pattern {711111/2111/211/2/1}
 Group   2 Type O   : 12s5p4d2f1g contracted to 6s4p3d1f1g pattern {711111/2111/211/2/1}
 Group   3 Type N   : 12s5p4d2f1g contracted to 6s4p3d1f1g pattern {711111/2111/211/2/1}
 Group   4 Type H   : 5s2p1d contracted to 3s1p1d pattern {311/2/1}

Atom   0C    basis set group =>   1
Atom   1C    basis set group =>   1
Atom   2C    basis set group =>   1
Atom   3C    basis set group =>   1
Atom   4C    basis set group =>   1
Atom   5C    basis set group =>   1
Atom   6C    basis set group =>   1
Atom   7O    basis set group =>   2
Atom   8C    basis set group =>   1
Atom   9C    basis set group =>   1
Atom  10C    basis set group =>   1
Atom  11C    basis set group =>   1
Atom  12C    basis set group =>   1
Atom  13C    basis set group =>   1
Atom  14C    basis set group =>   1
Atom  15O    basis set group =>   2
Atom  16N    basis set group =>   3
Atom  17N    basis set group =>   3
Atom  18H    basis set group =>   4
Atom  19H    basis set group =>   4
Atom  20H    basis set group =>   4
Atom  21H    basis set group =>   4
Atom  22H    basis set group =>   4
Atom  23H    basis set group =>   4
Atom  24H    basis set group =>   4
Atom  25H    basis set group =>   4
Atom  26H    basis set group =>   4
Atom  27H    basis set group =>   4

Checking for AutoStart:
The File: sp.gbw exists
Trying to determine its content:
     ... Fine, the file contains calculation information
     ... Fine, the calculation information was read
     ... Fine, the file contains a basis set
     ... Fine, the basis set was read
     ... Fine, the file contains a geometry
     ... Fine, the geometry was read
     ... Fine, the file contains a set of orbitals
     ... Fine, the orbitals can be read
     => possible old guess file was deleted
     => GBW file was renamed to GES file
     => GES file is set as startup file
     => Guess is set to MORead
     ... now leaving AutoStart

------------------------------------------------------------------------------
                             ORCA STARTUP CALCULATIONS
                           -- RI-GTO INTEGRALS CHOSEN --
------------------------------------------------------------------------------
------------------------------------------------------------------------------
                   ___                                                        
                  /   \      - P O W E R E D   B Y -                         
                 /     \                                                     
                 |  |  |   _    _      __       _____    __    __             
                 |  |  |  | |  | |    /  \     |  _  \  |  |  /  |          
                  \  \/   | |  | |   /    \    | | | |  |  | /  /          
                 / \  \   | |__| |  /  /\  \   | |_| |  |  |/  /          
                |  |  |   |  __  | /  /__\  \  |    /   |      \           
                |  |  |   | |  | | |   __   |  |    \   |  |\   \          
                \     /   | |  | | |  |  |  |  | |\  \  |  | \   \       
                 \___/    |_|  |_| |__|  |__|  |_| \__\ |__|  \__/        
                                                                              
                      - O R C A' S   B I G   F R I E N D -                    
                                      &                                       
                       - I N T E G R A L  F E E D E R -                       
                                                                              
 v1 FN, 2020, v2 2021, v3 2022-2024                                           
------------------------------------------------------------------------------


----------------------
SHARK INTEGRAL PACKAGE
----------------------

Number of atoms                             ...     28
Number of basis functions                   ...    618
Number of shells                            ...    238
Maximum angular momentum                    ...      3
Integral batch strategy                     ... SHARK/LIBINT Hybrid
RI-J (if used) integral strategy            ... SPLIT-RIJ (Revised 2003 algorithm where possible)
Printlevel                                  ...      1
Contraction scheme used                     ... SEGMENTED contraction
Prescreening option                         ... SCHWARTZ
   Thresh                                   ... 3.000e-11
   Tcut                                     ... 1.000e-12
   Tpresel                                  ... 1.000e-12 
Coulomb Range Separation                    ... NOT USED
Exchange Range Separation                   ... Long Range
   Mu parameter                             ... 3.000e-01
   Scaling (regular/separated)              ... 1.670e-01 8.330e-01
Multipole approximations                    ... NOT USED
Finite Nucleus Model                        ... NOT USED
CABS basis                                  ... NOT available
Auxiliary Coulomb fitting basis             ... AVAILABLE
   # of basis functions in Aux-J            ...    992
   # of shells in Aux-J                     ...    320
   Maximum angular momentum in Aux-J        ...      4
Auxiliary J/K fitting basis                 ... NOT available
Auxiliary Correlation fitting basis         ... NOT available
Auxiliary 'external' fitting basis          ... NOT available

Checking pre-screening integrals            ... done (  0.0 sec) Dimension = 238
Check shell pair data                       ... done (  0.0 sec)
Shell pair information
Shell pair cut-off parameter TPreSel        ...   1.0e-12
Total number of shell pairs                 ...     28441
Shell pairs after pre-screening             ...     22497
Total number of primitive shell pairs       ...     88836
Primitive shell pairs kept                  ...     48284
          la=0 lb=0:   5377 shell pairs
          la=1 lb=0:   6252 shell pairs
          la=1 lb=1:   1819 shell pairs
          la=2 lb=0:   3364 shell pairs
          la=2 lb=1:   1958 shell pairs
          la=2 lb=2:    548 shell pairs
          la=3 lb=0:   1582 shell pairs
          la=3 lb=1:    950 shell pairs
          la=3 lb=2:    514 shell pairs
          la=3 lb=3:    133 shell pairs

Calculating one electron integrals          ... done (  0.1 sec)
Calculating RI/J V-Matrix + Cholesky decomp.... done (  0.0 sec)
Calculating Nuclear repulsion               ... done (  0.0 sec) ENN=   1238.726908610111 Eh

Diagonalization of the overlap matrix:
Smallest eigenvalue                        ... 4.669e-06
Time for diagonalization                   ...    0.034 sec
Threshold for overlap eigenvalues          ... 1.000e-07
Number of eigenvalues below threshold      ... 0
Time for construction of square roots      ...    0.018 sec
Total time needed                          ...    0.053 sec

-------------------
DFT GRID GENERATION
-------------------

General Integration Accuracy     IntAcc      ... 4.388
Radial Grid Type                 RadialGrid  ... OptM3 with GC (2021)
Angular Grid (max. ang.)         AngularGrid ... 4 (Lebedev-302)
Angular grid pruning method      GridPruning ... 4 (adaptive)
Weight generation scheme         WeightScheme... mBecke (2022)
Basis function cutoff            BFCut       ... 1.0000e-11
Integration weight cutoff        WCut        ... 1.0000e-14
Partially contracted basis set               ... off
Rotationally invariant grid construction     ... off
Angular grids for H and He will be reduced by one unit

Total number of grid points                  ...   139468
Total number of batches                      ...     2195
Average number of points per batch           ...       63
Average number of grid points per atom       ...     4981

--------------------
COSX GRID GENERATION
--------------------

GRIDX 1
-------
General Integration Accuracy     IntAcc      ... 3.816
Radial Grid Type                 RadialGrid  ... OptM3 with GC (2021)
Angular Grid (max. ang.)         AngularGrid ... 1 (Lebedev-50)
Angular grid pruning method      GridPruning ... 4 (adaptive)
Weight generation scheme         WeightScheme... mBecke (2022)
Basis function cutoff            BFCut       ... 1.0000e-11
Integration weight cutoff        WCut        ... 1.0000e-14
Partially contracted basis set               ... on
Rotationally invariant grid construction     ... off
Angular grids for H and He will be reduced by one unit

Total number of grid points                  ...    17788
Total number of batches                      ...      152
Average number of points per batch           ...      117
Average number of grid points per atom       ...      635
UseSFitting                                  ... on

GRIDX 2
-------
General Integration Accuracy     IntAcc      ... 4.020
Radial Grid Type                 RadialGrid  ... OptM3 with GC (2021)
Angular Grid (max. ang.)         AngularGrid ... 2 (Lebedev-110)
Angular grid pruning method      GridPruning ... 4 (adaptive)
Weight generation scheme         WeightScheme... mBecke (2022)
Basis function cutoff            BFCut       ... 1.0000e-11
Integration weight cutoff        WCut        ... 1.0000e-14
Partially contracted basis set               ... on
Rotationally invariant grid construction     ... off
Angular grids for H and He will be reduced by one unit

Total number of grid points                  ...    39157
Total number of batches                      ...      320
Average number of points per batch           ...      122
Average number of grid points per atom       ...     1398
UseSFitting                                  ... on

GRIDX 3
-------
General Integration Accuracy     IntAcc      ... 4.338
Radial Grid Type                 RadialGrid  ... OptM3 with GC (2021)
Angular Grid (max. ang.)         AngularGrid ... 3 (Lebedev-194)
Angular grid pruning method      GridPruning ... 4 (adaptive)
Weight generation scheme         WeightScheme... mBecke (2022)
Basis function cutoff            BFCut       ... 1.0000e-11
Integration weight cutoff        WCut        ... 1.0000e-14
Partially contracted basis set               ... on
Rotationally invariant grid construction     ... off
Angular grids for H and He will be reduced by one unit

Total number of grid points                  ...    86155
Total number of batches                      ...      686
Average number of points per batch           ...      125
Average number of grid points per atom       ...     3077
UseSFitting                                  ... on
Initializing property integral containers    ... done (  0.0 sec)

SHARK setup successfully completed in   3.5 seconds

Maximum memory used throughout the entire STARTUP-calculation: 111.6 MB
-------------------------------------------------------------------------------
                                 ORCA GUESS
                   Start orbitals & Density for SCF / CASSCF
-------------------------------------------------------------------------------

------------
SCF SETTINGS
------------
Hamiltonian:
 Density Functional     Method          .... DFT(GTOs)
 Exchange Functional    Exchange        .... WB97X-V
 Correlation Functional Correlation     .... WB97X-V
 Gradients option       PostSCFGGA      .... off
 Hybrid DFT is turned on
   Fraction HF Exchange ScalHFX         ....  0.167000
   Scaling of DF-GGA-X  ScalDFX         ....  0.000000
   Scaling of DF-GGA-C  ScalDFC         ....  1.000000
   Scaling of DF-LDA-C  ScalLDAC        ....  1.000000
   Perturbative correction              ....  0.000000
 Long-range corrected/Screened/Range-Separated Hybrid DFT is turned on
   Amount of maximum screened exact exchange              ....  0.833000
   Range separation parameter mu (erf(mu*r12)/r12)        ....  0.300000
   NL short-range parameter             ....  6.000000
   NL long-range parameter              ....  0.010000
 RI-approximation to the Coulomb term is turned on
   Number of AuxJ basis functions       .... 992
   RIJ-COSX (HFX calculated with COS-X)).... on


General Settings:
 Integral files         IntName         .... sp
 Hartree-Fock type      HFTyp           .... RHF
 Total Charge           Charge          ....    0
 Multiplicity           Mult            ....    1
 Number of Electrons    NEL             ....  124
 Basis Dimension        Dim             ....  618
 Nuclear Repulsion      ENuc            ....   1238.7269086101 Eh

Convergence Acceleration:
 AO-DIIS                CNVDIIS         .... on
   Start iteration      DIISMaxIt       ....    12
   Startup error        DIISStart       ....  0.200000
   # of expansion vecs  DIISMaxEq       ....     5
   Bias factor          DIISBfac        ....   1.050
   Max. coefficient     DIISMaxC        ....  10.000
 MO-DIIS                CNVKDIIS        .... off
 Trust-Rad. Augm. Hess. CNVTRAH         .... auto
   Auto Start mean grad. ratio tolernc. ....  1.125000
   Auto Start start iteration           ....     1
   Auto Start num. interpolation iter.  ....    10
   Max. Number of Micro iterations      ....    24
   Max. Number of Macro iterations      .... Maxiter - #DIIS iter
   Number of Davidson start vectors     ....     2
   Converg. threshold    (grad. norm)   ....   1.000e-04
   Grad. Scal. Fac. for Micro threshold ....   0.100
   Minimum threshold for Micro iter.    ....   1.000e-02
   NR start threshold (gradient norm)   ....   1.000e-04
   Initial trust radius                 ....   0.400
   Minimum AH scaling param. (alpha)    ....   1.000
   Maximum AH scaling param. (alpha)    .... 1000.000
   Quad. conv. algorithm                .... NR
   White noise on init. David. guess    .... on
   Maximum white noise                  ....   0.010
   Pseudo random numbers                .... off
   Inactive MOs                         .... canonical
   Orbital update algorithm             .... Taylor
   Preconditioner                       .... Diag
   Full preconditioner red. dimension   ....   250
 SOSCF                  CNVSOSCF        .... on
   Start iteration      SOSCFMaxIt      ....   150
   Startup grad/error   SOSCFStart      ....  0.003300
   Hessian update       SOSCFHessUp     .... L-BFGS
 Level Shifting         CNVShift        .... on
   Level shift para.    LevelShift      ....    0.2500
   Turn off err/grad.   ShiftErr        ....    0.0010
 Zerner damping         CNVZerner       .... off
 Static damping         CNVDamp         .... on
   Fraction old density DampFac         ....    0.7000
   Max. Damping (<1)    DampMax         ....    0.9800
   Min. Damping (>=0)   DampMin         ....    0.0000
   Turn off err/grad.   DampErr         ....    0.1000

SCF Procedure:
 Maximum # iterations   MaxIter         ....   125
 SCF integral mode      SCFMode         .... Direct
   Integral package                     .... SHARK and LIBINT hybrid scheme
 Reset frequency        DirectResetFreq ....    20
 Integral Threshold     Thresh          ....  3.000e-11 Eh
 Primitive CutOff       TCut            ....  1.000e-12 Eh

Convergence Tolerance:
 Convergence Check Mode ConvCheckMode   .... Total+1el-Energy
 Convergence forced     ConvForced      .... 0
 Energy Change          TolE            ....  1.000e-07 Eh
 1-El. energy change                    ....  1.000e-04 Eh
 Orbital Gradient       TolG            ....  1.000e-04
 Orbital Rotation angle TolX            ....  1.000e-04
 DIIS Error             TolErr          ....  1.000e-07

---------------------
INITIAL GUESS: MOREAD
---------------------
Guess MOs are being read from file: sp.ges
Input Geometry matches current geometry (good)
Atom 0: N(Shells)= 11 and 9 - projection required
Input basis set needs projection
NBasis(read)= 412
NBasis(calc)= 618
Basis set overlap was calculated
Using GuessMode=FMatrix for the initial guess
C*T matrix was formed
Effective Fockian was calculated
Effective Fockian was diagonalized
Initial density was built
                      ------------------
                      INITIAL GUESS DONE (   0.1 sec)
                      ------------------
             **** ENERGY FILE WAS UPDATED (sp.en.tmp) ****
Finished Guess after   0.2 sec
Maximum memory used throughout the entire GUESS-calculation: 91.9 MB

-------------------------------------------------------------------------------------------
                                      ORCA LEAN-SCF
                              memory conserving SCF solver
-------------------------------------------------------------------------------------------

----------------------------------------D-I-I-S--------------------------------------------
Iteration    Energy (Eh)           Delta-E    RMSDP     MaxDP     DIISErr   Damp  Time(sec)
-------------------------------------------------------------------------------------------
               ***  Starting incremental Fock matrix formation  ***
    1    -799.9798031699974672     0.00e+00  2.52e-03  1.63e-01  5.76e-02  0.700  53.5
    2    -799.9927172569698541    -1.29e-02  2.03e-03  1.22e-01  4.21e-02  0.700  23.3
                               ***Turning on AO-DIIS***
    3    -800.0025643219694302    -9.85e-03  1.59e-03  9.03e-02  3.02e-02  0.700  23.1
    4    -800.0098990664207577    -7.33e-03  3.89e-03  2.14e-01  2.13e-02  0.000  22.8
                              *** Initializing SOSCF ***
---------------------------------------S-O-S-C-F--------------------------------------
Iteration    Energy (Eh)           Delta-E    RMSDP     MaxDP     MaxGrad    Time(sec)
--------------------------------------------------------------------------------------
    5    -800.0290110562277732    -1.91e-02  1.57e-04  7.07e-03  2.11e-03    24.0
               *** Restarting incremental Fock matrix formation ***
    6    -800.0292651065483369    -2.54e-04  8.02e-05  2.69e-03  1.86e-03    53.4
    7    -800.0293991898736294    -1.34e-04  7.31e-05  2.57e-03  8.74e-04    40.9
    8    -800.0294391298205028    -3.99e-05  1.82e-05  8.52e-04  4.77e-04    40.5
    9    -800.0294431809236357    -4.05e-06  1.22e-05  7.30e-04  2.39e-04    36.4
   10    -800.0294452046191509    -2.02e-06  4.03e-06  2.23e-04  5.63e-05    33.9
   11    -800.0294453265498760    -1.22e-07  2.68e-06  1.20e-04  3.83e-05    30.2
   12    -800.0294454060058342    -7.95e-08  3.76e-06  2.27e-04  1.73e-05    28.7
                 **** Energy Check signals convergence ****

               *****************************************************
               *                     SUCCESS                       *
               *           SCF CONVERGED AFTER  12 CYCLES          *
               *****************************************************


------------------
NL GRID GENERATION
------------------

General Integration Accuracy     IntAcc      ... 4.004
Radial Grid Type                 RadialGrid  ... OptM3 with GC (2021)
Angular Grid (max. ang.)         AngularGrid ... 2 (Lebedev-110)
Angular grid pruning method      GridPruning ... 4 (adaptive)
Weight generation scheme         WeightScheme... mBecke (2022)
Basis function cutoff            BFCut       ... 1.0000e-10
Integration weight cutoff        WCut        ... 1.0000e-14
Partially contracted basis set               ... off
Rotationally invariant grid construction     ... off
Angular grids for H and He will be reduced by one unit

Total number of grid points                  ...    45572
Total number of batches                      ...      728
Average number of points per batch           ...       62
Average number of grid points per atom       ...     1628
Final grid set up in    0.3 sec

-------------------------------------------------------------------------------
                    post-SCF DFT-NL dispersion correction                      
-------------------------------------------------------------------------------

SCF Energy:     -800.029445406 
NL    Energy:      0.462039584 
SC+NL Energy:   -799.567405822 
NL done in  :              6.2 sec
-------------------------------------------------------------------------------
Recomputing exchange energy using gridx3       ... done (  102.284 sec)
Old exchange energy                            :    -33.888779686 Eh
New exchange energy                            :    -33.888753157 Eh
Exchange energy change after final integration :      0.000026529 Eh
Total energy after final integration           :   -799.567379293 Eh
             **** ENERGY FILE WAS UPDATED (sp.en.tmp) ****

----------------
TOTAL SCF ENERGY
----------------

Total Energy       :       -799.56737929261226 Eh          -21757.33451 eV

Components:
Nuclear Repulsion  :       1238.72690861011051 Eh           33707.47284 eV
Electronic Energy  :      -2038.75635401611635 Eh          -55477.38081 eV
One Electron Energy:      -3545.45651741067195 Eh          -96476.77662 eV
Two Electron Energy:       1506.70016339455560 Eh           40999.39581 eV

Virial components:
Potential Energy   :      -1596.17303653186787 Eh          -43434.07647 eV
Kinetic Energy     :        796.60565723925561 Eh           21676.74196 eV
Virial Ratio       :          2.00371792746692

DFT components:
N(Alpha)           :       62.000034268297 electrons
N(Beta)            :       62.000034268297 electrons
N(Total)           :      124.000068536595 electrons
E(X)               :      -72.042734757971 Eh       
E(C)               :       -5.253289262731 Eh       
NL Energy, E(C,NL) :        0.462039584322 Eh       
E(XC)              :      -76.833984436381 Eh       

---------------
SCF CONVERGENCE
---------------

  Last Energy change         ...    7.9456e-08  Tolerance :   1.0000e-07
  Last MAX-Density change    ...    2.2699e-04  Tolerance :   1.0000e-05
  Last RMS-Density change    ...    3.7606e-06  Tolerance :   1.0000e-06
  Last DIIS Error            ...    2.1102e-03  Tolerance :   1.0000e-07
  Last Orbital Gradient      ...    1.7274e-05  Tolerance :   1.0000e-04
  Last Orbital Rotation      ...    1.6577e-04  Tolerance :   1.0000e-04


----------------
ORBITAL ENERGIES
----------------

  NO   OCC          E(Eh)            E(eV) 
   0   2.0000     -19.195976      -522.3491 
   1   2.0000     -19.195971      -522.3489 
   2   2.0000     -14.418411      -392.3449 
   3   2.0000     -14.418403      -392.3447 
   4   2.0000     -10.362370      -281.9744 
   5   2.0000     -10.362352      -281.9739 
   6   2.0000     -10.335912      -281.2545 
   7   2.0000     -10.335888      -281.2538 
   8   2.0000     -10.297610      -280.2122 
   9   2.0000     -10.296917      -280.1933 
  10   2.0000     -10.291797      -280.0540 
  11   2.0000     -10.291305      -280.0406 
  12   2.0000     -10.287153      -279.9277 
  13   2.0000     -10.286638      -279.9136 
  14   2.0000     -10.285540      -279.8838 
  15   2.0000     -10.285170      -279.8737 
  16   2.0000     -10.283009      -279.8149 
  17   2.0000     -10.282982      -279.8142 
  18   2.0000      -1.166262       -31.7356 
  19   2.0000      -1.163297       -31.6549 
  20   2.0000      -1.073523       -29.2120 
  21   2.0000      -1.061802       -28.8931 
  22   2.0000      -1.011876       -27.5346 
  23   2.0000      -0.976507       -26.5721 
  24   2.0000      -0.934954       -25.4414 
  25   2.0000      -0.895962       -24.3804 
  26   2.0000      -0.891541       -24.2601 
  27   2.0000      -0.862462       -23.4688 
  28   2.0000      -0.804678       -21.8964 
  29   2.0000      -0.782463       -21.2919 
  30   2.0000      -0.769106       -20.9284 
  31   2.0000      -0.725198       -19.7336 
  32   2.0000      -0.701082       -19.0774 
  33   2.0000      -0.686350       -18.6765 
  34   2.0000      -0.678652       -18.4671 
  35   2.0000      -0.649701       -17.6793 
  36   2.0000      -0.629752       -17.1364 
  37   2.0000      -0.611314       -16.6347 
  38   2.0000      -0.607874       -16.5411 
  39   2.0000      -0.590601       -16.0711 
  40   2.0000      -0.578508       -15.7420 
  41   2.0000      -0.566042       -15.4028 
  42   2.0000      -0.563605       -15.3365 
  43   2.0000      -0.545712       -14.8496 
  44   2.0000      -0.541768       -14.7423 
  45   2.0000      -0.537882       -14.6365 
  46   2.0000      -0.526662       -14.3312 
  47   2.0000      -0.515151       -14.0180 
  48   2.0000      -0.514187       -13.9917 
  49   2.0000      -0.504471       -13.7273 
  50   2.0000      -0.492778       -13.4092 
  51   2.0000      -0.468741       -12.7551 
  52   2.0000      -0.468162       -12.7393 
  53   2.0000      -0.464663       -12.6441 
  54   2.0000      -0.453775       -12.3479 
  55   2.0000      -0.387216       -10.5367 
  56   2.0000      -0.370274       -10.0757 
  57   2.0000      -0.367378        -9.9969 
  58   2.0000      -0.357601        -9.7308 
  59   2.0000      -0.354510        -9.6467 
  60   2.0000      -0.352201        -9.5839 
  61   2.0000      -0.270781        -7.3683 
  62   0.0000      -0.029593        -0.8053 
  63   0.0000       0.028517         0.7760 
  64   0.0000       0.053894         1.4665 
  65   0.0000       0.090355         2.4587 
  66   0.0000       0.109075         2.9681 
  67   0.0000       0.116156         3.1608 
  68   0.0000       0.135155         3.6777 
  69   0.0000       0.145074         3.9477 
  70   0.0000       0.145163         3.9501 
  71   0.0000       0.158014         4.2998 
  72   0.0000       0.165827         4.5124 
*Only the first 10 virtual orbitals were printed.

                    ********************************
                    * MULLIKEN POPULATION ANALYSIS *
                    ********************************

-----------------------
MULLIKEN ATOMIC CHARGES
-----------------------
   0 C :   -0.084142
   1 C :   -0.085170
   2 C :   -0.196860
   3 C :    0.074766
   4 C :    0.074566
   5 C :   -0.197286
   6 C :    0.249390
   7 O :   -0.440325
   8 C :   -0.063267
   9 C :    0.194668
  10 C :   -0.212343
  11 C :   -0.212391
  12 C :    0.195103
  13 C :   -0.063679
  14 C :    0.248804
  15 O :   -0.440339
  16 N :   -0.392851
  17 N :   -0.392647
  18 H :    0.124747
  19 H :    0.124512
  20 H :    0.150619
  21 H :    0.150603
  22 H :    0.109988
  23 H :    0.110007
  24 H :    0.219546
  25 H :    0.267248
  26 H :    0.267198
  27 H :    0.219536
Sum of atomic charges:    0.0000000

--------------------------------
MULLIKEN REDUCED ORBITAL CHARGES
--------------------------------
  0 C s       :     3.159257  s :     3.159257
      pz      :     0.948175  p :     2.833225
      px      :     0.960309
      py      :     0.924742
      dz2     :     0.004619  d :     0.084317
      dxz     :     0.009315
      dyz     :     0.017688
      dx2y2   :     0.023990
      dxy     :     0.028705
      f0      :     0.001586  f :     0.007343
      f+1     :     0.000626
      f-1     :     0.000612
      f+2     :     0.000834
      f-2     :     0.000412
      f+3     :     0.002204
      f-3     :     0.001069

  1 C s       :     3.160528  s :     3.160528
      pz      :     0.948175  p :     2.832994
      px      :     0.959976
      py      :     0.924843
      dz2     :     0.004615  d :     0.084305
      dxz     :     0.009315
      dyz     :     0.017688
      dx2y2   :     0.023962
      dxy     :     0.028725
      f0      :     0.001586  f :     0.007343
      f+1     :     0.000626
      f-1     :     0.000612
      f+2     :     0.000834
      f-2     :     0.000412
      f+3     :     0.002204
      f-3     :     0.001069

  2 C s       :     3.232516  s :     3.232516
      pz      :     0.925149  p :     2.868335
      px      :     0.935087
      py      :     1.008099
      dz2     :     0.003924  d :     0.088497
      dxz     :     0.022667
      dyz     :     0.005699
      dx2y2   :     0.032931
      dxy     :     0.023276
      f0      :     0.001568  f :     0.007512
      f+1     :     0.000581
      f-1     :     0.000651
      f+2     :     0.000241
      f-2     :     0.001096
      f+3     :     0.002275
      f-3     :     0.001100

  3 C s       :     3.234273  s :     3.234273
      pz      :     0.956332  p :     2.552980
      px      :     0.826367
      py      :     0.770281
      dz2     :     0.006074  d :     0.127746
      dxz     :     0.017709
      dyz     :     0.022384
      dx2y2   :     0.042299
      dxy     :     0.039280
      f0      :     0.001831  f :     0.010235
      f+1     :     0.000787
      f-1     :     0.000704
      f+2     :     0.000934
      f-2     :     0.000734
      f+3     :     0.003692
      f-3     :     0.001553

  4 C s       :     3.233680  s :     3.233680
      pz      :     0.956328  p :     2.553810
      px      :     0.826950
      py      :     0.770532
      dz2     :     0.006086  d :     0.127709
      dxz     :     0.017710
      dyz     :     0.022385
      dx2y2   :     0.042101
      dxy     :     0.039428
      f0      :     0.001831  f :     0.010235
      f+1     :     0.000786
      f-1     :     0.000704
      f+2     :     0.000934
      f-2     :     0.000734
      f+3     :     0.003692
      f-3     :     0.001553

  5 C s       :     3.232811  s :     3.232811
      pz      :     0.925150  p :     2.868521
      px      :     0.935102
      py      :     1.008269
      dz2     :     0.003917  d :     0.088442
      dxz     :     0.022667
      dyz     :     0.005699
      dx2y2   :     0.032886
      dxy     :     0.023273
      f0      :     0.001568  f :     0.007512
      f+1     :     0.000582
      f-1     :     0.000651
      f+2     :     0.000241
      f-2     :     0.001096
      f+3     :     0.002275
      f-3     :     0.001099

  6 C s       :     3.131702  s :     3.131702
      pz      :     0.736807  p :     2.373780
      px      :     0.900975
      py      :     0.735999
      dz2     :     0.005606  d :     0.227527
      dxz     :     0.023451
      dyz     :     0.050643
      dx2y2   :     0.033115
      dxy     :     0.114711
      f0      :     0.002354  f :     0.017600
      f+1     :     0.000714
      f-1     :     0.001134
      f+2     :     0.002469
      f-2     :     0.000903
      f+3     :     0.007309
      f-3     :     0.002718

  7 O s       :     3.843938  s :     3.843938
      pz      :     1.409096  p :     4.564135
      px      :     1.821748
      py      :     1.333290
      dz2     :     0.002701  d :     0.030567
      dxz     :     0.000216
      dyz     :     0.010211
      dx2y2   :     0.009660
      dxy     :     0.007778
      f0      :     0.000178  f :     0.001685
      f+1     :     0.000027
      f-1     :     0.000176
      f+2     :     0.000387
      f-2     :     0.000009
      f+3     :     0.000481
      f-3     :     0.000427

  8 C s       :     3.304272  s :     3.304272
      pz      :     1.085602  p :     2.629406
      px      :     0.820946
      py      :     0.722858
      dz2     :     0.006736  d :     0.119612
      dxz     :     0.013852
      dyz     :     0.025855
      dx2y2   :     0.041457
      dxy     :     0.031713
      f0      :     0.001858  f :     0.009977
      f+1     :     0.000855
      f-1     :     0.000805
      f+2     :     0.001107
      f-2     :     0.000662
      f+3     :     0.003159
      f-3     :     0.001532

  9 C s       :     3.000449  s :     3.000449
      pz      :     0.848356  p :     2.631108
      px      :     0.973553
      py      :     0.809199
      dz2     :     0.004469  d :     0.159918
      dxz     :     0.022739
      dyz     :     0.051177
      dx2y2   :     0.037907
      dxy     :     0.043626
      f0      :     0.002387  f :     0.013857
      f+1     :     0.000767
      f-1     :     0.001130
      f+2     :     0.002390
      f-2     :     0.001036
      f+3     :     0.004320
      f-3     :     0.001826

 10 C s       :     3.234556  s :     3.234556
      pz      :     0.987664  p :     2.886802
      px      :     0.944160
      py      :     0.954978
      dz2     :     0.005326  d :     0.083464
      dxz     :     0.008328
      dyz     :     0.020767
      dx2y2   :     0.018972
      dxy     :     0.030071
      f0      :     0.001629  f :     0.007521
      f+1     :     0.000686
      f-1     :     0.000613
      f+2     :     0.000880
      f-2     :     0.000416
      f+3     :     0.002163
      f-3     :     0.001134

 11 C s       :     3.234849  s :     3.234849
      pz      :     0.987647  p :     2.886594
      px      :     0.943944
      py      :     0.955003
      dz2     :     0.005333  d :     0.083427
      dxz     :     0.008328
      dyz     :     0.020769
      dx2y2   :     0.018980
      dxy     :     0.030018
      f0      :     0.001629  f :     0.007521
      f+1     :     0.000686
      f-1     :     0.000613
      f+2     :     0.000880
      f-2     :     0.000416
      f+3     :     0.002164
      f-3     :     0.001134

 12 C s       :     3.000527  s :     3.000527
      pz      :     0.848398  p :     2.630725
      px      :     0.973067
      py      :     0.809260
      dz2     :     0.004477  d :     0.159788
      dxz     :     0.022740
      dyz     :     0.051174
      dx2y2   :     0.037952
      dxy     :     0.043444
      f0      :     0.002387  f :     0.013857
      f+1     :     0.000767
      f-1     :     0.001130
      f+2     :     0.002390
      f-2     :     0.001036
      f+3     :     0.004320
      f-3     :     0.001827

 13 C s       :     3.304049  s :     3.304049
      pz      :     1.085584  p :     2.629776
      px      :     0.821013
      py      :     0.723178
      dz2     :     0.006727  d :     0.119878
      dxz     :     0.013852
      dyz     :     0.025856
      dx2y2   :     0.041543
      dxy     :     0.031899
      f0      :     0.001858  f :     0.009976
      f+1     :     0.000854
      f-1     :     0.000805
      f+2     :     0.001107
      f-2     :     0.000662
      f+3     :     0.003157
      f-3     :     0.001532

 14 C s       :     3.132277  s :     3.132277
      pz      :     0.736803  p :     2.373879
      px      :     0.901169
      py      :     0.735907
      dz2     :     0.005624  d :     0.227440
      dxz     :     0.023450
      dyz     :     0.050644
      dx2y2   :     0.032980
      dxy     :     0.114742
      f0      :     0.002354  f :     0.017600
      f+1     :     0.000714
      f-1     :     0.001134
      f+2     :     0.002469
      f-2     :     0.000902
      f+3     :     0.007308
      f-3     :     0.002718

 15 O s       :     3.844083  s :     3.844083
      pz      :     1.409079  p :     4.564004
      px      :     1.821688
      py      :     1.333237
      dz2     :     0.002701  d :     0.030566
      dxz     :     0.000216
      dyz     :     0.010212
      dx2y2   :     0.009659
      dxy     :     0.007778
      f0      :     0.000178  f :     0.001686
      f+1     :     0.000027
      f-1     :     0.000176
      f+2     :     0.000387
      f-2     :     0.000009
      f+3     :     0.000481
      f-3     :     0.000427

 16 N s       :     3.409709  s :     3.409709
      pz      :     1.704917  p :     3.945128
      px      :     1.123649
      py      :     1.116562
      dz2     :     0.004247  d :     0.034568
      dxz     :     0.000220
      dyz     :     0.007794
      dx2y2   :     0.008621
      dxy     :     0.013686
      f0      :     0.000643  f :     0.003446
      f+1     :     0.000645
      f-1     :     0.000676
      f+2     :     0.000212
      f-2     :     0.000013
      f+3     :     0.000485
      f-3     :     0.000772

 17 N s       :     3.409741  s :     3.409741
      pz      :     1.705013  p :     3.944893
      px      :     1.123375
      py      :     1.116505
      dz2     :     0.004249  d :     0.034567
      dxz     :     0.000215
      dyz     :     0.007789
      dx2y2   :     0.008619
      dxy     :     0.013695
      f0      :     0.000643  f :     0.003447
      f+1     :     0.000646
      f-1     :     0.000676
      f+2     :     0.000212
      f-2     :     0.000013
      f+3     :     0.000485
      f-3     :     0.000772

 18 H s       :     0.853224  s :     0.853224
      pz      :     0.004381  p :     0.022029
      px      :     0.011465
      py      :     0.006183

 19 H s       :     0.853457  s :     0.853457
      pz      :     0.004381  p :     0.022031
      px      :     0.011467
      py      :     0.006183

 20 H s       :     0.826603  s :     0.826603
      pz      :     0.004105  p :     0.022778
      px      :     0.003773
      py      :     0.014900

 21 H s       :     0.826620  s :     0.826620
      pz      :     0.004105  p :     0.022777
      px      :     0.003773
      py      :     0.014899

 22 H s       :     0.868001  s :     0.868001
      pz      :     0.004579  p :     0.022011
      px      :     0.011698
      py      :     0.005734

 23 H s       :     0.867981  s :     0.867981
      pz      :     0.004579  p :     0.022012
      px      :     0.011698
      py      :     0.005735

 24 H s       :     0.741899  s :     0.741899
      pz      :     0.013021  p :     0.038555
      px      :     0.016633
      py      :     0.008900

 25 H s       :     0.685084  s :     0.685084
      pz      :     0.012146  p :     0.047668
      px      :     0.026580
      py      :     0.008942

 26 H s       :     0.685130  s :     0.685130
      pz      :     0.012148  p :     0.047672
      px      :     0.026582
      py      :     0.008942

 27 H s       :     0.741907  s :     0.741907
      pz      :     0.013021  p :     0.038557
      px      :     0.016635
      py      :     0.008901


------------------------
MULLIKEN OVERLAP CHARGES
------------------------
B(  0-C ,  1-C ) :   0.7506 B(  0-C ,  2-C ) :   0.2051 B(  0-C ,  3-C ) :  -0.1536 
B(  0-C ,  4-C ) :   0.0781 B(  0-C ,  5-C ) :   0.6836 B(  0-C , 18-H ) :   0.8729 
B(  0-C , 19-H ) :  -0.0988 B(  0-C , 21-H ) :  -0.1182 B(  1-C ,  2-C ) :   0.6847 
B(  1-C ,  3-C ) :   0.0780 B(  1-C ,  4-C ) :  -0.1535 B(  1-C ,  5-C ) :   0.2052 
B(  1-C , 18-H ) :  -0.0983 B(  1-C , 19-H ) :   0.8735 B(  1-C , 20-H ) :  -0.1181 
B(  2-C ,  3-C ) :   0.4936 B(  2-C ,  4-C ) :  -0.2353 B(  2-C ,  5-C ) :  -0.4255 
B(  2-C ,  6-C ) :   0.0905 B(  2-C , 13-C ) :   0.2065 B(  2-C , 14-C ) :  -0.3697 
B(  2-C , 15-O ) :   0.1061 B(  2-C , 19-H ) :  -0.0986 B(  2-C , 20-H ) :   0.8901 
B(  3-C ,  4-C ) :   1.0814 B(  3-C ,  5-C ) :  -0.2333 B(  3-C ,  6-C ) :   0.0679 
B(  3-C ,  8-C ) :  -0.3060 B(  3-C , 12-C ) :   0.0552 B(  3-C , 14-C ) :   0.5349 
B(  3-C , 15-O ) :  -0.3692 B(  3-C , 20-H ) :  -0.0952 B(  4-C ,  5-C ) :   0.4904 
B(  4-C ,  6-C ) :   0.5331 B(  4-C ,  7-O ) :  -0.3677 B(  4-C ,  9-C ) :   0.0555 
B(  4-C , 13-C ) :  -0.3066 B(  4-C , 14-C ) :   0.0678 B(  4-C , 21-H ) :  -0.0951 
B(  5-C ,  6-C ) :  -0.3701 B(  5-C ,  7-O ) :   0.1061 B(  5-C ,  8-C ) :   0.2069 
B(  5-C , 14-C ) :   0.0902 B(  5-C , 18-H ) :  -0.0985 B(  5-C , 21-H ) :   0.8901 
B(  6-C ,  7-O ) :   1.3339 B(  6-C ,  8-C ) :   0.0818 B(  6-C ,  9-C ) :  -0.2881 
B(  6-C , 12-C ) :   0.0781 B(  6-C , 14-C ) :  -0.2977 B(  7-O ,  8-C ) :  -0.3529 
B(  7-O ,  9-C ) :   0.0764 B(  7-O , 17-N ) :  -0.1190 B(  7-O , 26-H ) :   0.0901 
B(  8-C ,  9-C ) :   0.6027 B(  8-C , 11-C ) :  -0.1641 B(  8-C , 12-C ) :  -0.0888 
B(  8-C , 13-C ) :   0.5279 B(  8-C , 17-N ) :  -0.1117 B(  8-C , 26-H ) :  -0.0632 
B(  9-C , 10-C ) :   0.8146 B(  9-C , 12-C ) :  -0.2544 B(  9-C , 13-C ) :  -0.0888 
B(  9-C , 14-C ) :   0.0786 B(  9-C , 17-N ) :   0.7818 B(  9-C , 22-H ) :  -0.1269 
B(  9-C , 27-H ) :  -0.0782 B( 10-C , 11-C ) :   1.0259 B( 10-C , 13-C ) :  -0.1644 
B( 10-C , 17-N ) :  -0.1178 B( 10-C , 22-H ) :   0.8347 B( 11-C , 12-C ) :   0.8126 
B( 11-C , 16-N ) :  -0.1177 B( 11-C , 23-H ) :   0.8350 B( 12-C , 13-C ) :   0.6055 
B( 12-C , 14-C ) :  -0.2883 B( 12-C , 15-O ) :   0.0761 B( 12-C , 16-N ) :   0.7812 
B( 12-C , 23-H ) :  -0.1272 B( 12-C , 24-H ) :  -0.0783 B( 13-C , 14-C ) :   0.0857 
B( 13-C , 15-O ) :  -0.3518 B( 13-C , 16-N ) :  -0.1112 B( 13-C , 25-H ) :  -0.0630 
B( 14-C , 15-O ) :   1.3345 B( 15-O , 16-N ) :  -0.1190 B( 15-O , 25-H ) :   0.0901 
B( 16-N , 24-H ) :   0.7333 B( 16-N , 25-H ) :   0.7279 B( 17-N , 26-H ) :   0.7279 
B( 17-N , 27-H ) :   0.7333 


                     *******************************
                     * LOEWDIN POPULATION ANALYSIS *
                     *******************************

----------------------
LOEWDIN ATOMIC CHARGES
----------------------
   0 C :   -0.122261
   1 C :   -0.122263
   2 C :   -0.073331
   3 C :   -0.069071
   4 C :   -0.069070
   5 C :   -0.073334
   6 C :   -0.228405
   7 O :    0.064522
   8 C :   -0.076362
   9 C :   -0.186367
  10 C :   -0.100440
  11 C :   -0.100436
  12 C :   -0.186367
  13 C :   -0.076363
  14 C :   -0.228402
  15 O :    0.064532
  16 N :    0.016733
  17 N :    0.016772
  18 H :    0.144381
  19 H :    0.144382
  20 H :    0.155534
  21 H :    0.155535
  22 H :    0.146475
  23 H :    0.146477
  24 H :    0.160123
  25 H :    0.168441
  26 H :    0.168443
  27 H :    0.160124

-------------------------------
LOEWDIN REDUCED ORBITAL CHARGES
-------------------------------
  0 C s       :     2.763374  s :     2.763374
      pz      :     0.867854  p :     2.931784
      px      :     1.013833
      py      :     1.050097
      dz2     :     0.025137  d :     0.384162
      dxz     :     0.027201
      dyz     :     0.059816
      dx2y2   :     0.120955
      dxy     :     0.151053
      f0      :     0.003065  f :     0.042940
      f+1     :     0.003446
      f-1     :     0.003982
      f+2     :     0.005800
      f-2     :     0.002849
      f+3     :     0.015961
      f-3     :     0.007836

  1 C s       :     2.763376  s :     2.763376
      pz      :     0.867856  p :     2.931786
      px      :     1.013833
      py      :     1.050097
      dz2     :     0.025137  d :     0.384162
      dxz     :     0.027202
      dyz     :     0.059816
      dx2y2   :     0.120954
      dxy     :     0.151053
      f0      :     0.003065  f :     0.042940
      f+1     :     0.003446
      f-1     :     0.003982
      f+2     :     0.005800
      f-2     :     0.002849
      f+3     :     0.015961
      f-3     :     0.007836

  2 C s       :     2.754658  s :     2.754658
      pz      :     0.849340  p :     2.899337
      px      :     1.047633
      py      :     1.002364
      dz2     :     0.024814  d :     0.376414
      dxz     :     0.073882
      dyz     :     0.013019
      dx2y2   :     0.161452
      dxy     :     0.103247
      f0      :     0.003114  f :     0.042923
      f+1     :     0.004215
      f-1     :     0.003052
      f+2     :     0.001398
      f-2     :     0.007368
      f+3     :     0.015809
      f-3     :     0.007966

  3 C s       :     2.693739  s :     2.693739
      pz      :     0.843977  p :     2.833783
      px      :     0.982999
      py      :     1.006807
      dz2     :     0.034598  d :     0.486532
      dxz     :     0.052731
      dyz     :     0.072437
      dx2y2   :     0.156127
      dxy     :     0.170639
      f0      :     0.003856  f :     0.055017
      f+1     :     0.004071
      f-1     :     0.004222
      f+2     :     0.006591
      f-2     :     0.005003
      f+3     :     0.021826
      f-3     :     0.009447

  4 C s       :     2.693739  s :     2.693739
      pz      :     0.843974  p :     2.833781
      px      :     0.983000
      py      :     1.006807
      dz2     :     0.034598  d :     0.486533
      dxz     :     0.052732
      dyz     :     0.072437
      dx2y2   :     0.156125
      dxy     :     0.170641
      f0      :     0.003856  f :     0.055017
      f+1     :     0.004071
      f-1     :     0.004222
      f+2     :     0.006591
      f-2     :     0.005003
      f+3     :     0.021826
      f-3     :     0.009447

  5 C s       :     2.754657  s :     2.754657
      pz      :     0.849341  p :     2.899342
      px      :     1.047635
      py      :     1.002365
      dz2     :     0.024814  d :     0.376412
      dxz     :     0.073881
      dyz     :     0.013019
      dx2y2   :     0.161451
      dxy     :     0.103247
      f0      :     0.003114  f :     0.042923
      f+1     :     0.004215
      f-1     :     0.003052
      f+2     :     0.001398
      f-2     :     0.007368
      f+3     :     0.015809
      f-3     :     0.007966

  6 C s       :     2.724126  s :     2.724126
      pz      :     0.702424  p :     2.639276
      px      :     0.989702
      py      :     0.947150
      dz2     :     0.046974  d :     0.757975
      dxz     :     0.070419
      dyz     :     0.139933
      dx2y2   :     0.203402
      dxy     :     0.297246
      f0      :     0.006828  f :     0.107028
      f+1     :     0.003903
      f-1     :     0.009439
      f+2     :     0.017764
      f-2     :     0.005968
      f+3     :     0.046236
      f-3     :     0.016891

  7 O s       :     3.401454  s :     3.401454
      pz      :     1.330883  p :     4.463241
      px      :     1.659123
      py      :     1.473235
      dz2     :     0.007588  d :     0.065374
      dxz     :     0.000229
      dyz     :     0.012954
      dx2y2   :     0.023330
      dxy     :     0.021273
      f0      :     0.000360  f :     0.005409
      f+1     :     0.000144
      f-1     :     0.000804
      f+2     :     0.000671
      f-2     :     0.000024
      f+3     :     0.001857
      f-3     :     0.001551

  8 C s       :     2.688064  s :     2.688064
      pz      :     0.932640  p :     2.873966
      px      :     0.967299
      py      :     0.974027
      dz2     :     0.033049  d :     0.462322
      dxz     :     0.043756
      dyz     :     0.081891
      dx2y2   :     0.148399
      dxy     :     0.155228
      f0      :     0.003939  f :     0.052011
      f+1     :     0.004269
      f-1     :     0.004172
      f+2     :     0.007336
      f-2     :     0.004518
      f+3     :     0.018624
      f-3     :     0.009153

  9 C s       :     2.698384  s :     2.698384
      pz      :     0.805174  p :     2.768935
      px      :     1.031866
      py      :     0.931896
      dz2     :     0.037962  d :     0.638824
      dxz     :     0.072037
      dyz     :     0.161460
      dx2y2   :     0.190649
      dxy     :     0.176715
      f0      :     0.006021  f :     0.080223
      f+1     :     0.004230
      f-1     :     0.006453
      f+2     :     0.016548
      f-2     :     0.006895
      f+3     :     0.027909
      f-3     :     0.012167

 10 C s       :     2.755977  s :     2.755977
      pz      :     0.890843  p :     2.925531
      px      :     0.981062
      py      :     1.053626
      dz2     :     0.025736  d :     0.376288
      dxz     :     0.025288
      dyz     :     0.064225
      dx2y2   :     0.109059
      dxy     :     0.151979
      f0      :     0.003218  f :     0.042644
      f+1     :     0.003447
      f-1     :     0.004210
      f+2     :     0.005970
      f-2     :     0.002804
      f+3     :     0.014878
      f-3     :     0.008118

 11 C s       :     2.755978  s :     2.755978
      pz      :     0.890828  p :     2.925521
      px      :     0.981065
      py      :     1.053627
      dz2     :     0.025737  d :     0.376292
      dxz     :     0.025289
      dyz     :     0.064229
      dx2y2   :     0.109061
      dxy     :     0.151977
      f0      :     0.003218  f :     0.042645
      f+1     :     0.003447
      f-1     :     0.004210
      f+2     :     0.005970
      f-2     :     0.002804
      f+3     :     0.014878
      f-3     :     0.008118

 12 C s       :     2.698389  s :     2.698389
      pz      :     0.805188  p :     2.768948
      px      :     1.031866
      py      :     0.931894
      dz2     :     0.037962  d :     0.638810
      dxz     :     0.072038
      dyz     :     0.161445
      dx2y2   :     0.190647
      dxy     :     0.176718
      f0      :     0.006021  f :     0.080220
      f+1     :     0.004230
      f-1     :     0.006452
      f+2     :     0.016546
      f-2     :     0.006895
      f+3     :     0.027908
      f-3     :     0.012167

 13 C s       :     2.688066  s :     2.688066
      pz      :     0.932623  p :     2.873956
      px      :     0.967303
      py      :     0.974030
      dz2     :     0.033049  d :     0.462330
      dxz     :     0.043756
      dyz     :     0.081895
      dx2y2   :     0.148400
      dxy     :     0.155230
      f0      :     0.003939  f :     0.052011
      f+1     :     0.004269
      f-1     :     0.004172
      f+2     :     0.007336
      f-2     :     0.004518
      f+3     :     0.018624
      f-3     :     0.009153

 14 C s       :     2.724129  s :     2.724129
      pz      :     0.702419  p :     2.639273
      px      :     0.989700
      py      :     0.947153
      dz2     :     0.046974  d :     0.757972
      dxz     :     0.070417
      dyz     :     0.139931
      dx2y2   :     0.203401
      dxy     :     0.297249
      f0      :     0.006828  f :     0.107028
      f+1     :     0.003903
      f-1     :     0.009438
      f+2     :     0.017764
      f-2     :     0.005968
      f+3     :     0.046236
      f-3     :     0.016891

 15 O s       :     3.401454  s :     3.401454
      pz      :     1.330872  p :     4.463229
      px      :     1.659122
      py      :     1.473236
      dz2     :     0.007588  d :     0.065375
      dxz     :     0.000229
      dyz     :     0.012954
      dx2y2   :     0.023331
      dxy     :     0.021273
      f0      :     0.000360  f :     0.005409
      f+1     :     0.000144
      f-1     :     0.000804
      f+2     :     0.000671
      f-2     :     0.000024
      f+3     :     0.001857
      f-3     :     0.001551

 16 N s       :     2.968616  s :     2.968616
      pz      :     1.540299  p :     3.863585
      px      :     1.146589
      py      :     1.176696
      dz2     :     0.008948  d :     0.140542
      dxz     :     0.000337
      dyz     :     0.025063
      dx2y2   :     0.038687
      dxy     :     0.067507
      f0      :     0.000935  f :     0.010525
      f+1     :     0.001490
      f-1     :     0.001835
      f+2     :     0.001420
      f-2     :     0.000041
      f+3     :     0.002881
      f-3     :     0.001923

 17 N s       :     2.968571  s :     2.968571
      pz      :     1.540329  p :     3.863593
      px      :     1.146572
      py      :     1.176691
      dz2     :     0.008951  d :     0.140541
      dxz     :     0.000321
      dyz     :     0.025056
      dx2y2   :     0.038689
      dxy     :     0.067523
      f0      :     0.000934  f :     0.010524
      f+1     :     0.001492
      f-1     :     0.001836
      f+2     :     0.001419
      f-2     :     0.000039
      f+3     :     0.002881
      f-3     :     0.001923

 18 H s       :     0.797652  s :     0.797652
      pz      :     0.012600  p :     0.057968
      px      :     0.028599
      py      :     0.016769

 19 H s       :     0.797651  s :     0.797651
      pz      :     0.012600  p :     0.057967
      px      :     0.028598
      py      :     0.016769

 20 H s       :     0.783601  s :     0.783601
      pz      :     0.012148  p :     0.060864
      px      :     0.011072
      py      :     0.037645

 21 H s       :     0.783601  s :     0.783601
      pz      :     0.012148  p :     0.060864
      px      :     0.011071
      py      :     0.037645

 22 H s       :     0.795571  s :     0.795571
      pz      :     0.013336  p :     0.057955
      px      :     0.029028
      py      :     0.015590

 23 H s       :     0.795569  s :     0.795569
      pz      :     0.013336  p :     0.057954
      px      :     0.029028
      py      :     0.015590

 24 H s       :     0.728879  s :     0.728879
      pz      :     0.036624  p :     0.110998
      px      :     0.050794
      py      :     0.023579

 25 H s       :     0.693709  s :     0.693709
      pz      :     0.034825  p :     0.137851
      px      :     0.078832
      py      :     0.024194

 26 H s       :     0.693701  s :     0.693701
      pz      :     0.034827  p :     0.137856
      px      :     0.078835
      py      :     0.024194

 27 H s       :     0.728877  s :     0.728877
      pz      :     0.036617  p :     0.111000
      px      :     0.050802
      py      :     0.023581


---------------------------------
LOEWDIN BOND ORDERS (THRESH 0.050000)
---------------------------------
B(  0-C ,  1-C ) :   1.5438 B(  0-C ,  2-C ) :   0.2418 B(  0-C ,  3-C ) :   0.0970 
B(  0-C ,  4-C ) :   0.2377 B(  0-C ,  5-C ) :   1.5986 B(  0-C , 18-H ) :   0.8302 
B(  0-C , 19-H ) :   0.0939 B(  0-C , 21-H ) :   0.0952 B(  1-C ,  2-C ) :   1.5986 
B(  1-C ,  3-C ) :   0.2377 B(  1-C ,  4-C ) :   0.0970 B(  1-C ,  5-C ) :   0.2418 
B(  1-C , 18-H ) :   0.0939 B(  1-C , 19-H ) :   0.8302 B(  1-C , 20-H ) :   0.0952 
B(  2-C ,  3-C ) :   1.4314 B(  2-C ,  4-C ) :   0.2154 B(  2-C ,  5-C ) :   0.1037 
B(  2-C , 14-C ) :   0.1837 B(  2-C , 15-O ) :   0.0501 B(  2-C , 19-H ) :   0.0971 
B(  2-C , 20-H ) :   0.8123 B(  3-C ,  4-C ) :   1.3574 B(  3-C ,  5-C ) :   0.2154 
B(  3-C ,  6-C ) :   0.1659 B(  3-C , 13-C ) :   0.1445 B(  3-C , 14-C ) :   1.0982 
B(  3-C , 15-O ) :   0.1682 B(  3-C , 20-H ) :   0.0934 B(  4-C ,  5-C ) :   1.4314 
B(  4-C ,  6-C ) :   1.0982 B(  4-C ,  7-O ) :   0.1682 B(  4-C ,  8-C ) :   0.1445 
B(  4-C , 14-C ) :   0.1659 B(  4-C , 21-H ) :   0.0934 B(  5-C ,  6-C ) :   0.1837 
B(  5-C ,  7-O ) :   0.0501 B(  5-C , 18-H ) :   0.0971 B(  5-C , 21-H ) :   0.8123 
B(  6-C ,  7-O ) :   2.3956 B(  6-C ,  8-C ) :   1.1847 B(  6-C ,  9-C ) :   0.1994 
B(  6-C , 13-C ) :   0.1592 B(  7-O ,  8-C ) :   0.1697 B(  7-O , 17-N ) :   0.0764 
B(  7-O , 26-H ) :   0.0986 B(  8-C ,  9-C ) :   1.3583 B(  8-C , 10-C ) :   0.2029 
B(  8-C , 11-C ) :   0.0828 B(  8-C , 12-C ) :   0.1899 B(  8-C , 13-C ) :   1.2506 
B(  8-C , 14-C ) :   0.1592 B(  8-C , 17-N ) :   0.1755 B(  9-C , 10-C ) :   1.3334 
B(  9-C , 11-C ) :   0.2289 B(  9-C , 12-C ) :   0.0621 B(  9-C , 13-C ) :   0.1899 
B(  9-C , 17-N ) :   1.6178 B(  9-C , 22-H ) :   0.0890 B(  9-C , 26-H ) :   0.0982 
B(  9-C , 27-H ) :   0.1034 B( 10-C , 11-C ) :   1.7334 B( 10-C , 12-C ) :   0.2289 
B( 10-C , 13-C ) :   0.0828 B( 10-C , 17-N ) :   0.1688 B( 10-C , 22-H ) :   0.8191 
B( 10-C , 23-H ) :   0.1039 B( 11-C , 12-C ) :   1.3334 B( 11-C , 13-C ) :   0.2029 
B( 11-C , 16-N ) :   0.1688 B( 11-C , 22-H ) :   0.1039 B( 11-C , 23-H ) :   0.8191 
B( 12-C , 13-C ) :   1.3583 B( 12-C , 14-C ) :   0.1994 B( 12-C , 16-N ) :   1.6178 
B( 12-C , 23-H ) :   0.0890 B( 12-C , 24-H ) :   0.1034 B( 12-C , 25-H ) :   0.0982 
B( 13-C , 14-C ) :   1.1846 B( 13-C , 15-O ) :   0.1697 B( 13-C , 16-N ) :   0.1755 
B( 14-C , 15-O ) :   2.3956 B( 15-O , 16-N ) :   0.0763 B( 15-O , 25-H ) :   0.0986 
B( 16-N , 24-H ) :   0.9265 B( 16-N , 25-H ) :   0.8777 B( 17-N , 26-H ) :   0.8777 
B( 17-N , 27-H ) :   0.9265 

------------------------------------------
LOEWDIN REDUCED ORBITAL POPULATIONS PER MO
-------------------------------------------
THRESHOLD FOR PRINTING IS 0.1%%
                      0         1         2         3         4         5   
                 -19.19598 -19.19597 -14.41841 -14.41840 -10.36237 -10.36235
                   2.00000   2.00000   2.00000   2.00000   2.00000   2.00000
                  --------  --------  --------  --------  --------  --------
 6 C  s               0.0       0.0       0.0       0.0      44.3      54.6
 7 O  s              30.4      69.3       0.0       0.0       0.0       0.0
 9 C  dx2y2           0.0       0.0       0.1       0.0       0.0       0.0
12 C  dx2y2           0.0       0.0       0.0       0.1       0.0       0.0
14 C  s               0.0       0.0       0.0       0.0      54.6      44.3
15 O  s              69.3      30.4       0.0       0.0       0.0       0.0
[...]
12 C  s               1.3       0.3       0.2       0.1       1.3       5.8
12 C  px              0.0       0.1       0.1       0.0       0.1       0.2
12 C  py              0.1       0.1       0.0       0.0       0.0       0.0
12 C  dxy             0.0       0.0       0.0       0.0       0.1       0.1
13 C  s               5.0       3.1       0.1       0.1       0.8      12.3
14 C  s               0.4       0.0       0.9       0.2       0.1       0.3
14 C  px              0.0       0.1       0.1       0.0       0.0       0.0
16 N  s               0.1       0.1       0.0       0.0       0.0       0.0
17 N  s               0.1       0.1       0.0       0.0       0.0       0.0

                    606       607       608       609       610       611   
                  23.00029  23.02051  23.18010  23.24773  23.32221  23.47133
                   0.00000   0.00000   0.00000   0.00000   0.00000   0.00000
                  --------  --------  --------  --------  --------  --------
 0 C  s               0.1       5.9       0.1       1.9       0.5       0.8
 1 C  s               0.1       5.9       0.1       1.9       0.5       0.8
 2 C  s               2.8      25.8       0.1      12.1       0.1       0.1
 3 C  s              23.1       6.5       0.0       1.3       0.2      15.3
 3 C  py              0.0       0.2       0.0       0.1       0.0       0.3
 3 C  dx2y2           0.1       0.1       0.0       0.0       0.0       0.2
 3 C  dxy             0.0       0.1       0.0       0.1       0.0       0.1
 4 C  s              23.1       6.5       0.0       1.3       0.2      15.3
 4 C  py              0.0       0.2       0.0       0.1       0.0       0.3
 4 C  dx2y2           0.1       0.1       0.0       0.0       0.0       0.2
 4 C  dxy             0.0       0.1       0.0       0.1       0.0       0.1
 5 C  s               2.8      25.8       0.1      12.1       0.1       0.1
 6 C  s               0.7       0.4       4.6       0.0      41.4      28.6
 6 C  px              0.2       0.0       0.0       0.0       0.0       0.0
 6 C  dxy             0.2       0.0       0.0       0.0       0.0       0.0
 7 O  s               0.0       0.0       0.0       0.0       0.4       0.3
 7 O  py              0.0       0.0       0.0       0.0       0.3       0.2
 8 C  s              15.6       6.4      12.2      14.6       0.6       2.8
 8 C  px              0.1       0.0       0.3       0.0       0.0       0.0
 8 C  py              0.0       0.0       0.0       0.2       0.0       0.1
 8 C  dx2y2           0.0       0.0       0.1       0.2       0.0       0.1
 8 C  dxy             0.0       0.0       0.1       0.1       0.0       0.1
 9 C  s               5.3       3.8      30.8      18.7       5.1       0.1
 9 C  px              0.0       0.0       0.1       0.0       0.0       0.0
10 C  s               1.4       0.2       0.8       0.0       0.6       0.4
11 C  s               1.4       0.2       0.8       0.0       0.6       0.4
12 C  s               5.3       3.8      30.9      18.7       5.1       0.1
12 C  px              0.0       0.0       0.1       0.0       0.0       0.0
13 C  s              15.6       6.4      12.2      14.6       0.6       2.8
13 C  px              0.1       0.0       0.3       0.0       0.0       0.0
13 C  py              0.0       0.0       0.0       0.2       0.0       0.1
13 C  dx2y2           0.0       0.0       0.1       0.2       0.0       0.1
13 C  dxy             0.0       0.0       0.1       0.1       0.0       0.1
14 C  s               0.7       0.4       4.6       0.0      41.4      28.6
14 C  px              0.2       0.0       0.0       0.0       0.0       0.0
14 C  dxy             0.2       0.0       0.0       0.0       0.0       0.0
15 O  s               0.0       0.0       0.0       0.0       0.4       0.3
15 O  py              0.0       0.0       0.0       0.0       0.3       0.2
16 N  py              0.0       0.0       0.1       0.1       0.0       0.0
17 N  py              0.0       0.0       0.1       0.1       0.0       0.0

                    612       613       614       615       616       617   
                  23.62759  24.09296  32.19938  32.28241  44.08401  44.19606
                   0.00000   0.00000   0.00000   0.00000   0.00000   0.00000
                  --------  --------  --------  --------  --------  --------
 0 C  s               0.6       0.2       0.0       0.0       0.0       0.0
 1 C  s               0.6       0.2       0.0       0.0       0.0       0.0
 2 C  s               1.4       0.5       0.0       0.0       0.0       0.0
 3 C  s              13.8      11.8       0.0       0.0       0.0       0.0
 4 C  s              13.8      11.8       0.0       0.0       0.0       0.0
 5 C  s               1.4       0.5       0.0       0.0       0.0       0.0
 6 C  s               2.6      16.1       0.0       0.0       0.0       0.0
 7 O  s               0.0       0.1       0.0       0.0      49.8      49.8
 8 C  s               7.8      16.7       0.0       0.0       0.0       0.0
 8 C  dxy             0.2       0.0       0.0       0.0       0.0       0.0
 9 C  s              21.2       3.3       0.0       0.0       0.0       0.0
10 C  s               1.6       0.4       0.0       0.0       0.0       0.0
11 C  s               1.6       0.4       0.0       0.0       0.0       0.0
12 C  s              21.2       3.3       0.0       0.0       0.0       0.0
13 C  s               7.8      16.7       0.0       0.0       0.0       0.0
13 C  dxy             0.2       0.0       0.0       0.0       0.0       0.0
14 C  s               2.6      16.1       0.0       0.0       0.0       0.0
15 O  s               0.0       0.1       0.0       0.0      49.8      49.8
16 N  s               0.0       0.0      49.8      49.6       0.0       0.0
17 N  s               0.0       0.0      49.7      49.7       0.0       0.0



                      *****************************
                      * MAYER POPULATION ANALYSIS *
                      *****************************

  NA   - Mulliken gross atomic population
  ZA   - Total nuclear charge
  QA   - Mulliken gross atomic charge
  VA   - Mayer's total valence
  BVA  - Mayer's bonded valence
  FA   - Mayer's free valence

  ATOM       NA         ZA         QA         VA         BVA        FA
  0 C      6.0841     6.0000    -0.0841     3.8930     3.8930     0.0000
  1 C      6.0852     6.0000    -0.0852     3.8940     3.8940    -0.0000
  2 C      6.1969     6.0000    -0.1969     3.9580     3.9580    -0.0000
  3 C      5.9252     6.0000     0.0748     3.6980     3.6980     0.0000
  4 C      5.9254     6.0000     0.0746     3.6989     3.6989     0.0000
  5 C      6.1973     6.0000    -0.1973     3.9584     3.9584     0.0000
  6 C      5.7506     6.0000     0.2494     4.0231     4.0231     0.0000
  7 O      8.4403     8.0000    -0.4403     2.0513     2.0513    -0.0000
  8 C      6.0633     6.0000    -0.0633     3.5932     3.5932     0.0000
  9 C      5.8053     6.0000     0.1947     3.9832     3.9832    -0.0000
 10 C      6.2123     6.0000    -0.2123     4.0456     4.0456    -0.0000
 11 C      6.2124     6.0000    -0.2124     4.0455     4.0455    -0.0000
 12 C      5.8049     6.0000     0.1951     3.9821     3.9821    -0.0000
 13 C      6.0637     6.0000    -0.0637     3.5948     3.5948     0.0000
 14 C      5.7512     6.0000     0.2488     4.0239     4.0239    -0.0000
 15 O      8.4403     8.0000    -0.4403     2.0512     2.0512    -0.0000
 16 N      7.3929     7.0000    -0.3929     3.1174     3.1174     0.0000
 17 N      7.3926     7.0000    -0.3926     3.1173     3.1173     0.0000
 18 H      0.8753     1.0000     0.1247     0.9723     0.9723     0.0000
 19 H      0.8755     1.0000     0.1245     0.9725     0.9725    -0.0000
 20 H      0.8494     1.0000     0.1506     0.9924     0.9924    -0.0000
 21 H      0.8494     1.0000     0.1506     0.9925     0.9925    -0.0000
 22 H      0.8900     1.0000     0.1100     0.9853     0.9853    -0.0000
 23 H      0.8900     1.0000     0.1100     0.9853     0.9853    -0.0000
 24 H      0.7805     1.0000     0.2195     0.9587     0.9587     0.0000
 25 H      0.7328     1.0000     0.2672     0.9783     0.9783     0.0000
 26 H      0.7328     1.0000     0.2672     0.9784     0.9784    -0.0000
 27 H      0.7805     1.0000     0.2195     0.9587     0.9587    -0.0000

  Mayer bond orders larger than 0.100000
B(  0-C ,  1-C ) :   1.3680 B(  0-C ,  5-C ) :   1.4318 B(  0-C , 18-H ) :   0.9778 
B(  1-C ,  2-C ) :   1.4318 B(  1-C , 19-H ) :   0.9782 B(  2-C ,  3-C ) :   1.3925 
B(  2-C , 20-H ) :   0.9511 B(  3-C ,  4-C ) :   1.3605 B(  3-C , 14-C ) :   1.0206 
B(  3-C , 15-O ) :  -0.1408 B(  4-C ,  5-C ) :   1.3927 B(  4-C ,  6-C ) :   1.0209 
B(  4-C ,  7-O ) :  -0.1398 B(  5-C , 21-H ) :   0.9511 B(  6-C ,  7-O ) :   1.9086 
B(  6-C ,  8-C ) :   1.0430 B(  8-C ,  9-C ) :   1.3374 B(  8-C , 13-C ) :   1.2122 
B(  9-C , 10-C ) :   1.2269 B(  9-C , 17-N ) :   1.2558 B( 10-C , 11-C ) :   1.6646 
B( 10-C , 22-H ) :   0.9653 B( 11-C , 12-C ) :   1.2265 B( 11-C , 23-H ) :   0.9654 
B( 12-C , 13-C ) :   1.3379 B( 12-C , 16-N ) :   1.2553 B( 13-C , 14-C ) :   1.0434 
B( 14-C , 15-O ) :   1.9090 B( 16-N , 24-H ) :   0.9196 B( 16-N , 25-H ) :   0.8559 
B( 17-N , 26-H ) :   0.8559 B( 17-N , 27-H ) :   0.9196 

-------
TIMINGS
-------

Total SCF time: 0 days 0 hours 8 min 40 sec 

Total time                  ....     520.141 sec
Sum of individual times     ....     513.893 sec  ( 98.8%)

SCF preparation             ....       0.099 sec  (  0.0%)
Fock matrix formation       ....     511.750 sec  ( 98.4%)
  Startup                   ....       0.016 sec  (  0.0% of F)
  Split-RI-J                ....      22.980 sec  (  4.5% of F)
  Chain of spheres X        ....     464.715 sec  ( 90.8% of F)
  XC integration            ....      30.146 sec  (  5.9% of F)
    Basis function eval.    ....       6.650 sec  ( 22.1% of XC)
    Density eval.           ....       7.896 sec  ( 26.2% of XC)
    XC-Functional eval.     ....       6.638 sec  ( 22.0% of XC)
    XC-Potential eval.      ....       8.727 sec  ( 28.9% of XC)
Diagonalization             ....       0.000 sec  (  0.0%)
Density matrix formation    ....       0.073 sec  (  0.0%)
Total Energy calculation    ....       0.017 sec  (  0.0%)
Population analysis         ....       0.605 sec  (  0.1%)
Orbital Transformation      ....       0.148 sec  (  0.0%)
Orbital Orthonormalization  ....       0.000 sec  (  0.0%)
DIIS solution               ....       0.497 sec  (  0.1%)
  MO trafo                  ....       0.000 sec  (  0.0 % of DIIS)
  Orb grad                  ....       0.000 sec  (  0.0 % of DIIS)
  Energy W gradient         ....       0.000 sec  (  0.0 % of DIIS)
  DIIS error                ....       0.085 sec  ( 17.2 % of DIIS)
  DIIS work                 ....       0.334 sec  ( 67.3 % of DIIS)
  Form Q                    ....       0.000 sec  (  0.0 % of DIIS)
  Form QpQm                 ....       0.000 sec  (  0.0 % of DIIS)
  Exp/Cayley                ....       0.000 sec  (  0.0 % of DIIS)
  Orb update                ....       0.000 sec  (  0.0 % of DIIS)
  Wake-sleep                ....       0.003 sec  (  0.5 % of DIIS)
SOSCF solution              ....       0.391 sec  (  0.1%)
  MO trafo                  ....       0.203 sec  ( 51.8 % of SOSCF)
  Orb grad                  ....       0.002 sec  (  0.4 % of SOSCF)
  Rot update                ....       0.008 sec  (  2.0 % of SOSCF)
  Step                      ....       0.179 sec  ( 45.6 % of SOSCF)
Grid generation             ....       0.313 sec  (  0.1%)
Finished LeanSCF after 520.2 sec

Maximum memory used throughout the entire LEANSCF-calculation: 119.8 MB
------------------   -----------------
gCP correction             0.015327216
------------------   -----------------

-------------------------   --------------------
FINAL SINGLE POINT ENERGY      -799.552052076812
-------------------------   --------------------


------------------------------------------------------------------------------
                              ORCA PROPERTY CALCULATIONS
------------------------------------------------------------------------------

GBWName                                 ... sp.gbw
Number of atoms                         ...     28
Number of basis functions               ...    618
Max core memory                         ...   1024 MB

Electric properties:
Dipole moment                           ... YES
Quadrupole moment                       ...  NO
Static polarizability (Dipole/Dipole)   ...  NO
Static polarizability (Dipole/Quad.)    ...  NO
Static polarizability (Quad./Quad.)     ...  NO
Static polarizability (Velocity)        ...  NO

Atomic electric properties:
Dipole moment                           ...  NO
Quadrupole moment                       ...  NO
Static polarizability                   ...  NO

Choice of electric origin               ... Center of mass
Position of electric origin             ...    -0.005374     0.000014    -0.000141

General magnetic properties:
Magnetizability                         ...  NO

EPR properties:
g-Tensor (aka g-matrix)                 ...  NO
Zero-Field splitting spin-orbit         ...  NO
Zero-field splitting spin-spin          ...  NO
Hyperfine couplings                     ...  NO (   0 nuclei)
Quadrupole couplings                    ...  NO (   0 nuclei)
Contact density                         ...  NO (   0 nuclei)

NMR properties:
Chemical shifts                         ...  NO (   0 nuclei)
Spin-rotation constants                 ...  NO (   0 nuclei)
Spin-spin couplings                     ...  NO (   0 nuclei,    0 pairs)

Choice of magnetic origin               ... GIAO
Position of magnetic origin             ...     0.000000     0.000000     0.000000

Properties with geometric perturbations:
SCF Hessian                             ...  NO
IR spectrum                             ...  NO
VCD spectrum                            ...  NO
X-ray spectroscopy properties:
SCF XES/XAS/RIXS spectra                ...  NO


-------------
DIPOLE MOMENT
-------------

Method             : SCF
Type of density    : Electron Density
Multiplicity       :   1
Irrep              :   0
Energy             :  -799.5673792926122587 Eh
Relativity type    : 
Basis              : AO
                                X                 Y                 Z
Electronic contribution:     -0.939783869      -0.000157679      -0.033627125
Nuclear contribution   :      2.066236846      -0.000105252       0.067461641
                        -----------------------------------------
Total Dipole Moment    :      1.126452978      -0.000262931       0.033834515
                        -----------------------------------------
Magnitude (a.u.)       :      1.126961026
Magnitude (Debye)      :      2.864507282



--------------------
Rotational spectrum 
--------------------
 
Rotational constants in cm-1:             0.023857             0.012869             0.008359 
Rotational constants in MHz :           715.201340           385.790129           250.609444 

Dipole components along the rotational axes: 
x,y,z [a.u.] :    -1.126451    -0.000260     0.033891 
x,y,z [Debye]:    -2.863212    -0.000661     0.086143 

 

Dipole moment calculation done in   0.0 sec 

Maximum memory used throughout the entire PROP-calculation: 82.0 MB

--------------------------------
SUGGESTED CITATIONS FOR THIS RUN
--------------------------------

Below you find a list of papers that are relevant to this ORCA run
We neither can nor want to force you to cite these papers, but we appreciate if you do
You receive ORCA, which is the product of decades of hard work by many enthusiastic individuals, for free
The only thing we kindly ask in return is that you cite our papers,
We deeply appreciate it, if you show your appreciation for ORCA by not just citing the generic ORCA reference.

Please note that relegating all ORCA citations to the supporting information does *not* help us.
SI sections are not indexed - citations you put there will not count into any citation statistics
But we need these citations in order to attract the funding resources that allow us to do what we are doing

Therefore, if you are a happy ORCA user, please consider citing a few of the papers listed below in the main body of your paper

In addition to the list printed below, the program has created the file sp.bibtex that contains the list in bibtex format
You can import this file easily into all common literature databanks and citation aid programs


List of essential papers. We consider these as the minimum necessary citations

  1. Neese,F.
     Software update: the ORCA program system, version 5.0
     WIRES Comput. Molec. Sci., 2022 12(1)e1606
     doi.org/10.1002/wcms.1606

List of papers to cite with high priority. The work reported in these papers was absolutely
necessary for this run to complete.
Our perspective: the developers of density functionals and basis sets usually get cited in chemistry papers
Good! But without the algorithms to do something with them, the functionals or basis sets would not do anything.
Hence, in our opinion, the algorithm design and method developments papers are equally worthy of getting cited

  1. Neese,F.
     An improvement of the resolution of the identity approximation for the formation of the Coulomb matrix
     J. Comp. Chem., 2003 24(14)1740-1747
     doi.org/10.1002/jcc.10318
  2. Neese,F.; Wennmohs,F.; Hansen,A.; Becker,U.
     Efficient, approximate and parallel Hartree-Fock and hybrid DFT calculations. A 'chain-of-spheres' algorithm for the Hartree-Fock exchange
     Chem. Phys., 2009 356(1-3)98-109
     doi.org/10.1016/j.chemphys.2008.10.036
  3. Helmich-Paris,B.; de Souza,B.; Neese,F.; Izsák,R.
     An improved chain of spheres for exchange algorithm
     J. Chem. Phys., 2021 155 104109
     doi.org/doi: 10.1063/5.0058766.
  4. Neese,F.
     The SHARK Integral Generation and Digestion System
     J. Comp. Chem., 2022  1-16
     doi.org/10.1002/jcc.26942

List of suggested additional citations. These are papers that are important in the 'surrounding' of 
of this run, or papers that preceded the highly important papers. If you like your results we are grateful for a citation.

  1. Izsak,R.; Neese,F.
     An overlap fitted chain of spheres exchange method
     J. Chem. Phys., 2011 135 144105
     doi.org/10.1063/1.3646921
  2. Izsak,R.; Hansen,A.; Neese,F.
     The resolution of identity and chain of spheres approximations for the LPNO-CCSD singles Fock term
     Molec. Phys., 2012 110 2413-2417
     doi.org/10.1080/00268976.2012.687466
  3. Neese,F.
     The ORCA program system
     WIRES Comput. Molec. Sci., 2012 2(1)73-78
     doi.org/10.1002/wcms.81
  4. Izsak,R.; Neese,F.; Klopper,W.
     Robust fitting techniques in the chain of spheres approximation to the Fock exchange: The role of the complementary space
     J. Chem. Phys., 2013 139 
     doi.org/10.1063/1.4819264
  5. Neese,F.
     Software update: the ORCA program system, version 4.0
     WIRES Comput. Molec. Sci., 2018 8(1)1-6
     doi.org/10.1002/wcms.1327
  6. Neese,F.; Wennmohs,F.; Becker,U.; Riplinger,C.
     The ORCA quantum chemistry program package
     J. Chem. Phys., 2020 152 Art. No. L224108
     doi.org/10.1063/5.0004608

List of optional additional citations

  1. Neese,F.
     Approximate second-order SCF convergence for spin unrestricted wavefunctions
     Chem. Phys. Lett., 2000 325(1-3)93-98
     doi.org/10.1016/s0009-2614(00)00662-x

Timings for individual modules:

Sum of individual times          ...      523.946 sec (=   8.732 min)
Startup calculation              ...        3.475 sec (=   0.058 min)   0.7 %
SCF iterations                   ...      520.391 sec (=   8.673 min)  99.3 %
Property calculations            ...        0.080 sec (=   0.001 min)   0.0 %
                             ****ORCA TERMINATED NORMALLY****
TOTAL RUN TIME: 0 days 0 hours 8 minutes 44 seconds 12 msec
