      -----------------------------------------------------------      
     |                   =====================                   |     
     |                           x T B                           |     
     |                   =====================                   |     
     |                         S. Grimme                         |     
     |          Mulliken Center for Theoretical Chemistry        |     
     |                    University of Bonn                     |     
      -----------------------------------------------------------      

   * xtb version 6.7.1 (41059b4) compiled by 'michael@archlinux' on 2025-03-24

   xtb is free software: you can redistribute it and/or modify it under
   the terms of the GNU Lesser General Public License as published by
   the Free Software Foundation, either version 3 of the License, or
   (at your option) any later version.
   
   xtb is distributed in the hope that it will be useful,
   but WITHOUT ANY WARRANTY; without even the implied warranty of
   MERCHANTABILITY or FITNESS FOR A PARTICULAR PURPOSE.  See the
   GNU Lesser General Public License for more details.
   
   Cite this work as:
   * C. Bannwarth, E. Caldeweyher, S. Ehlert, A. Hansen, P. Pracht,
     J. Seibert, S. Spicher, S. Grimme, WIREs Comput. Mol. Sci., 2020, 11,
     e01493. DOI: 10.1002/wcms.1493
   
   for GFN2-xTB:
   * C. Bannwarth, S. Ehlert and S. Grimme., J. Chem. Theory Comput., 2019,
     15, 1652-1671. DOI: 10.1021/acs.jctc.8b01176
   for GFN1-xTB:
   * S. Grimme, C. Bannwarth, P. Shushkov, J. Chem. Theory Comput., 2017,
     13, 1989-2009. DOI: 10.1021/acs.jctc.7b00118
   for GFN0-xTB:
   * P. Pracht, E. Caldeweyher, S. Ehlert, S. Grimme, ChemRxiv, 2019, preprint.
     DOI: 10.26434/chemrxiv.8326202.v1
   for GFN-FF:
   * S. Spicher and S. Grimme, Angew. Chem. Int. Ed., 2020, 59, 15665-15673.
     DOI: 10.1002/anie.202004239
   
   for ALPB and GBSA implicit solvation:
   * S. Ehlert, M. Stahn, S. Spicher, S. Grimme, J. Chem. Theory Comput.,
     2021, 17, 4250-4261. DOI: 10.1021/acs.jctc.1c00471
   
   for ddCOSMO and CPCM-X implicit solvation:
   * M. Stahn, S. Ehlert, S. Grimme, J. Phys. Chem. A,
     2023, XX, XXXX-XXXX. DOI: 10.1021/acs.jpca.3c04382
   
   for DFT-D4:
   * E. Caldeweyher, C. Bannwarth and S. Grimme, J. Chem. Phys., 2017,
     147, 034112. DOI: 10.1063/1.4993215
   * E. Caldeweyher, S. Ehlert, A. Hansen, H. Neugebauer, S. Spicher,
     C. Bannwarth and S. Grimme, J. Chem. Phys., 2019, 150, 154122.
     DOI: 10.1063/1.5090222
   * E. Caldeweyher, J.-M. Mewes, S. Ehlert and S. Grimme, Phys. Chem. Chem. Phys.
     2020, 22, 8499-8512. DOI: 10.1039/D0CP00502A
   
   for sTDA-xTB:
   * S. Grimme and C. Bannwarth, J. Chem. Phys., 2016, 145, 054103.
     DOI: 10.1063/1.4959605
   
   in the mass-spec context:
   * V. Asgeirsson, C. Bauer and S. Grimme, Chem. Sci., 2017, 8, 4879.
     DOI: 10.1039/c7sc00601b
   * J. Koopman and S. Grimme, ACS Omega 2019, 4, 12, 15120-15133.
     DOI: 10.1021/acsomega.9b02011
   
   for metadynamics refer to:
   * S. Grimme, J. Chem. Theory Comput., 2019, 155, 2847-2862
     DOI: 10.1021/acs.jctc.9b00143
   
   for SPH calculations refer to:
   * S. Spicher and S. Grimme, J. Chem. Theory Comput., 2021, 17, 1701-1714
     DOI: 10.1021/acs.jctc.0c01306
   
   for ONIOM refer to:
   * C. Plett, A. Katbashev, S. Ehlert, S. Grimme, M. Bursch,
     Phys. Chem. Chem. Phys., 2023, 25, 17860-17868. DOI: 10.1039/D3CP02178E
   
   for DIPRO refer to:
   * J. Kohn, N. Gildemeister, S. Grimme, D. Fazzi, A. Hansen,
     J. Chem. Phys., 2023, just accepted.
   
   for PTB refer to:
   * S. Grimme, M. Mueller, A. Hansen, J. Chem. Phys., 2023, 158, 124111.
     DOI: 10.1063/5.0137838
   
   with help from (in alphabetical order)
   P. Atkinson, C. Bannwarth, F. Bohle, G. Brandenburg, E. Caldeweyher
   M. Checinski, S. Dohm, S. Ehlert, S. Ehrlich, I. Gerasimov, C. Hölzer
   A. Katbashev, J. Kohn, J. Koopman, C. Lavigne, S. Lehtola, F. März, M. Müller,
   F. Musil, H. Neugebauer, J. Pisarek, C. Plett, P. Pracht, F. Pultar,
   J. Seibert, P. Shushkov, S. Spicher, M. Stahn, M. Steiner, T. Strunk,
   J. Stückrath, T. Rose, and J. Unsleber
   
 * started run on 2025/04/08 at 23:28:24.923     
   ID    Z sym.   atoms
    1    6 C      1-4
    2    8 O      5
    3    1 H      6-15

           -------------------------------------------------
          |                Calculation Setup                |
           -------------------------------------------------

          program call               : /usr/bin/xtb xtb_opt.coord --opt normal --orca -I xtb_opt-xcontrol-inp
          coordinate file            : xtb_opt.coord
          omp threads                :                    16

           -------------------------------------------------
          |                   Orca driver                   |
           -------------------------------------------------
orca executable           : /home/michael/Documents/CHEM4561/orca_avx2/orca
orca input file           : xtb_opt.inp
orca input line           : 
orca parallel             : true
orca number of threads    : 16
                         * ORCA takes the control...
  ------------------------------------------------------------------------

                                 *****************
                                 * O   R   C   A *
                                 *****************

                                            #,                                       
                                            ###                                      
                                            ####                                     
                                            #####                                    
                                            ######                                   
                                           ########,                                 
                                     ,,################,,,,,                         
                               ,,#################################,,                 
                          ,,##########################################,,             
                       ,#########################################, ''#####,          
                    ,#############################################,,   '####,        
                  ,##################################################,,,,####,       
                ,###########''''           ''''###############################       
              ,#####''   ,,,,##########,,,,          '''####'''          '####       
            ,##' ,,,,###########################,,,                        '##       
           ' ,,###''''                  '''############,,,                           
         ,,##''                                '''############,,,,        ,,,,,,###''
      ,#''                                            '''#######################'''  
     '                                                          ''''####''''         
             ,#######,   #######,   ,#######,      ##                                
            ,#'     '#,  ##    ##  ,#'     '#,    #''#        ,####,   ,####,        
            ##       ##  ##   ,#'  ##            #'  '#       #'       #'  '#        
            ##       ##  #######   ##           ,######,      #####,   #    #        
            '#,     ,#'  ##    ##  '#,     ,#' ,#      #,     #,   #   #,  ,#        
             '#######'   ##     ##  '#######'  #'      '#     '####' # '####'        



                #########################################################
                #                        -***-                          #
                #          Department of theory and spectroscopy        #
                #                                                       #
                #                      Frank Neese                      #
                #                                                       #
                #     Directorship, Architecture, Infrastructure        #
                #                    SHARK, DRIVERS                     #
                #        Core code/Algorithms in most modules           #
                #                                                       #
                #        Max Planck Institute fuer Kohlenforschung      #
                #                Kaiser Wilhelm Platz 1                 #
                #                 D-45470 Muelheim/Ruhr                 #
                #                      Germany                          #
                #                                                       #
                #                  All rights reserved                  #
                #                        -***-                          #
                #########################################################


                         Program Version 6.0.1  -  RELEASE   -


 With contributions from (in alphabetic order):
[Max-Planck-Institut fuer Kohlenforschung]                               
  Daniel Aravena         : Magnetic Suceptibility                        
  Michael Atanasov       : Ab Initio Ligand Field Theory (pilot matlab implementation)
  Alexander A. Auer      : GIAO ZORA, VPT2 properties, NMR spectrum      
  Ute Becker             : All parallelization in ORCA, NUMFREQ, NUMCALC 
  Giovanni Bistoni       : ED, misc. LED, open-shell LED, HFLD           
  Martin Brehm           : Molecular dynamics                            
  Dmytro Bykov           : pre 5.0 version of the SCF Hessian            
  Marcos Casanova-Páez   : Triplet and SCS-CIS(D). UHF-(DLPNO)-IP/EA/STEOM-CCSD. UHF-CVS-IP/STEOM-CCSD   
  Vijay G. Chilkuri      : MRCI spin determinant printing, contributions to CSF-ICE 
  Pauline Colinet        : FMM embedding                                 
  Dipayan Datta          : RHF DLPNO-CCSD density                        
  Achintya Kumar Dutta   : EOM-CC, STEOM-CC                              
  Nicolas Foglia         : Exact transition moments, OPA infrastructure, MCD improvements    
  Dmitry Ganyushin       : Spin-Orbit,Spin-Spin,Magnetic field MRCI      
  Miquel Garcia-Rates    : C-PCM and meta-GGA Hessian, CCSD/C-PCM, Gaussian charge scheme 
  Tiago L. C. Gouveia    : GS-ROHF, GS-ROCIS                             
  Yang Guo               : DLPNO-NEVPT2, F12-NEVPT2, CIM, IAO-localization        
  Andreas Hansen         : Spin unrestricted coupled pair/coupled cluster methods 
  Ingolf Harden          : AUTO-CI MPn and infrastructure                
  Benjamin Helmich-Paris : MC-RPA, TRAH-(SCF,CASSCF), AVAS, COSX integrals, SCF dyn. polar. 
  Lee Huntington         : MR-EOM, pCC                                   
  Robert Izsak           : Overlap fitted RIJCOSX, COSX-SCS-MP3, EOM     
  Riya Kayal             : Wick's Theorem for AUTO-CI, AUTO-CI UHF-CCSDT 
  Emily Kempfer          : AUTO-CI, RHF CISDT and CCSDT                  
  Christian Kollmar      : KDIIS, OOCD, Brueckner-CCSD(T), CCSD density, CASPT2, CASPT2-K, improved NEVPT2 
  Axel Koslowski         : Symmetry handling                             
  Simone Kossmann        : meta-GGA functionals, TD-DFT gradient, OOMP2, (MP2 Hessian; deprecated post 5.0) 
  Lucas Lang             : DCDCAS                                        
  Marvin Lechner         : AUTO-CI (C++ implementation), FIC-MRCC        
  Spencer Leger          : CASSCF response                               
  Dagmar Lenk            : GEPOL surface, SMD, ORCA-2-JSON               
  Dimitrios Liakos       : Extrapolation schemes; Compound Job, initial MDCI parallelization 
  Dimitrios Manganas     : Further ROCIS development; embedding schemes. LFT, Crystal Embedding 
  Dimitrios Pantazis     : SARC Basis sets                               
  Anastasios Papadopoulos: AUTO-CI, single reference methods and gradients 
  Taras Petrenko         : pre 6.0 DFT Hessian and TD-DFT gradient, (ASA, deprecated), ECA, 1-Electron XAS/XES, NRVS 
  Peter Pinski           : DLPNO-MP2, DLPNO-MP2 Gradient                 
  Christoph Reimann      : Effective Core Potentials                     
  Marius Retegan         : Local ZFS, SOC                                
  Christoph Riplinger    : Optimizer, TS searches, QM/MM, DLPNO-CCSD(T), (RO)-DLPNO pert. Triples 
  Michael Roemelt        : Original ROCIS implementation                 
  Masaaki Saitow         : Open-shell DLPNO-CCSD energy and density      
  Barbara Sandhoefer     : DKH picture change effects                    
  Kantharuban Sivalingam : CASSCF convergence/infrastructure, NEVPT2 and variants, FIC-MRCI 
  Bernardo de Souza      : ESD, SOC TD-DFT                               
  Georgi L. Stoychev     : AutoAux, RI-MP2 NMR, DLPNO-MP2 response, X2C  
  Van Anh Tran           : RI-MP2 g-tensors                              
  Willem Van den Heuvel  : Paramagnetic NMR                              
  Zikuan Wang            : NOTCH, Electric field optimization            
  Frank Wennmohs         : Technical directorship and infrastructure     
  Hang Xu                : AUTO-CI-Response properties                   
                                                                         
[FACCTs GmbH]                                                            
  Markus Bursch, Miquel Garcia-Rates, Christoph Riplinger, Bernardo de Souza, Georgi L. Stoychev 
                                                                 
  APM, Basis sets (HGBS, AHGBS, def-TZVP (Ac-Lr), def2-XVPD (La-Lu)), CI-OPT, improved COSX, DLPNO-Multilevel,           
  DOCKER, DRACO, updates on ESD, GOAT, IRC, LR-CPCM, MBIS, meta-GGA TD-DFT gradient, ML-optimized integration grids, 
  MM, NACMEs, nearIR, NEB, NEB-TS, NL-DFT gradient (VV10), 2- and 3-layer-ONIOM, interface openCOSMO-RS, QMMM,   
  Crystal-QMMM, SF, symmetry and pop. for TD-DFT, r2SCAN hybrids, SOLVATOR                                   
                                                                         
[Other institutions]                                                     
  V. Asgeirsson          : NEB                                           
  Christoph Bannwarth    : sTDA-DFT, sTD-DFT, PBEh-3c, B97-3c, D3        
  Sebastian Ehlert       : rSCAN, r2SCAN, r2SCAN-3c, D4, dhf basis sets  
  Marvin Friede          : D4 for Fr, Ra, Ac-Lr                          
  Lars Goerigk           : TD-DFT with DH, B97 family of functionals     
  Stefan Grimme          : VdW corrections, initial TS optimization, DFT functionals, gCP, sTDA/sTD-DF 
  Waldemar Hujo          : DFT-NL                                        
  H. Jonsson             : NEB                                           
  Holger Kruse           : gCP                                           
  Marcel Mueller         : wB97X-3c, vDZP basis set                      
  Hagen Neugebauer       : wr2SCAN                                       
  Tobias Risthaus        : range-separated hybrid DFT                    
  Lukas Wittmann         : regularized MP2, r2SCAN double-hybrids, wr2SCAN        
                                                                         
We gratefully acknowledge several colleagues who have allowed us to      
interface, adapt or use parts of their codes:                            
  Ed Valeev, F. Pavosevic, A. Kumar             : LibInt (2-el integral package), F12 methods 
  Garnet Chan, S. Sharma, J. Yang, R. Olivares  : DMRG                   
  Ulf Ekstrom                                   : XCFun DFT Library      
  Mihaly Kallay                                 : mrcc  (arbitrary order and MRCC methods)
  Frank Weinhold                                : gennbo (NPA and NBO analysis)           
  Simon Mueller                                 : openCOSMO-RS                            
  Christopher J. Cramer and Donald G. Truhlar   : smd solvation model                     
  S Lehtola, MJT Oliveira, MAL Marques          : LibXC Library                           
  Liviu Ungur et al                             : ANISO software                          


 Your calculation uses the libint2 library for the computation of 2-el integrals
 For citations please refer to: http://libint.valeyev.net

 Your ORCA version has been built with support for libXC version: 6.2.2
 For citations please refer to: https://libxc.gitlab.io

 This ORCA versions uses:
   CBLAS   interface :  Fast vector & matrix operations
   LAPACKE interface :  Fast linear algebra routines
   SCALAPACK package :  Parallel linear algebra routines
   Shared memory     :  Shared parallel matrices
   BLAS/LAPACK       :  OpenBLAS 0.3.27  USE64BITINT DYNAMIC_ARCH NO_AFFINITY Zen SINGLE_THREADED
        Core in use  :  Zen
   Copyright (c) 2011-2014, The OpenBLAS Project




***************************************
The coordinates will be read from file: xtb_opt.xyz
***************************************


Your calculation utilizes the geometrical counterpoise correction gCP
Please cite in your paper:
H.Kruse, S. Grimme J.Chem.Phys., 136, (2012), 154101 
   

Your calculation utilizes the atom-pairwise dispersion correction
based on EEQ partial charges (D4)


================================================================================

----- Orbital basis set information -----
Your calculation utilizes the basis: def2-mTZVPP
   Stefan Grimme, Andreas Hansen, Sebastian Ehlert, and Jan-Michael Mewes 
   J. Chem. Phys. 154, 064103 (2021). DOI: 10.1063/5.0040021

----- AuxJ basis set information -----
Your calculation utilizes the auxiliary basis: def2/J
   F. Weigend, Phys. Chem. Chem. Phys. 8, 1057 (2006).

================================================================================
                                        WARNINGS
                       Please study these warnings very carefully!
================================================================================



WARNING: SCAN, rSCAN, or r2SCAN functional requested.
  ===> : libXC variant has now been activated.



================================================================================
                                       INPUT FILE
================================================================================
NAME = xtb_opt.inp
|  1> ! r2scan-3c def2/J RI DEFGRID2 scfconv7 ENGRAD tightSCF miniprint
|  2> * xyzfile 0 1 xtb_opt.xyz
|  3> 
|  4>                          ****END OF INPUT****
================================================================================

                     *******************************
                     * Energy+Gradient Calculation *
                     *******************************

---------------------------------
CARTESIAN COORDINATES (ANGSTROEM)
---------------------------------
  C      0.770085   -1.265402   -0.476259
  C      0.003911   -0.003438   -0.019076
  C     -1.409962    0.006043   -0.613257
  C      0.752940    1.264554   -0.429996
  O     -0.074941    0.041510    1.399626
  H      0.167140   -1.873223   -1.146107
  H      1.688885   -0.998825   -0.990327
  H      1.037644   -1.868727    0.388837
  H     -1.364299    0.051397   -1.697980
  H     -1.959211    0.871572   -0.249039
  H     -1.951545   -0.894188   -0.324381
  H      0.862051    1.307794   -1.509848
  H      0.207354    2.140252   -0.088830
  H      1.735236    1.271990    0.034272
  H     -0.627597   -0.687911    1.700886

----------------------------
CARTESIAN COORDINATES (A.U.)
----------------------------
  NO LB      ZA    FRAG     MASS         X           Y           Z
   0 C     6.0000    0    12.011    1.455249   -2.391263   -0.899999
   1 C     6.0000    0    12.011    0.007391   -0.006497   -0.036049
   2 C     6.0000    0    12.011   -2.664442    0.011420   -1.158889
   3 C     6.0000    0    12.011    1.422850    2.389660   -0.812574
   4 O     8.0000    0    15.999   -0.141619    0.078443    2.644909
   5 H     1.0000    0     1.008    0.315848   -3.539879   -2.165828
   6 H     1.0000    0     1.008    3.191531   -1.887505   -1.871446
   7 H     1.0000    0     1.008    1.960864   -3.531382    0.734796
   8 H     1.0000    0     1.008   -2.578151    0.097127   -3.208717
   9 H     1.0000    0     1.008   -3.702373    1.647032   -0.470616
  10 H     1.0000    0     1.008   -3.687886   -1.689770   -0.612991
  11 H     1.0000    0     1.008    1.629041    2.471372   -2.853198
  12 H     1.0000    0     1.008    0.391842    4.044490   -0.167864
  13 H     1.0000    0     1.008    3.279121    2.403713    0.064764
  14 H     1.0000    0     1.008   -1.185987   -1.299964    3.214209

------------------------------------------------------------------------------
                   ___                                                        
                  /   \      - P O W E R E D   B Y -                         
                 /     \                                                     
                 |  |  |   _    _      __       _____    __    __             
                 |  |  |  | |  | |    /  \     |  _  \  |  |  /  |          
                  \  \/   | |  | |   /    \    | | | |  |  | /  /          
                 / \  \   | |__| |  /  /\  \   | |_| |  |  |/  /          
                |  |  |   |  __  | /  /__\  \  |    /   |      \           
                |  |  |   | |  | | |   __   |  |    \   |  |\   \          
                \     /   | |  | | |  |  |  |  | |\  \  |  | \   \       
                 \___/    |_|  |_| |__|  |__|  |_| \__\ |__|  \__/        
                                                                              
                      - O R C A' S   B I G   F R I E N D -                    
                                      &                                       
                       - I N T E G R A L  F E E D E R -                       
                                                                              
 v1 FN, 2020, v2 2021, v3 2022-2024                                           
------------------------------------------------------------------------------


----------------------
SHARK INTEGRAL PACKAGE
----------------------

Number of atoms                             ...     15
Number of basis functions                   ...    150
Number of shells                            ...     76
Maximum angular momentum                    ...      2
Integral batch strategy                     ... SHARK/LIBINT Hybrid
RI-J (if used) integral strategy            ... SPLIT-RIJ (Revised 2003 algorithm where possible)
Printlevel                                  ...      1
Contraction scheme used                     ... SEGMENTED contraction
Prescreening option                         ... SCHWARTZ
   Thresh                                   ... 3.000e-11
   Tcut                                     ... 1.000e-12
   Tpresel                                  ... 1.000e-12 
Coulomb Range Separation                    ... NOT USED
Exchange Range Separation                   ... NOT USED
Multipole approximations                    ... NOT USED
Finite Nucleus Model                        ... NOT USED
CABS basis                                  ... NOT available
Auxiliary Coulomb fitting basis             ... AVAILABLE
   # of basis functions in Aux-J            ...    355
   # of shells in Aux-J                     ...    125
   Maximum angular momentum in Aux-J        ...      4
Auxiliary J/K fitting basis                 ... NOT available
Auxiliary Correlation fitting basis         ... NOT available
Auxiliary 'external' fitting basis          ... NOT available

Checking pre-screening integrals            ... done (  0.0 sec) Dimension = 76
Check shell pair data                       ... done (  0.0 sec)
Shell pair information
Shell pair cut-off parameter TPreSel        ...   1.0e-12
Total number of shell pairs                 ...      2926
Shell pairs after pre-screening             ...      2870
Total number of primitive shell pairs       ...     10151
Primitive shell pairs kept                  ...      7684
          la=0 lb=0:   1003 shell pairs
          la=1 lb=0:   1102 shell pairs
          la=1 lb=1:    324 shell pairs
          la=2 lb=0:    270 shell pairs
          la=2 lb=1:    150 shell pairs
          la=2 lb=2:     21 shell pairs

Calculating one electron integrals          ... done (  0.0 sec)
Calculating RI/J V-Matrix + Cholesky decomp.... done (  0.0 sec)
Calculating Nuclear repulsion               ... done (  0.0 sec) ENN=    199.623518049250 Eh

Diagonalization of the overlap matrix:
Smallest eigenvalue                        ... 2.584e-04
Time for diagonalization                   ...    0.001 sec
Threshold for overlap eigenvalues          ... 1.000e-07
Number of eigenvalues below threshold      ... 0
Time for construction of square roots      ...    0.000 sec
Total time needed                          ...    0.003 sec

-------------------
DFT GRID GENERATION
-------------------

General Integration Accuracy     IntAcc      ... 4.388
Radial Grid Type                 RadialGrid  ... OptM3 with GC (2021)
Angular Grid (max. ang.)         AngularGrid ... 4 (Lebedev-302)
Angular grid pruning method      GridPruning ... 4 (adaptive)
Weight generation scheme         WeightScheme... mBecke (2022)
Basis function cutoff            BFCut       ... 1.0000e-11
Integration weight cutoff        WCut        ... 1.0000e-14
Partially contracted basis set               ... off
Rotationally invariant grid construction     ... off
Angular grids for H and He will be reduced by one unit
Diffuse basis detected: some atoms will have their outermost
                        angular grid increased by 1.

Total number of grid points                  ...    62587
Total number of batches                      ...      986
Average number of points per batch           ...       63
Average number of grid points per atom       ...     4172
Initializing property integral containers    ... done (  0.0 sec)

SHARK setup successfully completed in   0.3 seconds

Maximum memory used throughout the entire STARTUP-calculation: 27.6 MB
Occupation numbers will be reassigned to an Aufbau configuration
             **** ENERGY FILE WAS UPDATED (xtb_opt.en.tmp) ****
Finished Guess after   0.0 sec
Maximum memory used throughout the entire GUESS-calculation: 11.0 MB
----------------------------------------D-I-I-S--------------------------------------------
Iteration    Energy (Eh)           Delta-E    RMSDP     MaxDP     DIISErr   Damp  Time(sec)
-------------------------------------------------------------------------------------------
               ***  Starting incremental Fock matrix formation  ***
                              *** Initializing SOSCF ***
---------------------------------------S-O-S-C-F--------------------------------------
Iteration    Energy (Eh)           Delta-E    RMSDP     MaxDP     MaxGrad    Time(sec)
--------------------------------------------------------------------------------------
    1    -233.6095400070800849     0.00e+00  6.26e-06  1.05e-04  1.33e-05     0.7
               *** Restarting incremental Fock matrix formation ***
    2    -233.6095400159647113    -8.88e-09  8.45e-06  1.58e-04  4.30e-05     0.7
    3    -233.6095398794215896     1.37e-07  6.01e-06  1.05e-04  7.44e-05     0.5
    4    -233.6095400927032131    -2.13e-07  9.49e-07  1.75e-05  5.59e-06     0.5
                  *** Gradient check signals convergence ***

               *****************************************************
               *                     SUCCESS                       *
               *           SCF CONVERGED AFTER   4 CYCLES          *
               *****************************************************

             **** ENERGY FILE WAS UPDATED (xtb_opt.en.tmp) ****

----------------
TOTAL SCF ENERGY
----------------

Total Energy       :       -233.60954009270321 Eh           -6356.83876 eV

Components:
Nuclear Repulsion  :        199.62351804925001 Eh            5432.03209 eV
Electronic Energy  :       -433.23305814195322 Eh          -11788.87085 eV
One Electron Energy:       -711.19514803094910 Eh          -19352.60385 eV
Two Electron Energy:        277.96208988899588 Eh            7563.73300 eV

Virial components:
Potential Energy   :       -466.21115177980454 Eh          -12686.25040 eV
Kinetic Energy     :        232.60161168710133 Eh            6329.41164 eV
Virial Ratio       :          2.00433328212256

DFT components:
N(Alpha)           :       20.999971334827 electrons
N(Beta)            :       20.999971334827 electrons
N(Total)           :       41.999942669654 electrons
E(X)               :      -32.660046033637 Eh       
E(C)               :       -1.313070520716 Eh       
E(XC)              :      -33.973116554353 Eh       

---------------
SCF CONVERGENCE
---------------

  Last Energy change         ...    2.1328e-07  Tolerance :   1.0000e-07
  Last MAX-Density change    ...    1.7535e-05  Tolerance :   1.0000e-07
  Last RMS-Density change    ...    9.4862e-07  Tolerance :   5.0000e-09
  Last DIIS Error            ...    1.7191e-04  Tolerance :   1.0000e-07
  Last Orbital Gradient      ...    5.5867e-06  Tolerance :   1.0000e-04
  Last Orbital Rotation      ...    7.9003e-06  Tolerance :   1.0000e-04


----------------
ORBITAL ENERGIES
----------------

  NO   OCC          E(Eh)            E(eV) 
   0   2.0000     -18.940400      -515.3945 
   1   2.0000     -10.089358      -274.5454 
   2   2.0000     -10.018741      -272.6238 
   3   2.0000     -10.015549      -272.5369 
   4   2.0000     -10.013885      -272.4917 
   5   2.0000      -0.983092       -26.7513 
   6   2.0000      -0.752586       -20.4789 
   7   2.0000      -0.658098       -17.9077 
   8   2.0000      -0.656358       -17.8604 
   9   2.0000      -0.538707       -14.6590 
  10   2.0000      -0.456280       -12.4160 
  11   2.0000      -0.417149       -11.3512 
  12   2.0000      -0.414930       -11.2908 
  13   2.0000      -0.384369       -10.4592 
  14   2.0000      -0.371934       -10.1208 
  15   2.0000      -0.351651        -9.5689 
  16   2.0000      -0.332740        -9.0543 
  17   2.0000      -0.321880        -8.7588 
  18   2.0000      -0.312193        -8.4952 
  19   2.0000      -0.282633        -7.6908 
  20   2.0000      -0.232323        -6.3218 
  21   0.0000       0.060697         1.6517 
  22   0.0000       0.110720         3.0128 
  23   0.0000       0.124294         3.3822 
  24   0.0000       0.130898         3.5619 
  25   0.0000       0.137224         3.7340 
  26   0.0000       0.141739         3.8569 
  27   0.0000       0.147483         4.0132 
  28   0.0000       0.151414         4.1202 
  29   0.0000       0.154268         4.1979 
  30   0.0000       0.182915         4.9774 
  31   0.0000       0.188738         5.1358 
*Only the first 10 virtual orbitals were printed.
Total SCF time: 0 days 0 hours 0 min 2 sec 
Finished LeanSCF after   2.5 sec

Maximum memory used throughout the entire LEANSCF-calculation: 16.8 MB


-------------------------------------------------------------------------------
                          DFT DISPERSION CORRECTION                            
                                                                               
                                DFTD4 V3.4.0                                   
-------------------------------------------------------------------------------
-------------------------   ----------------
Dispersion correction           -0.003319357
-------------------------   ----------------

------------------   -----------------
gCP correction             0.008309317
------------------   -----------------

-------------------------   --------------------
FINAL SINGLE POINT ENERGY      -233.604550131975
-------------------------   --------------------

------------------------------------------------------------------------------
                         ORCA SCF GRADIENT CALCULATION
------------------------------------------------------------------------------

Nuc. rep. gradient        (SHARK) ... done (  0.0 sec)
HCore & Overlap gradient  (SHARK) ... done (  0.1 sec)
Split-RIJ-J gradient      (SHARK) ... done (  0.4 sec)
XC gradient                       ... done (  2.1 sec)
Dispersion correction             ... done (  0.0 sec)

-------------------
DISPERSION GRADIENT
-------------------

   1   C   :    0.000027756   -0.000046415   -0.000011860
   2   C   :    0.000000054   -0.000000076    0.000002772
   3   C   :   -0.000052220    0.000000363   -0.000016775
   4   C   :    0.000028543    0.000048800   -0.000013115
   5   O   :   -0.000014224   -0.000013055    0.000059126
   6   H   :    0.000006645   -0.000028653   -0.000011061
   7   H   :    0.000024256   -0.000018141   -0.000008752
   8   H   :    0.000015965   -0.000026560    0.000006891
   9   H   :   -0.000025331    0.000001243   -0.000017807
  10   H   :   -0.000028398    0.000008819   -0.000001063
  11   H   :   -0.000029505   -0.000007645   -0.000002496
  12   H   :    0.000014952    0.000023835   -0.000013746
  13   H   :    0.000007469    0.000029800    0.000002198
  14   H   :    0.000021956    0.000022068    0.000003144
  15   H   :    0.000002082    0.000005618    0.000022546

Difference to translation invariance:
           :    0.0000000000    0.0000000000   -0.0000000000

Difference to rotation invariance:
           :    0.0000000000   -0.0000000000    0.0000000000

Norm of the Dispersion gradient    ...    0.0001501368
RMS gradient                       ...    0.0000223811
MAX gradient                       ...    0.0000591264
gCP correction                   ... done

------------------
CARTESIAN GRADIENT
------------------

   1   C   :    0.001746356   -0.002560099   -0.000795684
   2   C   :    0.001852408    0.000730921    0.011929158
   3   C   :   -0.005023743   -0.002261092   -0.003887792
   4   C   :    0.004327956    0.004885445   -0.005509122
   5   O   :   -0.000228889   -0.004139193   -0.012276958
   6   H   :    0.001282564    0.003399665    0.003193758
   7   H   :   -0.004584904    0.000523404    0.002480738
   8   H   :   -0.001201641    0.002038414   -0.002206966
   9   H   :    0.000844106    0.000866524    0.005270817
  10   H   :    0.002299155   -0.003321723   -0.001133314
  11   H   :    0.002381797    0.003934752   -0.000273035
  12   H   :   -0.000932910   -0.000136060    0.004381301
  13   H   :    0.002092240   -0.004311536   -0.000789049
  14   H   :   -0.004925202   -0.000275064   -0.001110310
  15   H   :    0.000070708    0.000625642    0.000726457

Difference to translation invariance:
           :    0.0000000000   -0.0000000000    0.0000000000

Difference to rotation invariance:
           :   -0.0000231451    0.0002220208    0.0000751490

Norm of the Cartesian gradient     ...    0.0253455384
RMS gradient                       ...    0.0037782898
MAX gradient                       ...    0.0122769578

-------
TIMINGS
-------

Total SCF gradient time     ....        2.657 sec

Densities                   ....       0.000 sec  (  0.0%)
One electron gradient       ....       0.080 sec  (  3.0%)
RI-J Coulomb gradient       ....       0.419 sec  ( 15.8%)
XC gradient                 ....       2.137 sec  ( 80.4%)

Maximum memory used throughout the entire SCFGRAD-calculation: 31.0 MB

------------------------------------------------------------------------------
                              ORCA PROPERTY CALCULATIONS
------------------------------------------------------------------------------

GBWName                                 ... xtb_opt.gbw
Number of atoms                         ...     15
Number of basis functions               ...    150
Max core memory                         ...   1024 MB

Electric properties:
Dipole moment                           ... YES
Quadrupole moment                       ...  NO
Static polarizability (Dipole/Dipole)   ...  NO
Static polarizability (Dipole/Quad.)    ...  NO
Static polarizability (Quad./Quad.)     ...  NO
Static polarizability (Velocity)        ...  NO

Atomic electric properties:
Dipole moment                           ...  NO
Quadrupole moment                       ...  NO
Static polarizability                   ...  NO

Choice of electric origin               ... Center of mass
Position of electric origin             ...     0.000000    -0.000002    -0.000024

General magnetic properties:
Magnetizability                         ...  NO

EPR properties:
g-Tensor (aka g-matrix)                 ...  NO
Zero-Field splitting spin-orbit         ...  NO
Zero-field splitting spin-spin          ...  NO
Hyperfine couplings                     ...  NO (   0 nuclei)
Quadrupole couplings                    ...  NO (   0 nuclei)
Contact density                         ...  NO (   0 nuclei)

NMR properties:
Chemical shifts                         ...  NO (   0 nuclei)
Spin-rotation constants                 ...  NO (   0 nuclei)
Spin-spin couplings                     ...  NO (   0 nuclei,    0 pairs)

Choice of magnetic origin               ... GIAO
Position of magnetic origin             ...     0.000000     0.000000     0.000000

Properties with geometric perturbations:
SCF Hessian                             ...  NO
IR spectrum                             ...  NO
VCD spectrum                            ...  NO
X-ray spectroscopy properties:
SCF XES/XAS/RIXS spectra                ...  NO


-------------
DIPOLE MOMENT
-------------

Method             : SCF
Type of density    : Electron Density
Multiplicity       :   1
Irrep              :   0
Energy             :  -233.6095400927032131 Eh
Relativity type    : 
Basis              : AO
                                X                 Y                 Z
Electronic contribution:     -0.055035322       0.252288240       3.251300824
Nuclear contribution   :     -0.192818441      -0.637211991      -3.621664905
                        -----------------------------------------
Total Dipole Moment    :     -0.247853762      -0.384923750      -0.370364082
                        -----------------------------------------
Magnitude (a.u.)       :      0.588869539
Magnitude (Debye)      :      1.496787417



--------------------
Rotational spectrum 
--------------------
 
Rotational constants in cm-1:             0.157335             0.155869             0.150050 
Rotational constants in MHz :          4716.782127          4672.825216          4498.388267 

Dipole components along the rotational axes: 
x,y,z [a.u.] :    -0.381435    -0.324357    -0.309947 
x,y,z [Debye]:    -0.969532    -0.824450    -0.787822 

 

Dipole moment calculation done in   0.0 sec 

Maximum memory used throughout the entire PROP-calculation: 9.2 MB

--------------------------------
SUGGESTED CITATIONS FOR THIS RUN
--------------------------------

Below you find a list of papers that are relevant to this ORCA run
We neither can nor want to force you to cite these papers, but we appreciate if you do
You receive ORCA, which is the product of decades of hard work by many enthusiastic individuals, for free
The only thing we kindly ask in return is that you cite our papers,
We deeply appreciate it, if you show your appreciation for ORCA by not just citing the generic ORCA reference.

Please note that relegating all ORCA citations to the supporting information does *not* help us.
SI sections are not indexed - citations you put there will not count into any citation statistics
But we need these citations in order to attract the funding resources that allow us to do what we are doing

Therefore, if you are a happy ORCA user, please consider citing a few of the papers listed below in the main body of your paper

In addition to the list printed below, the program has created the file xtb_opt.bibtex that contains the list in bibtex format
You can import this file easily into all common literature databanks and citation aid programs


List of essential papers. We consider these as the minimum necessary citations

  1. Neese,F.
     Software update: the ORCA program system, version 5.0
     WIRES Comput. Molec. Sci., 2022 12(1)e1606
     doi.org/10.1002/wcms.1606
  2. Grimme,S.; Hansen,A.; Ehlert,S.; Mewes,J.
     r2SCAN-3c: A 'Swiss army knife' composite electronic-structure method
     J. Chem. Phys., 2021 154 064103
     doi.org/10.1063/5.0040021

List of papers to cite with high priority. The work reported in these papers was absolutely
necessary for this run to complete.
Our perspective: the developers of density functionals and basis sets usually get cited in chemistry papers
Good! But without the algorithms to do something with them, the functionals or basis sets would not do anything.
Hence, in our opinion, the algorithm design and method developments papers are equally worthy of getting cited

  1. Neese,F.
     An improvement of the resolution of the identity approximation for the formation of the Coulomb matrix
     J. Comp. Chem., 2003 24(14)1740-1747
     doi.org/10.1002/jcc.10318
  2. Neese,F.
     The SHARK Integral Generation and Digestion System
     J. Comp. Chem., 2022  1-16
     doi.org/10.1002/jcc.26942
  3. Lehtola,S.; Steigemann,C.; Oliveira,M.; Marques,M.
     Recent developments in Libxc - A comprehensive library of functionals for density functional theory
     Software X, 2018 7 
     doi.org/10.1016/j.softx.2017.11.002
  4. Caldeweyher,E.; Bannwarth,C.; Grimme,S.
     Extension of the D3 dispersion coefficient model
     J. Chem. Phys., 2017 147 034112
     doi.org/10.1063/1.4993215
  5. Caldeweyher,E.; Ehlert,S.; Hansen,A.; Neugebauer,H.; Spicher,S.; Bannwarth,C.; Grimme,S.
     A generally applicable atomic-charge dependent London dispersion correction
     J. Chem. Phys., 2019 150 154122
     doi.org/10.1063/1.5090222
  6. Caldeweyher,E.; Mewes,J.; Ehlert,S.; Grimme,S.
     Extension and evaluation of the D4 London-dispersion model for periodic systems
     Phys. Chem. Chem. Phys., 2020 22(16)8499-8512
     doi.org/10.1039/D0CP00502A
  7. Wittmann,L.; Gordiy,I.; Friede,M.; Helmich-Paris,B.; Grimme,S.; Hansen,A.; Bursch,M.
     Extension of the D3 and D4 London Dispersion Corrections to the full Actinides Series
     Phys. Chem. Chem. Phys., 2024 26(32)21379-21394
     doi.org/https://doi.org/10.1039/D4CP01514B 

List of suggested additional citations. These are papers that are important in the 'surrounding' of 
of this run, or papers that preceded the highly important papers. If you like your results we are grateful for a citation.

  1. Neese,F.
     The ORCA program system
     WIRES Comput. Molec. Sci., 2012 2(1)73-78
     doi.org/10.1002/wcms.81
  2. Neese,F.
     Software update: the ORCA program system, version 4.0
     WIRES Comput. Molec. Sci., 2018 8(1)1-6
     doi.org/10.1002/wcms.1327
  3. Neese,F.; Wennmohs,F.; Becker,U.; Riplinger,C.
     The ORCA quantum chemistry program package
     J. Chem. Phys., 2020 152 Art. No. L224108
     doi.org/10.1063/5.0004608

List of optional additional citations

  1. Neese,F.
     Approximate second-order SCF convergence for spin unrestricted wavefunctions
     Chem. Phys. Lett., 2000 325(1-3)93-98
     doi.org/10.1016/s0009-2614(00)00662-x

Timings for individual modules:

Sum of individual times          ...        5.686 sec (=   0.095 min)
Startup calculation              ...        0.350 sec (=   0.006 min)   6.1 %
SCF iterations                   ...        2.608 sec (=   0.043 min)  45.9 %
Property calculations            ...        0.035 sec (=   0.001 min)   0.6 %
SCF Gradient evaluation          ...        2.694 sec (=   0.045 min)  47.4 %
                             ****ORCA TERMINATED NORMALLY****
TOTAL RUN TIME: 0 days 0 hours 0 minutes 5 seconds 751 msec
  ------------------------------------------------------------------------
          * successful ORCA run, taking over control again...

         :::::::::::::::::::::::::::::::::::::::::::::::::::::
         ::                  ORCA SUMMARY                   ::
         :::::::::::::::::::::::::::::::::::::::::::::::::::::
         :: total energy            -233.604550131975 Eh    ::
         :: gradient norm              0.025345538398 Eh/a0 ::
         :: HOMO-LUMO gap              0.000000000000 eV    ::
         :::::::::::::::::::::::::::::::::::::::::::::::::::::

      ----------------------------------------------------------- 
     |                       L-ANC optimizer                     |
      ----------------------------------------------------------- 
          low memory version by Sebastian Ehlert

          ...................................................
          :                      SETUP                      :
          :.................................................:
          :   energy convergence        0.5000000E-05 Eh    :
          :   grad. convergence         0.1000000E-02 Eh/a0 :
          :   optimization log               true           :
          :   writing optlog all                1     steps :
          :   Hessian reset                     8     steps :
          :   maximium step len.        1.0000000     a0    :
          :   LBFGS images                      8           :
          ...................................................
 * calculating model hessian...
Using Lindh-Hessian (1995)
 Shifting diagonal of input Hessian by    1.0000000000000000E-002
 Lowest  eigenvalues of input Hessian
    0.000000    0.000000    0.000000    0.000000    0.000000    0.000000
    0.020101    0.020687    0.020823    0.021113    0.021533    0.027651
    0.028356    0.037008    0.062411    0.065943    0.067300    0.069537
 Highest eigenvalues
    1.140056    1.147564    1.214206    1.236124    1.303140    1.467799


........................................................................
.............................. CYCLE    1 ..............................
........................................................................
                         * ORCA takes the control...
  ------------------------------------------------------------------------

                                 *****************
                                 * O   R   C   A *
                                 *****************

                                            #,                                       
                                            ###                                      
                                            ####                                     
                                            #####                                    
                                            ######                                   
                                           ########,                                 
                                     ,,################,,,,,                         
                               ,,#################################,,                 
                          ,,##########################################,,             
                       ,#########################################, ''#####,          
                    ,#############################################,,   '####,        
                  ,##################################################,,,,####,       
                ,###########''''           ''''###############################       
              ,#####''   ,,,,##########,,,,          '''####'''          '####       
            ,##' ,,,,###########################,,,                        '##       
           ' ,,###''''                  '''############,,,                           
         ,,##''                                '''############,,,,        ,,,,,,###''
      ,#''                                            '''#######################'''  
     '                                                          ''''####''''         
             ,#######,   #######,   ,#######,      ##                                
            ,#'     '#,  ##    ##  ,#'     '#,    #''#        ,####,   ,####,        
            ##       ##  ##   ,#'  ##            #'  '#       #'       #'  '#        
            ##       ##  #######   ##           ,######,      #####,   #    #        
            '#,     ,#'  ##    ##  '#,     ,#' ,#      #,     #,   #   #,  ,#        
             '#######'   ##     ##  '#######'  #'      '#     '####' # '####'        



                #########################################################
                #                        -***-                          #
                #          Department of theory and spectroscopy        #
                #                                                       #
                #                      Frank Neese                      #
                #                                                       #
                #     Directorship, Architecture, Infrastructure        #
                #                    SHARK, DRIVERS                     #
                #        Core code/Algorithms in most modules           #
                #                                                       #
                #        Max Planck Institute fuer Kohlenforschung      #
                #                Kaiser Wilhelm Platz 1                 #
                #                 D-45470 Muelheim/Ruhr                 #
                #                      Germany                          #
                #                                                       #
                #                  All rights reserved                  #
                #                        -***-                          #
                #########################################################


                         Program Version 6.0.1  -  RELEASE   -


 With contributions from (in alphabetic order):
[Max-Planck-Institut fuer Kohlenforschung]                               
  Daniel Aravena         : Magnetic Suceptibility                        
  Michael Atanasov       : Ab Initio Ligand Field Theory (pilot matlab implementation)
  Alexander A. Auer      : GIAO ZORA, VPT2 properties, NMR spectrum      
  Ute Becker             : All parallelization in ORCA, NUMFREQ, NUMCALC 
  Giovanni Bistoni       : ED, misc. LED, open-shell LED, HFLD           
  Martin Brehm           : Molecular dynamics                            
  Dmytro Bykov           : pre 5.0 version of the SCF Hessian            
  Marcos Casanova-Páez   : Triplet and SCS-CIS(D). UHF-(DLPNO)-IP/EA/STEOM-CCSD. UHF-CVS-IP/STEOM-CCSD   
  Vijay G. Chilkuri      : MRCI spin determinant printing, contributions to CSF-ICE 
  Pauline Colinet        : FMM embedding                                 
  Dipayan Datta          : RHF DLPNO-CCSD density                        
  Achintya Kumar Dutta   : EOM-CC, STEOM-CC                              
  Nicolas Foglia         : Exact transition moments, OPA infrastructure, MCD improvements    
  Dmitry Ganyushin       : Spin-Orbit,Spin-Spin,Magnetic field MRCI      
  Miquel Garcia-Rates    : C-PCM and meta-GGA Hessian, CCSD/C-PCM, Gaussian charge scheme 
  Tiago L. C. Gouveia    : GS-ROHF, GS-ROCIS                             
  Yang Guo               : DLPNO-NEVPT2, F12-NEVPT2, CIM, IAO-localization        
  Andreas Hansen         : Spin unrestricted coupled pair/coupled cluster methods 
  Ingolf Harden          : AUTO-CI MPn and infrastructure                
  Benjamin Helmich-Paris : MC-RPA, TRAH-(SCF,CASSCF), AVAS, COSX integrals, SCF dyn. polar. 
  Lee Huntington         : MR-EOM, pCC                                   
  Robert Izsak           : Overlap fitted RIJCOSX, COSX-SCS-MP3, EOM     
  Riya Kayal             : Wick's Theorem for AUTO-CI, AUTO-CI UHF-CCSDT 
  Emily Kempfer          : AUTO-CI, RHF CISDT and CCSDT                  
  Christian Kollmar      : KDIIS, OOCD, Brueckner-CCSD(T), CCSD density, CASPT2, CASPT2-K, improved NEVPT2 
  Axel Koslowski         : Symmetry handling                             
  Simone Kossmann        : meta-GGA functionals, TD-DFT gradient, OOMP2, (MP2 Hessian; deprecated post 5.0) 
  Lucas Lang             : DCDCAS                                        
  Marvin Lechner         : AUTO-CI (C++ implementation), FIC-MRCC        
  Spencer Leger          : CASSCF response                               
  Dagmar Lenk            : GEPOL surface, SMD, ORCA-2-JSON               
  Dimitrios Liakos       : Extrapolation schemes; Compound Job, initial MDCI parallelization 
  Dimitrios Manganas     : Further ROCIS development; embedding schemes. LFT, Crystal Embedding 
  Dimitrios Pantazis     : SARC Basis sets                               
  Anastasios Papadopoulos: AUTO-CI, single reference methods and gradients 
  Taras Petrenko         : pre 6.0 DFT Hessian and TD-DFT gradient, (ASA, deprecated), ECA, 1-Electron XAS/XES, NRVS 
  Peter Pinski           : DLPNO-MP2, DLPNO-MP2 Gradient                 
  Christoph Reimann      : Effective Core Potentials                     
  Marius Retegan         : Local ZFS, SOC                                
  Christoph Riplinger    : Optimizer, TS searches, QM/MM, DLPNO-CCSD(T), (RO)-DLPNO pert. Triples 
  Michael Roemelt        : Original ROCIS implementation                 
  Masaaki Saitow         : Open-shell DLPNO-CCSD energy and density      
  Barbara Sandhoefer     : DKH picture change effects                    
  Kantharuban Sivalingam : CASSCF convergence/infrastructure, NEVPT2 and variants, FIC-MRCI 
  Bernardo de Souza      : ESD, SOC TD-DFT                               
  Georgi L. Stoychev     : AutoAux, RI-MP2 NMR, DLPNO-MP2 response, X2C  
  Van Anh Tran           : RI-MP2 g-tensors                              
  Willem Van den Heuvel  : Paramagnetic NMR                              
  Zikuan Wang            : NOTCH, Electric field optimization            
  Frank Wennmohs         : Technical directorship and infrastructure     
  Hang Xu                : AUTO-CI-Response properties                   
                                                                         
[FACCTs GmbH]                                                            
  Markus Bursch, Miquel Garcia-Rates, Christoph Riplinger, Bernardo de Souza, Georgi L. Stoychev 
                                                                 
  APM, Basis sets (HGBS, AHGBS, def-TZVP (Ac-Lr), def2-XVPD (La-Lu)), CI-OPT, improved COSX, DLPNO-Multilevel,           
  DOCKER, DRACO, updates on ESD, GOAT, IRC, LR-CPCM, MBIS, meta-GGA TD-DFT gradient, ML-optimized integration grids, 
  MM, NACMEs, nearIR, NEB, NEB-TS, NL-DFT gradient (VV10), 2- and 3-layer-ONIOM, interface openCOSMO-RS, QMMM,   
  Crystal-QMMM, SF, symmetry and pop. for TD-DFT, r2SCAN hybrids, SOLVATOR                                   
                                                                         
[Other institutions]                                                     
  V. Asgeirsson          : NEB                                           
  Christoph Bannwarth    : sTDA-DFT, sTD-DFT, PBEh-3c, B97-3c, D3        
  Sebastian Ehlert       : rSCAN, r2SCAN, r2SCAN-3c, D4, dhf basis sets  
  Marvin Friede          : D4 for Fr, Ra, Ac-Lr                          
  Lars Goerigk           : TD-DFT with DH, B97 family of functionals     
  Stefan Grimme          : VdW corrections, initial TS optimization, DFT functionals, gCP, sTDA/sTD-DF 
  Waldemar Hujo          : DFT-NL                                        
  H. Jonsson             : NEB                                           
  Holger Kruse           : gCP                                           
  Marcel Mueller         : wB97X-3c, vDZP basis set                      
  Hagen Neugebauer       : wr2SCAN                                       
  Tobias Risthaus        : range-separated hybrid DFT                    
  Lukas Wittmann         : regularized MP2, r2SCAN double-hybrids, wr2SCAN        
                                                                         
We gratefully acknowledge several colleagues who have allowed us to      
interface, adapt or use parts of their codes:                            
  Ed Valeev, F. Pavosevic, A. Kumar             : LibInt (2-el integral package), F12 methods 
  Garnet Chan, S. Sharma, J. Yang, R. Olivares  : DMRG                   
  Ulf Ekstrom                                   : XCFun DFT Library      
  Mihaly Kallay                                 : mrcc  (arbitrary order and MRCC methods)
  Frank Weinhold                                : gennbo (NPA and NBO analysis)           
  Simon Mueller                                 : openCOSMO-RS                            
  Christopher J. Cramer and Donald G. Truhlar   : smd solvation model                     
  S Lehtola, MJT Oliveira, MAL Marques          : LibXC Library                           
  Liviu Ungur et al                             : ANISO software                          


 Your calculation uses the libint2 library for the computation of 2-el integrals
 For citations please refer to: http://libint.valeyev.net

 Your ORCA version has been built with support for libXC version: 6.2.2
 For citations please refer to: https://libxc.gitlab.io

 This ORCA versions uses:
   CBLAS   interface :  Fast vector & matrix operations
   LAPACKE interface :  Fast linear algebra routines
   SCALAPACK package :  Parallel linear algebra routines
   Shared memory     :  Shared parallel matrices
   BLAS/LAPACK       :  OpenBLAS 0.3.27  USE64BITINT DYNAMIC_ARCH NO_AFFINITY Zen SINGLE_THREADED
        Core in use  :  Zen
   Copyright (c) 2011-2014, The OpenBLAS Project




***************************************
The coordinates will be read from file: xtb_opt.xyz
***************************************


Your calculation utilizes the geometrical counterpoise correction gCP
Please cite in your paper:
H.Kruse, S. Grimme J.Chem.Phys., 136, (2012), 154101 
   

Your calculation utilizes the atom-pairwise dispersion correction
based on EEQ partial charges (D4)


================================================================================

----- Orbital basis set information -----
Your calculation utilizes the basis: def2-mTZVPP
   Stefan Grimme, Andreas Hansen, Sebastian Ehlert, and Jan-Michael Mewes 
   J. Chem. Phys. 154, 064103 (2021). DOI: 10.1063/5.0040021

----- AuxJ basis set information -----
Your calculation utilizes the auxiliary basis: def2/J
   F. Weigend, Phys. Chem. Chem. Phys. 8, 1057 (2006).

================================================================================
                                        WARNINGS
                       Please study these warnings very carefully!
================================================================================

WARNING: Old DensityContainer found on disk!
         Will remove this file - 
         If you want to keep old densities, please start your calculation with a different basename. 



WARNING: SCAN, rSCAN, or r2SCAN functional requested.
  ===> : libXC variant has now been activated.



================================================================================
                                       INPUT FILE
================================================================================
NAME = xtb_opt.inp
|  1> ! r2scan-3c def2/J RI DEFGRID2 scfconv7 ENGRAD tightSCF miniprint
|  2> * xyzfile 0 1 xtb_opt.xyz
|  3> 
|  4>                          ****END OF INPUT****
================================================================================

                     *******************************
                     * Energy+Gradient Calculation *
                     *******************************

---------------------------------
CARTESIAN COORDINATES (ANGSTROEM)
---------------------------------
  C      0.772974   -1.268689   -0.482223
  C      0.000977   -0.005220   -0.022766
  C     -1.413581    0.009395   -0.613377
  C      0.749855    1.264897   -0.421407
  O     -0.076787    0.054377    1.406375
  H      0.176069   -1.887099   -1.156741
  H      1.700926   -1.010784   -0.996712
  H      1.041341   -1.873653    0.386404
  H     -1.374942    0.045499   -1.705032
  H     -1.964976    0.880255   -0.250108
  H     -1.958525   -0.895303   -0.323904
  H      0.863843    1.308311   -1.506416
  H      0.203668    2.148755   -0.084106
  H      1.740152    1.272278    0.039785
  H     -0.623303   -0.679620    1.708751

----------------------------
CARTESIAN COORDINATES (A.U.)
----------------------------
  NO LB      ZA    FRAG     MASS         X           Y           Z
   0 C     6.0000    0    12.011    1.460709   -2.397475   -0.911270
   1 C     6.0000    0    12.011    0.001847   -0.009865   -0.043022
   2 C     6.0000    0    12.011   -2.671281    0.017755   -1.159115
   3 C     6.0000    0    12.011    1.417022    2.390309   -0.796343
   4 O     8.0000    0    15.999   -0.145106    0.102758    2.657663
   5 H     1.0000    0     1.008    0.332722   -3.566101   -2.185924
   6 H     1.0000    0     1.008    3.214284   -1.910106   -1.883513
   7 H     1.0000    0     1.008    1.967849   -3.540692    0.730197
   8 H     1.0000    0     1.008   -2.598264    0.085980   -3.222044
   9 H     1.0000    0     1.008   -3.713267    1.663441   -0.472636
  10 H     1.0000    0     1.008   -3.701076   -1.691878   -0.612089
  11 H     1.0000    0     1.008    1.632426    2.472350   -2.846714
  12 H     1.0000    0     1.008    0.384876    4.060558   -0.158937
  13 H     1.0000    0     1.008    3.288411    2.404258    0.075183
  14 H     1.0000    0     1.008   -1.177871   -1.284295    3.229072

------------------------------------------------------------------------------
                   ___                                                        
                  /   \      - P O W E R E D   B Y -                         
                 /     \                                                     
                 |  |  |   _    _      __       _____    __    __             
                 |  |  |  | |  | |    /  \     |  _  \  |  |  /  |          
                  \  \/   | |  | |   /    \    | | | |  |  | /  /          
                 / \  \   | |__| |  /  /\  \   | |_| |  |  |/  /          
                |  |  |   |  __  | /  /__\  \  |    /   |      \           
                |  |  |   | |  | | |   __   |  |    \   |  |\   \          
                \     /   | |  | | |  |  |  |  | |\  \  |  | \   \       
                 \___/    |_|  |_| |__|  |__|  |_| \__\ |__|  \__/        
                                                                              
                      - O R C A' S   B I G   F R I E N D -                    
                                      &                                       
                       - I N T E G R A L  F E E D E R -                       
                                                                              
 v1 FN, 2020, v2 2021, v3 2022-2024                                           
------------------------------------------------------------------------------


----------------------
SHARK INTEGRAL PACKAGE
----------------------

Number of atoms                             ...     15
Number of basis functions                   ...    150
Number of shells                            ...     76
Maximum angular momentum                    ...      2
Integral batch strategy                     ... SHARK/LIBINT Hybrid
RI-J (if used) integral strategy            ... SPLIT-RIJ (Revised 2003 algorithm where possible)
Printlevel                                  ...      1
Contraction scheme used                     ... SEGMENTED contraction
Prescreening option                         ... SCHWARTZ
   Thresh                                   ... 3.000e-11
   Tcut                                     ... 1.000e-12
   Tpresel                                  ... 1.000e-12 
Coulomb Range Separation                    ... NOT USED
Exchange Range Separation                   ... NOT USED
Multipole approximations                    ... NOT USED
Finite Nucleus Model                        ... NOT USED
CABS basis                                  ... NOT available
Auxiliary Coulomb fitting basis             ... AVAILABLE
   # of basis functions in Aux-J            ...    355
   # of shells in Aux-J                     ...    125
   Maximum angular momentum in Aux-J        ...      4
Auxiliary J/K fitting basis                 ... NOT available
Auxiliary Correlation fitting basis         ... NOT available
Auxiliary 'external' fitting basis          ... NOT available

Checking pre-screening integrals            ... done (  0.0 sec) Dimension = 76
Check shell pair data                       ... done (  0.0 sec)
Shell pair information
Shell pair cut-off parameter TPreSel        ...   1.0e-12
Total number of shell pairs                 ...      2926
Shell pairs after pre-screening             ...      2870
Total number of primitive shell pairs       ...     10151
Primitive shell pairs kept                  ...      7672
          la=0 lb=0:   1003 shell pairs
          la=1 lb=0:   1102 shell pairs
          la=1 lb=1:    324 shell pairs
          la=2 lb=0:    270 shell pairs
          la=2 lb=1:    150 shell pairs
          la=2 lb=2:     21 shell pairs

Calculating one electron integrals          ... done (  0.0 sec)
Calculating RI/J V-Matrix + Cholesky decomp.... done (  0.0 sec)
Calculating Nuclear repulsion               ... done (  0.0 sec) ENN=    199.009011398979 Eh

Diagonalization of the overlap matrix:
Smallest eigenvalue                        ... 2.620e-04
Time for diagonalization                   ...    0.001 sec
Threshold for overlap eigenvalues          ... 1.000e-07
Number of eigenvalues below threshold      ... 0
Time for construction of square roots      ...    0.000 sec
Total time needed                          ...    0.003 sec

-------------------
DFT GRID GENERATION
-------------------

General Integration Accuracy     IntAcc      ... 4.388
Radial Grid Type                 RadialGrid  ... OptM3 with GC (2021)
Angular Grid (max. ang.)         AngularGrid ... 4 (Lebedev-302)
Angular grid pruning method      GridPruning ... 4 (adaptive)
Weight generation scheme         WeightScheme... mBecke (2022)
Basis function cutoff            BFCut       ... 1.0000e-11
Integration weight cutoff        WCut        ... 1.0000e-14
Partially contracted basis set               ... off
Rotationally invariant grid construction     ... off
Angular grids for H and He will be reduced by one unit
Diffuse basis detected: some atoms will have their outermost
                        angular grid increased by 1.

Total number of grid points                  ...    62592
Total number of batches                      ...      986
Average number of points per batch           ...       63
Average number of grid points per atom       ...     4173
Initializing property integral containers    ... done (  0.0 sec)

SHARK setup successfully completed in   0.3 seconds

Maximum memory used throughout the entire STARTUP-calculation: 27.6 MB
Occupation numbers will be reassigned to an Aufbau configuration
             **** ENERGY FILE WAS UPDATED (xtb_opt.en.tmp) ****
Finished Guess after   0.0 sec
Maximum memory used throughout the entire GUESS-calculation: 10.9 MB
----------------------------------------D-I-I-S--------------------------------------------
Iteration    Energy (Eh)           Delta-E    RMSDP     MaxDP     DIISErr   Damp  Time(sec)
-------------------------------------------------------------------------------------------
               ***  Starting incremental Fock matrix formation  ***
    1    -233.6099183617433823     0.00e+00  8.05e-05  1.31e-03  3.51e-03  0.700   0.7
                              *** Initializing SOSCF ***
---------------------------------------S-O-S-C-F--------------------------------------
Iteration    Energy (Eh)           Delta-E    RMSDP     MaxDP     MaxGrad    Time(sec)
--------------------------------------------------------------------------------------
    2    -233.6099679849455697    -4.96e-05  2.43e-04  4.11e-03  2.48e-03     0.6
               *** Restarting incremental Fock matrix formation ***
    3    -233.6100777082856439    -1.10e-04  6.69e-05  8.68e-04  3.23e-04     0.7
    4    -233.6100752685804309     2.44e-06  3.47e-05  4.71e-04  4.17e-04     0.6
    5    -233.6100826524891545    -7.38e-06  6.43e-06  9.70e-05  2.75e-05     0.6
    6    -233.6100826440460878     8.44e-09  2.85e-06  4.62e-05  3.79e-05     0.5
                 **** Energy Check signals convergence ****

               *****************************************************
               *                     SUCCESS                       *
               *           SCF CONVERGED AFTER   6 CYCLES          *
               *****************************************************

             **** ENERGY FILE WAS UPDATED (xtb_opt.en.tmp) ****

----------------
TOTAL SCF ENERGY
----------------

Total Energy       :       -233.61008264404609 Eh           -6356.85352 eV

Components:
Nuclear Repulsion  :        199.00901139897888 Eh            5415.31051 eV
Electronic Energy  :       -432.61909404302497 Eh          -11772.16403 eV
One Electron Energy:       -709.99474031537818 Eh          -19319.93909 eV
Two Electron Energy:        277.37564627235321 Eh            7547.77506 eV

Virial components:
Potential Energy   :       -466.12059097504516 Eh          -12683.78611 eV
Kinetic Energy     :        232.51050833099910 Eh            6326.93259 eV
Virial Ratio       :          2.00472913814064

DFT components:
N(Alpha)           :       20.999971861131 electrons
N(Beta)            :       20.999971861131 electrons
N(Total)           :       41.999943722263 electrons
E(X)               :      -32.635774427483 Eh       
E(C)               :       -1.311932611235 Eh       
E(XC)              :      -33.947707038719 Eh       

---------------
SCF CONVERGENCE
---------------

  Last Energy change         ...   -8.4431e-09  Tolerance :   1.0000e-07
  Last MAX-Density change    ...    4.6192e-05  Tolerance :   1.0000e-07
  Last RMS-Density change    ...    2.8485e-06  Tolerance :   5.0000e-09
  Last DIIS Error            ...    2.4764e-03  Tolerance :   1.0000e-07
  Last Orbital Gradient      ...    3.7907e-05  Tolerance :   1.0000e-04
  Last Orbital Rotation      ...    2.1553e-05  Tolerance :   1.0000e-04


----------------
ORBITAL ENERGIES
----------------

  NO   OCC          E(Eh)            E(eV) 
   0   2.0000     -18.940448      -515.3958 
   1   2.0000     -10.090795      -274.5845 
   2   2.0000     -10.021221      -272.6913 
   3   2.0000     -10.018792      -272.6252 
   4   2.0000     -10.015382      -272.5324 
   5   2.0000      -0.979866       -26.6635 
   6   2.0000      -0.752041       -20.4641 
   7   2.0000      -0.657033       -17.8788 
   8   2.0000      -0.655402       -17.8344 
   9   2.0000      -0.536538       -14.5999 
  10   2.0000      -0.455750       -12.4016 
  11   2.0000      -0.415807       -11.3147 
  12   2.0000      -0.414366       -11.2755 
  13   2.0000      -0.383757       -10.4426 
  14   2.0000      -0.370415       -10.0795 
  15   2.0000      -0.348454        -9.4819 
  16   2.0000      -0.332268        -9.0415 
  17   2.0000      -0.320997        -8.7348 
  18   2.0000      -0.311876        -8.4866 
  19   2.0000      -0.284351        -7.7376 
  20   2.0000      -0.233401        -6.3512 
  21   0.0000       0.060568         1.6481 
  22   0.0000       0.109125         2.9695 
  23   0.0000       0.121974         3.3191 
  24   0.0000       0.129466         3.5229 
  25   0.0000       0.135083         3.6758 
  26   0.0000       0.140513         3.8235 
  27   0.0000       0.145925         3.9708 
  28   0.0000       0.150567         4.0971 
  29   0.0000       0.153033         4.1642 
  30   0.0000       0.182464         4.9651 
  31   0.0000       0.187842         5.1114 
*Only the first 10 virtual orbitals were printed.
Total SCF time: 0 days 0 hours 0 min 3 sec 
Finished LeanSCF after   3.7 sec

Maximum memory used throughout the entire LEANSCF-calculation: 16.9 MB


-------------------------------------------------------------------------------
                          DFT DISPERSION CORRECTION                            
                                                                               
                                DFTD4 V3.4.0                                   
-------------------------------------------------------------------------------
-------------------------   ----------------
Dispersion correction           -0.003313074
-------------------------   ----------------

------------------   -----------------
gCP correction             0.008217834
------------------   -----------------

-------------------------   --------------------
FINAL SINGLE POINT ENERGY      -233.605177884267
-------------------------   --------------------

------------------------------------------------------------------------------
                         ORCA SCF GRADIENT CALCULATION
------------------------------------------------------------------------------

Nuc. rep. gradient        (SHARK) ... done (  0.0 sec)
HCore & Overlap gradient  (SHARK) ... done (  0.1 sec)
Split-RIJ-J gradient      (SHARK) ... done (  0.4 sec)
XC gradient                       ... done (  2.2 sec)
Dispersion correction             ... done (  0.0 sec)

-------------------
DISPERSION GRADIENT
-------------------

   1   C   :    0.000028206   -0.000046832   -0.000012074
   2   C   :    0.000000075   -0.000000178    0.000003232
   3   C   :   -0.000052801    0.000000564   -0.000016926
   4   C   :    0.000028571    0.000049085   -0.000012837
   5   O   :   -0.000014134   -0.000012516    0.000059082
   6   H   :    0.000007020   -0.000028910   -0.000011249
   7   H   :    0.000024313   -0.000018547   -0.000008899
   8   H   :    0.000016055   -0.000026658    0.000006577
   9   H   :   -0.000025651    0.000001181   -0.000017772
  10   H   :   -0.000028343    0.000008690   -0.000001214
  11   H   :   -0.000029594   -0.000007417   -0.000002624
  12   H   :    0.000014952    0.000023873   -0.000013473
  13   H   :    0.000007572    0.000029665    0.000002251
  14   H   :    0.000021752    0.000022127    0.000003163
  15   H   :    0.000002008    0.000005873    0.000022761

Difference to translation invariance:
           :    0.0000000000    0.0000000000   -0.0000000000

Difference to rotation invariance:
           :    0.0000000000   -0.0000000000    0.0000000000

Norm of the Dispersion gradient    ...    0.0001507812
RMS gradient                       ...    0.0000224771
MAX gradient                       ...    0.0000590824
gCP correction                   ... done

------------------
CARTESIAN GRADIENT
------------------

   1   C   :    0.000915147   -0.000705194   -0.001064311
   2   C   :    0.000129797   -0.001677652    0.007003173
   3   C   :   -0.001919424   -0.000226613   -0.001717759
   4   C   :    0.001147986    0.001899322   -0.001066633
   5   O   :    0.000120000   -0.000443710   -0.005935518
   6   H   :    0.000345521    0.000678046    0.000729285
   7   H   :   -0.000983450   -0.000165631    0.000436312
   8   H   :   -0.000310623    0.000645840   -0.000525168
   9   H   :    0.000363040    0.000365032    0.001207945
  10   H   :    0.000340581   -0.000533906   -0.000110936
  11   H   :    0.000861034    0.000840500    0.000050106
  12   H   :   -0.000522394   -0.000468930    0.001156066
  13   H   :    0.000402710   -0.000677810   -0.000140816
  14   H   :   -0.000959556   -0.000042203   -0.000177328
  15   H   :    0.000069631    0.000512909    0.000155582

Difference to translation invariance:
           :    0.0000000000    0.0000000000    0.0000000000

Difference to rotation invariance:
           :   -0.0000318171    0.0002154380    0.0000847575

Norm of the Cartesian gradient     ...    0.0106265840
RMS gradient                       ...    0.0015841176
MAX gradient                       ...    0.0070031733

-------
TIMINGS
-------

Total SCF gradient time     ....        2.680 sec

Densities                   ....       0.000 sec  (  0.0%)
One electron gradient       ....       0.080 sec  (  3.0%)
RI-J Coulomb gradient       ....       0.418 sec  ( 15.6%)
XC gradient                 ....       2.162 sec  ( 80.7%)

Maximum memory used throughout the entire SCFGRAD-calculation: 31.0 MB

------------------------------------------------------------------------------
                              ORCA PROPERTY CALCULATIONS
------------------------------------------------------------------------------

GBWName                                 ... xtb_opt.gbw
Number of atoms                         ...     15
Number of basis functions               ...    150
Max core memory                         ...   1024 MB

Electric properties:
Dipole moment                           ... YES
Quadrupole moment                       ...  NO
Static polarizability (Dipole/Dipole)   ...  NO
Static polarizability (Dipole/Quad.)    ...  NO
Static polarizability (Quad./Quad.)     ...  NO
Static polarizability (Velocity)        ...  NO

Atomic electric properties:
Dipole moment                           ...  NO
Quadrupole moment                       ...  NO
Static polarizability                   ...  NO

Choice of electric origin               ... Center of mass
Position of electric origin             ...    -0.002598     0.004530     0.002223

General magnetic properties:
Magnetizability                         ...  NO

EPR properties:
g-Tensor (aka g-matrix)                 ...  NO
Zero-Field splitting spin-orbit         ...  NO
Zero-field splitting spin-spin          ...  NO
Hyperfine couplings                     ...  NO (   0 nuclei)
Quadrupole couplings                    ...  NO (   0 nuclei)
Contact density                         ...  NO (   0 nuclei)

NMR properties:
Chemical shifts                         ...  NO (   0 nuclei)
Spin-rotation constants                 ...  NO (   0 nuclei)
Spin-spin couplings                     ...  NO (   0 nuclei,    0 pairs)

Choice of magnetic origin               ... GIAO
Position of magnetic origin             ...     0.000000     0.000000     0.000000

Properties with geometric perturbations:
SCF Hessian                             ...  NO
IR spectrum                             ...  NO
VCD spectrum                            ...  NO
X-ray spectroscopy properties:
SCF XES/XAS/RIXS spectra                ...  NO


-------------
DIPOLE MOMENT
-------------

Method             : SCF
Type of density    : Electron Density
Multiplicity       :   1
Irrep              :   0
Energy             :  -233.6100826440460878 Eh
Relativity type    : 
Basis              : AO
                                X                 Y                 Z
Electronic contribution:     -0.071596633       0.272175451       3.256263726
Nuclear contribution   :     -0.171864125      -0.670340975      -3.637956962
                        -----------------------------------------
Total Dipole Moment    :     -0.243460758      -0.398165524      -0.381693236
                        -----------------------------------------
Magnitude (a.u.)       :      0.602908493
Magnitude (Debye)      :      1.532471602



--------------------
Rotational spectrum 
--------------------
 
Rotational constants in cm-1:             0.156891             0.154821             0.149026 
Rotational constants in MHz :          4703.462676          4641.418333          4467.692948 

Dipole components along the rotational axes: 
x,y,z [a.u.] :    -0.378797    -0.388317    -0.263100 
x,y,z [Debye]:    -0.962825    -0.987022    -0.668748 

 

Dipole moment calculation done in   0.0 sec 

Maximum memory used throughout the entire PROP-calculation: 9.2 MB

--------------------------------
SUGGESTED CITATIONS FOR THIS RUN
--------------------------------

[...]
               *** Restarting incremental Fock matrix formation ***
    2    -233.6102072060037642    -1.39e-10  7.70e-07  1.49e-05  4.46e-06     0.7
                  *** Gradient check signals convergence ***

               *****************************************************
               *                     SUCCESS                       *
               *           SCF CONVERGED AFTER   2 CYCLES          *
               *****************************************************

             **** ENERGY FILE WAS UPDATED (xtb_opt.en.tmp) ****

----------------
TOTAL SCF ENERGY
----------------

Total Energy       :       -233.61020720600376 Eh           -6356.85691 eV

Components:
Nuclear Repulsion  :        198.75863012740078 Eh            5408.49729 eV
Electronic Energy  :       -432.36883733340454 Eh          -11765.35420 eV
One Electron Energy:       -709.50511472755306 Eh          -19306.61570 eV
Two Electron Energy:        277.13627739414852 Eh            7541.26150 eV

Virial components:
Potential Energy   :       -466.09182155699148 Eh          -12683.00326 eV
Kinetic Energy     :        232.48161435098774 Eh            6326.14634 eV
Virial Ratio       :          2.00485454670541

DFT components:
N(Alpha)           :       20.999973344824 electrons
N(Beta)            :       20.999973344824 electrons
N(Total)           :       41.999946689648 electrons
E(X)               :      -32.627800608008 Eh       
E(C)               :       -1.311486844074 Eh       
E(XC)              :      -33.939287452082 Eh       

---------------
SCF CONVERGENCE
---------------

  Last Energy change         ...    1.3864e-10  Tolerance :   1.0000e-07
  Last MAX-Density change    ...    1.4924e-05  Tolerance :   1.0000e-07
  Last RMS-Density change    ...    7.6989e-07  Tolerance :   5.0000e-09
  Last DIIS Error            ...    1.4996e-05  Tolerance :   1.0000e-07
  Last Orbital Gradient      ...    4.4568e-06  Tolerance :   1.0000e-04
  Last Orbital Rotation      ...    7.2848e-06  Tolerance :   1.0000e-04


----------------
ORBITAL ENERGIES
----------------

  NO   OCC          E(Eh)            E(eV) 
   0   2.0000     -18.939583      -515.3723 
   1   2.0000     -10.091611      -274.6067 
   2   2.0000     -10.021958      -272.7113 
   3   2.0000     -10.020025      -272.6587 
   4   2.0000     -10.016282      -272.5569 
   5   2.0000      -0.975531       -26.5455 
   6   2.0000      -0.752989       -20.4899 
   7   2.0000      -0.657417       -17.8892 
   8   2.0000      -0.655829       -17.8460 
   9   2.0000      -0.534292       -14.5388 
  10   2.0000      -0.455131       -12.3848 
  11   2.0000      -0.415637       -11.3101 
  12   2.0000      -0.414481       -11.2786 
  13   2.0000      -0.383918       -10.4469 
  14   2.0000      -0.369923       -10.0661 
  15   2.0000      -0.347792        -9.4639 
  16   2.0000      -0.332421        -9.0456 
  17   2.0000      -0.319848        -8.7035 
  18   2.0000      -0.311889        -8.4869 
  19   2.0000      -0.286233        -7.7888 
  20   2.0000      -0.233279        -6.3478 
  21   0.0000       0.060580         1.6485 
  22   0.0000       0.107571         2.9272 
  23   0.0000       0.119262         3.2453 
  24   0.0000       0.129436         3.5221 
  25   0.0000       0.134503         3.6600 
  26   0.0000       0.139362         3.7922 
  27   0.0000       0.145624         3.9626 
  28   0.0000       0.149900         4.0790 
  29   0.0000       0.152315         4.1447 
  30   0.0000       0.182043         4.9536 
  31   0.0000       0.187031         5.0894 
*Only the first 10 virtual orbitals were printed.
Total SCF time: 0 days 0 hours 0 min 1 sec 
Finished LeanSCF after   1.4 sec

Maximum memory used throughout the entire LEANSCF-calculation: 16.8 MB


-------------------------------------------------------------------------------
                          DFT DISPERSION CORRECTION                            
                                                                               
                                DFTD4 V3.4.0                                   
-------------------------------------------------------------------------------
-------------------------   ----------------
Dispersion correction           -0.003311081
-------------------------   ----------------

------------------   -----------------
gCP correction             0.008209083
------------------   -----------------

-------------------------   --------------------
FINAL SINGLE POINT ENERGY      -233.605309203827
-------------------------   --------------------

------------------------------------------------------------------------------
                         ORCA SCF GRADIENT CALCULATION
------------------------------------------------------------------------------

Nuc. rep. gradient        (SHARK) ... done (  0.0 sec)
HCore & Overlap gradient  (SHARK) ... done (  0.1 sec)
Split-RIJ-J gradient      (SHARK) ... done (  0.4 sec)
XC gradient                       ... done (  2.1 sec)
Dispersion correction             ... done (  0.0 sec)

-------------------
DISPERSION GRADIENT
-------------------

   1   C   :    0.000028241   -0.000046930   -0.000011957
   2   C   :    0.000000061   -0.000000162    0.000003952
   3   C   :   -0.000053134    0.000000423   -0.000016963
   4   C   :    0.000028815    0.000049347   -0.000012857
   5   O   :   -0.000013866   -0.000012973    0.000058432
   6   H   :    0.000007134   -0.000028876   -0.000011383
   7   H   :    0.000024325   -0.000018574   -0.000008761
   8   H   :    0.000015915   -0.000026660    0.000006539
   9   H   :   -0.000025906    0.000000967   -0.000017826
  10   H   :   -0.000028353    0.000008739   -0.000001316
  11   H   :   -0.000029590   -0.000007285   -0.000002496
  12   H   :    0.000015101    0.000024067   -0.000013515
  13   H   :    0.000007606    0.000029682    0.000002213
  14   H   :    0.000021672    0.000022116    0.000003115
  15   H   :    0.000001980    0.000006118    0.000022824

Difference to translation invariance:
           :    0.0000000000   -0.0000000000    0.0000000000

Difference to rotation invariance:
           :   -0.0000000000    0.0000000000   -0.0000000000

Norm of the Dispersion gradient    ...    0.0001509335
RMS gradient                       ...    0.0000224998
MAX gradient                       ...    0.0000584321
gCP correction                   ... done

------------------
CARTESIAN GRADIENT
------------------

   1   C   :    0.000021497   -0.000031421    0.000036955
   2   C   :    0.000029237   -0.000073603   -0.000605824
   3   C   :    0.000054509    0.000022865    0.000024594
   4   C   :   -0.000009709   -0.000011850    0.000005747
   5   O   :   -0.000003058    0.000019102    0.000477644
   6   H   :   -0.000031894   -0.000004968    0.000139557
   7   H   :   -0.000113642    0.000012405   -0.000089153
   8   H   :    0.000081832    0.000126513   -0.000020653
   9   H   :    0.000000801    0.000033223    0.000071724
  10   H   :    0.000019691   -0.000065617   -0.000020861
  11   H   :    0.000070880    0.000063437   -0.000014091
  12   H   :   -0.000003472    0.000011396    0.000085950
  13   H   :    0.000057192   -0.000066942   -0.000013131
  14   H   :   -0.000100358   -0.000020819   -0.000012297
  15   H   :   -0.000073507   -0.000013721   -0.000066161

Difference to translation invariance:
           :   -0.0000000000   -0.0000000000    0.0000000000

Difference to rotation invariance:
           :   -0.0000307250    0.0001998331    0.0000593764

Norm of the Cartesian gradient     ...    0.0008546116
RMS gradient                       ...    0.0001273980
MAX gradient                       ...    0.0006058237

-------
TIMINGS
-------

Total SCF gradient time     ....        2.656 sec

Densities                   ....       0.000 sec  (  0.0%)
One electron gradient       ....       0.079 sec  (  3.0%)
RI-J Coulomb gradient       ....       0.424 sec  ( 16.0%)
XC gradient                 ....       2.133 sec  ( 80.3%)

Maximum memory used throughout the entire SCFGRAD-calculation: 31.0 MB

------------------------------------------------------------------------------
                              ORCA PROPERTY CALCULATIONS
------------------------------------------------------------------------------

GBWName                                 ... xtb_opt.gbw
Number of atoms                         ...     15
Number of basis functions               ...    150
Max core memory                         ...   1024 MB

Electric properties:
Dipole moment                           ... YES
Quadrupole moment                       ...  NO
Static polarizability (Dipole/Dipole)   ...  NO
Static polarizability (Dipole/Quad.)    ...  NO
Static polarizability (Quad./Quad.)     ...  NO
Static polarizability (Velocity)        ...  NO

Atomic electric properties:
Dipole moment                           ...  NO
Quadrupole moment                       ...  NO
Static polarizability                   ...  NO

Choice of electric origin               ... Center of mass
Position of electric origin             ...    -0.004520     0.007453     0.001364

General magnetic properties:
Magnetizability                         ...  NO

EPR properties:
g-Tensor (aka g-matrix)                 ...  NO
Zero-Field splitting spin-orbit         ...  NO
Zero-field splitting spin-spin          ...  NO
Hyperfine couplings                     ...  NO (   0 nuclei)
Quadrupole couplings                    ...  NO (   0 nuclei)
Contact density                         ...  NO (   0 nuclei)

NMR properties:
Chemical shifts                         ...  NO (   0 nuclei)
Spin-rotation constants                 ...  NO (   0 nuclei)
Spin-spin couplings                     ...  NO (   0 nuclei,    0 pairs)

Choice of magnetic origin               ... GIAO
Position of magnetic origin             ...     0.000000     0.000000     0.000000

Properties with geometric perturbations:
SCF Hessian                             ...  NO
IR spectrum                             ...  NO
VCD spectrum                            ...  NO
X-ray spectroscopy properties:
SCF XES/XAS/RIXS spectra                ...  NO


-------------
DIPOLE MOMENT
-------------

Method             : SCF
Type of density    : Electron Density
Multiplicity       :   1
Irrep              :   0
Energy             :  -233.6102072060037642 Eh
Relativity type    : 
Basis              : AO
                                X                 Y                 Z
Electronic contribution:     -0.074484881       0.288329478       3.222530121
Nuclear contribution   :     -0.156515798      -0.693611398      -3.629147314
                        -----------------------------------------
Total Dipole Moment    :     -0.231000679      -0.405281921      -0.406617193
                        -----------------------------------------
Magnitude (a.u.)       :      0.618831391
Magnitude (Debye)      :      1.572944392



--------------------
Rotational spectrum 
--------------------
 
Rotational constants in cm-1:             0.156438             0.154486             0.148844 
Rotational constants in MHz :          4689.879477          4631.377119          4462.226208 

Dipole components along the rotational axes: 
x,y,z [a.u.] :    -0.406482    -0.368773    -0.285886 
x,y,z [Debye]:    -1.033195    -0.937347    -0.726665 

 

Dipole moment calculation done in   0.0 sec 

Maximum memory used throughout the entire PROP-calculation: 9.2 MB

--------------------------------
SUGGESTED CITATIONS FOR THIS RUN
--------------------------------

Below you find a list of papers that are relevant to this ORCA run
We neither can nor want to force you to cite these papers, but we appreciate if you do
You receive ORCA, which is the product of decades of hard work by many enthusiastic individuals, for free
The only thing we kindly ask in return is that you cite our papers,
We deeply appreciate it, if you show your appreciation for ORCA by not just citing the generic ORCA reference.

Please note that relegating all ORCA citations to the supporting information does *not* help us.
SI sections are not indexed - citations you put there will not count into any citation statistics
But we need these citations in order to attract the funding resources that allow us to do what we are doing

Therefore, if you are a happy ORCA user, please consider citing a few of the papers listed below in the main body of your paper

In addition to the list printed below, the program has created the file xtb_opt.bibtex that contains the list in bibtex format
You can import this file easily into all common literature databanks and citation aid programs


List of essential papers. We consider these as the minimum necessary citations

  1. Neese,F.
     Software update: the ORCA program system, version 5.0
     WIRES Comput. Molec. Sci., 2022 12(1)e1606
     doi.org/10.1002/wcms.1606
  2. Grimme,S.; Hansen,A.; Ehlert,S.; Mewes,J.
     r2SCAN-3c: A 'Swiss army knife' composite electronic-structure method
     J. Chem. Phys., 2021 154 064103
     doi.org/10.1063/5.0040021

List of papers to cite with high priority. The work reported in these papers was absolutely
necessary for this run to complete.
Our perspective: the developers of density functionals and basis sets usually get cited in chemistry papers
Good! But without the algorithms to do something with them, the functionals or basis sets would not do anything.
Hence, in our opinion, the algorithm design and method developments papers are equally worthy of getting cited

  1. Neese,F.
     An improvement of the resolution of the identity approximation for the formation of the Coulomb matrix
     J. Comp. Chem., 2003 24(14)1740-1747
     doi.org/10.1002/jcc.10318
  2. Neese,F.
     The SHARK Integral Generation and Digestion System
     J. Comp. Chem., 2022  1-16
     doi.org/10.1002/jcc.26942
  3. Lehtola,S.; Steigemann,C.; Oliveira,M.; Marques,M.
     Recent developments in Libxc - A comprehensive library of functionals for density functional theory
     Software X, 2018 7 
     doi.org/10.1016/j.softx.2017.11.002
  4. Caldeweyher,E.; Bannwarth,C.; Grimme,S.
     Extension of the D3 dispersion coefficient model
     J. Chem. Phys., 2017 147 034112
     doi.org/10.1063/1.4993215
  5. Caldeweyher,E.; Ehlert,S.; Hansen,A.; Neugebauer,H.; Spicher,S.; Bannwarth,C.; Grimme,S.
     A generally applicable atomic-charge dependent London dispersion correction
     J. Chem. Phys., 2019 150 154122
     doi.org/10.1063/1.5090222
  6. Caldeweyher,E.; Mewes,J.; Ehlert,S.; Grimme,S.
     Extension and evaluation of the D4 London-dispersion model for periodic systems
     Phys. Chem. Chem. Phys., 2020 22(16)8499-8512
     doi.org/10.1039/D0CP00502A
  7. Wittmann,L.; Gordiy,I.; Friede,M.; Helmich-Paris,B.; Grimme,S.; Hansen,A.; Bursch,M.
     Extension of the D3 and D4 London Dispersion Corrections to the full Actinides Series
     Phys. Chem. Chem. Phys., 2024 26(32)21379-21394
     doi.org/https://doi.org/10.1039/D4CP01514B 

List of suggested additional citations. These are papers that are important in the 'surrounding' of 
of this run, or papers that preceded the highly important papers. If you like your results we are grateful for a citation.

  1. Neese,F.
     The ORCA program system
     WIRES Comput. Molec. Sci., 2012 2(1)73-78
     doi.org/10.1002/wcms.81
  2. Neese,F.
     Software update: the ORCA program system, version 4.0
     WIRES Comput. Molec. Sci., 2018 8(1)1-6
     doi.org/10.1002/wcms.1327
  3. Neese,F.; Wennmohs,F.; Becker,U.; Riplinger,C.
     The ORCA quantum chemistry program package
     J. Chem. Phys., 2020 152 Art. No. L224108
     doi.org/10.1063/5.0004608

List of optional additional citations

  1. Neese,F.
     Approximate second-order SCF convergence for spin unrestricted wavefunctions
     Chem. Phys. Lett., 2000 325(1-3)93-98
     doi.org/10.1016/s0009-2614(00)00662-x

Timings for individual modules:

Sum of individual times          ...        4.572 sec (=   0.076 min)
Startup calculation              ...        0.356 sec (=   0.006 min)   7.8 %
SCF iterations                   ...        1.491 sec (=   0.025 min)  32.6 %
Property calculations            ...        0.034 sec (=   0.001 min)   0.7 %
SCF Gradient evaluation          ...        2.692 sec (=   0.045 min)  58.9 %
                             ****ORCA TERMINATED NORMALLY****
TOTAL RUN TIME: 0 days 0 hours 0 minutes 4 seconds 637 msec
  ------------------------------------------------------------------------
          * successful ORCA run, taking over control again...

         :::::::::::::::::::::::::::::::::::::::::::::::::::::
         ::                  ORCA SUMMARY                   ::
         :::::::::::::::::::::::::::::::::::::::::::::::::::::
         :: total energy            -233.605309203827 Eh    ::
         :: gradient norm              0.000854611576 Eh/a0 ::
         :: HOMO-LUMO gap              0.000000000000 eV    ::
         :::::::::::::::::::::::::::::::::::::::::::::::::::::

           -------------------------------------------------
          |                Property Printout                |
           -------------------------------------------------
           -------------------------------------------------
          |                Geometry Summary                 |
           -------------------------------------------------

      molecular mass/u    :       74.1217560
   center of mass at/Å    :       -0.0023928       0.0039451       0.0007382
  moments of inertia/u·Å² :        0.1077575E+03   0.1091188E+03   0.1132536E+03
rotational constants/cm⁻¹ :        0.1564404E+00   0.1544888E+00   0.1488485E+00

 * 12 selected distances

     #   Z          #   Z                                           value/Å
     2   6          3   6                                         1.5294651 (max)
     2   6          4   6                                         1.5237775
     1   6          6   1                                         1.0940973
     1   6          7   1                                         1.0936318
     1   6          8   1                                         1.0931256
     3   6          9   1                                         1.0950000
     3   6         10   1                                         1.0936628
     3   6         11   1                                         1.0966640
     4   6         12   1                                         1.0938146
     4   6         13   1                                         1.0934756
     4   6         14   1                                         1.0937413
     5   8         15   1                                         0.9642760 (min)

 * 3 distinct bonds (by element types)

   Z      Z             #   av. dist./Å        max./Å        min./Å
   1 H    6 C           9     1.0941348     1.0966640     1.0931256
   6 C    6 C           2     1.5266213     1.5294651     1.5237775
   1 H    8 O           1     0.9642760     0.9642760     0.9642760


optimized geometry written to: xtbopt.coord


           -------------------------------------------------
          | TOTAL ENERGY             -233.605309203827 Eh   |
          | GRADIENT NORM               0.000854611576 Eh/α |
           -------------------------------------------------

------------------------------------------------------------------------
 * finished run on 2025/04/08 at 23:29:08.263     
------------------------------------------------------------------------
 total:
 * wall-time:     0 d,  0 h,  0 min, 43.339 sec
 *  cpu-time:     0 d,  0 h,  0 min,  0.374 sec
 * ratio c/w:     0.009 speedup
 SCF:
 * wall-time:     0 d,  0 h,  0 min,  5.766 sec
 *  cpu-time:     0 d,  0 h,  0 min,  0.053 sec
 * ratio c/w:     0.009 speedup
 ANC optimizer:
 * wall-time:     0 d,  0 h,  0 min, 37.532 sec
 *  cpu-time:     0 d,  0 h,  0 min,  0.006 sec
 * ratio c/w:     0.000 speedup

