11
 energy: -119.089737803124 gnorm: 0.015340513277 xtb: 6.7.1 (41059b4)
C           -1.26065435475863        0.27209745382057       -0.00000236780000
C           -0.00000310640000       -0.58373016465867        0.00000180790000
C            1.26065586405863        0.27209080452057        0.00000158320000
H           -1.28811162667080        0.90896075050278        0.88171400679071
H           -1.28840822237093        0.90863981140264       -0.88194686189081
H           -2.15053267035296       -0.35331619965656        0.00025571920011
H           -0.00000975560000       -1.22864231724444        0.88168097509070
H           -0.00003950850002       -1.22867680894446       -0.88165422819068
H            1.28834369597090        0.90868848200266       -0.88185930539078
H            2.15052370245295       -0.35333509685657        0.00007196790003
H            1.28825341737086        0.90889661450276        0.88172553129072
11
 energy: -119.090123661960 gnorm: 0.004023570570 xtb: 6.7.1 (41059b4)
C           -1.26817648674070        0.26875361550587        0.00000709354895
C           -0.00000204423277       -0.58267669555970        0.00001226362468
C            1.26818246627846        0.26873429377999       -0.00002146661687
H           -1.30017881750522        0.91318940145899        0.88304511330177
H           -1.30040952529103        0.91287131941129       -0.88325521673873
H           -2.16899471053777       -0.34990855444307        0.00023489059342
H           -0.00000271468904       -1.23765830960968        0.87818647974305
H           -0.00001158606058       -1.23770329572770       -0.87812916640992
H            1.30034938516999        0.91292712231921       -0.88322363649889
H            2.16899175370936       -0.34994176793604        0.00006497932234
H            1.30026956220906        0.91308656628156        0.88306735552189
11
 energy: -119.090146336144 gnorm: 0.000727988541 xtb: 6.7.1 (41059b4)
C           -1.26807405300214        0.26875674533846        0.00000527850689
C           -0.00000275699046       -0.58379017818372        0.00001925021857
C            1.26808105935180        0.26873720506500       -0.00002604039387
H           -1.30376754776078        0.91553579683020        0.88356057181800
H           -1.30395979287223        0.91524177873552       -0.88375650392678
H           -2.17080852880982       -0.34975587159908        0.00020709357943
H            0.00000361640389       -1.24196578827304        0.87740508685475
H           -0.00001917473242       -1.24203028735369       -0.87731906470229
H            1.30390345655095        0.91529347992582       -0.88373906784364
H            2.17080576062587       -0.34979020456763        0.00005146130500
H            1.30385521718871        0.91544109562628        0.88358060308527
11
 energy: -119.090147056732 gnorm: 0.000290444123 xtb: 6.7.1 (41059b4)
C           -1.26873784529678        0.26837823532391        0.00000454440836
C           -0.00000341006843       -0.58225903693451        0.00002657597467
C            1.26874443239398        0.26835868741227       -0.00002971932882
H           -1.30481067067755        0.91508007237995        0.88358313965313
H           -1.30497032447163        0.91481145235395       -0.88376349823381
H           -2.17115869895822       -0.35064913542600        0.00018056214817
H            0.00000429719297       -1.24056675659899        0.87743893991086
H           -0.00002176783601       -1.24064877262814       -0.87732496067830
H            1.30492133627139        0.91485529437372       -0.88375374176452
H            2.17115567058939       -0.35068267212582        0.00003427468914
H            1.30489419725199        0.91499645133874        0.88359253410055
11
 energy: -119.090147056732 gnorm: 0.000290444123 xtb: 6.7.1 (41059b4)
C           -1.26873784529678        0.26837823532391        0.00000454440836
C           -0.00000341006843       -0.58225903693451        0.00002657597467
C            1.26874443239398        0.26835868741227       -0.00002971932882
H           -1.30481067067755        0.91508007237995        0.88358313965313
H           -1.30497032447163        0.91481145235395       -0.88376349823381
H           -2.17115869895822       -0.35064913542600        0.00018056214817
H            0.00000429719297       -1.24056675659899        0.87743893991086
H           -0.00002176783601       -1.24064877262814       -0.87732496067830
H            1.30492133627139        0.91485529437372       -0.88375374176452
H            2.17115567058939       -0.35068267212582        0.00003427468914
H            1.30489419725199        0.91499645133874        0.88359253410055
