
                                 *****************
                                 * O   R   C   A *
                                 *****************

                                            #,                                       
                                            ###                                      
                                            ####                                     
                                            #####                                    
                                            ######                                   
                                           ########,                                 
                                     ,,################,,,,,                         
                               ,,#################################,,                 
                          ,,##########################################,,             
                       ,#########################################, ''#####,          
                    ,#############################################,,   '####,        
                  ,##################################################,,,,####,       
                ,###########''''           ''''###############################       
              ,#####''   ,,,,##########,,,,          '''####'''          '####       
            ,##' ,,,,###########################,,,                        '##       
           ' ,,###''''                  '''############,,,                           
         ,,##''                                '''############,,,,        ,,,,,,###''
      ,#''                                            '''#######################'''  
     '                                                          ''''####''''         
             ,#######,   #######,   ,#######,      ##                                
            ,#'     '#,  ##    ##  ,#'     '#,    #''#        ,####,   ,####,        
            ##       ##  ##   ,#'  ##            #'  '#       #'       #'  '#        
            ##       ##  #######   ##           ,######,      #####,   #    #        
            '#,     ,#'  ##    ##  '#,     ,#' ,#      #,     #,   #   #,  ,#        
             '#######'   ##     ##  '#######'  #'      '#     '####' # '####'        



                #########################################################
                #                        -***-                          #
                #          Department of theory and spectroscopy        #
                #                                                       #
                #                      Frank Neese                      #
                #                                                       #
                #     Directorship, Architecture, Infrastructure        #
                #                    SHARK, DRIVERS                     #
                #        Core code/Algorithms in most modules           #
                #                                                       #
                #        Max Planck Institute fuer Kohlenforschung      #
                #                Kaiser Wilhelm Platz 1                 #
                #                 D-45470 Muelheim/Ruhr                 #
                #                      Germany                          #
                #                                                       #
                #                  All rights reserved                  #
                #                        -***-                          #
                #########################################################


                         Program Version 6.0.1  -  RELEASE   -


 With contributions from (in alphabetic order):
[Max-Planck-Institut fuer Kohlenforschung]                               
  Daniel Aravena         : Magnetic Suceptibility                        
  Michael Atanasov       : Ab Initio Ligand Field Theory (pilot matlab implementation)
  Alexander A. Auer      : GIAO ZORA, VPT2 properties, NMR spectrum      
  Ute Becker             : All parallelization in ORCA, NUMFREQ, NUMCALC 
  Giovanni Bistoni       : ED, misc. LED, open-shell LED, HFLD           
  Martin Brehm           : Molecular dynamics                            
  Dmytro Bykov           : pre 5.0 version of the SCF Hessian            
  Marcos Casanova-Páez   : Triplet and SCS-CIS(D). UHF-(DLPNO)-IP/EA/STEOM-CCSD. UHF-CVS-IP/STEOM-CCSD   
  Vijay G. Chilkuri      : MRCI spin determinant printing, contributions to CSF-ICE 
  Pauline Colinet        : FMM embedding                                 
  Dipayan Datta          : RHF DLPNO-CCSD density                        
  Achintya Kumar Dutta   : EOM-CC, STEOM-CC                              
  Nicolas Foglia         : Exact transition moments, OPA infrastructure, MCD improvements    
  Dmitry Ganyushin       : Spin-Orbit,Spin-Spin,Magnetic field MRCI      
  Miquel Garcia-Rates    : C-PCM and meta-GGA Hessian, CCSD/C-PCM, Gaussian charge scheme 
  Tiago L. C. Gouveia    : GS-ROHF, GS-ROCIS                             
  Yang Guo               : DLPNO-NEVPT2, F12-NEVPT2, CIM, IAO-localization        
  Andreas Hansen         : Spin unrestricted coupled pair/coupled cluster methods 
  Ingolf Harden          : AUTO-CI MPn and infrastructure                
  Benjamin Helmich-Paris : MC-RPA, TRAH-(SCF,CASSCF), AVAS, COSX integrals, SCF dyn. polar. 
  Lee Huntington         : MR-EOM, pCC                                   
  Robert Izsak           : Overlap fitted RIJCOSX, COSX-SCS-MP3, EOM     
  Riya Kayal             : Wick's Theorem for AUTO-CI, AUTO-CI UHF-CCSDT 
  Emily Kempfer          : AUTO-CI, RHF CISDT and CCSDT                  
  Christian Kollmar      : KDIIS, OOCD, Brueckner-CCSD(T), CCSD density, CASPT2, CASPT2-K, improved NEVPT2 
  Axel Koslowski         : Symmetry handling                             
  Simone Kossmann        : meta-GGA functionals, TD-DFT gradient, OOMP2, (MP2 Hessian; deprecated post 5.0) 
  Lucas Lang             : DCDCAS                                        
  Marvin Lechner         : AUTO-CI (C++ implementation), FIC-MRCC        
  Spencer Leger          : CASSCF response                               
  Dagmar Lenk            : GEPOL surface, SMD, ORCA-2-JSON               
  Dimitrios Liakos       : Extrapolation schemes; Compound Job, initial MDCI parallelization 
  Dimitrios Manganas     : Further ROCIS development; embedding schemes. LFT, Crystal Embedding 
  Dimitrios Pantazis     : SARC Basis sets                               
  Anastasios Papadopoulos: AUTO-CI, single reference methods and gradients 
  Taras Petrenko         : pre 6.0 DFT Hessian and TD-DFT gradient, (ASA, deprecated), ECA, 1-Electron XAS/XES, NRVS 
  Peter Pinski           : DLPNO-MP2, DLPNO-MP2 Gradient                 
  Christoph Reimann      : Effective Core Potentials                     
  Marius Retegan         : Local ZFS, SOC                                
  Christoph Riplinger    : Optimizer, TS searches, QM/MM, DLPNO-CCSD(T), (RO)-DLPNO pert. Triples 
  Michael Roemelt        : Original ROCIS implementation                 
  Masaaki Saitow         : Open-shell DLPNO-CCSD energy and density      
  Barbara Sandhoefer     : DKH picture change effects                    
  Kantharuban Sivalingam : CASSCF convergence/infrastructure, NEVPT2 and variants, FIC-MRCI 
  Bernardo de Souza      : ESD, SOC TD-DFT                               
  Georgi L. Stoychev     : AutoAux, RI-MP2 NMR, DLPNO-MP2 response, X2C  
  Van Anh Tran           : RI-MP2 g-tensors                              
  Willem Van den Heuvel  : Paramagnetic NMR                              
  Zikuan Wang            : NOTCH, Electric field optimization            
  Frank Wennmohs         : Technical directorship and infrastructure     
  Hang Xu                : AUTO-CI-Response properties                   
                                                                         
[FACCTs GmbH]                                                            
  Markus Bursch, Miquel Garcia-Rates, Christoph Riplinger, Bernardo de Souza, Georgi L. Stoychev 
                                                                 
  APM, Basis sets (HGBS, AHGBS, def-TZVP (Ac-Lr), def2-XVPD (La-Lu)), CI-OPT, improved COSX, DLPNO-Multilevel,           
  DOCKER, DRACO, updates on ESD, GOAT, IRC, LR-CPCM, MBIS, meta-GGA TD-DFT gradient, ML-optimized integration grids, 
  MM, NACMEs, nearIR, NEB, NEB-TS, NL-DFT gradient (VV10), 2- and 3-layer-ONIOM, interface openCOSMO-RS, QMMM,   
  Crystal-QMMM, SF, symmetry and pop. for TD-DFT, r2SCAN hybrids, SOLVATOR                                   
                                                                         
[Other institutions]                                                     
  V. Asgeirsson          : NEB                                           
  Christoph Bannwarth    : sTDA-DFT, sTD-DFT, PBEh-3c, B97-3c, D3        
  Sebastian Ehlert       : rSCAN, r2SCAN, r2SCAN-3c, D4, dhf basis sets  
  Marvin Friede          : D4 for Fr, Ra, Ac-Lr                          
  Lars Goerigk           : TD-DFT with DH, B97 family of functionals     
  Stefan Grimme          : VdW corrections, initial TS optimization, DFT functionals, gCP, sTDA/sTD-DF 
  Waldemar Hujo          : DFT-NL                                        
  H. Jonsson             : NEB                                           
  Holger Kruse           : gCP                                           
  Marcel Mueller         : wB97X-3c, vDZP basis set                      
  Hagen Neugebauer       : wr2SCAN                                       
  Tobias Risthaus        : range-separated hybrid DFT                    
  Lukas Wittmann         : regularized MP2, r2SCAN double-hybrids, wr2SCAN        
                                                                         
We gratefully acknowledge several colleagues who have allowed us to      
interface, adapt or use parts of their codes:                            
  Ed Valeev, F. Pavosevic, A. Kumar             : LibInt (2-el integral package), F12 methods 
  Garnet Chan, S. Sharma, J. Yang, R. Olivares  : DMRG                   
  Ulf Ekstrom                                   : XCFun DFT Library      
  Mihaly Kallay                                 : mrcc  (arbitrary order and MRCC methods)
  Frank Weinhold                                : gennbo (NPA and NBO analysis)           
  Simon Mueller                                 : openCOSMO-RS                            
  Christopher J. Cramer and Donald G. Truhlar   : smd solvation model                     
  S Lehtola, MJT Oliveira, MAL Marques          : LibXC Library                           
  Liviu Ungur et al                             : ANISO software                          


 Your calculation uses the libint2 library for the computation of 2-el integrals
 For citations please refer to: http://libint.valeyev.net

 Your ORCA version has been built with support for libXC version: 6.2.2
 For citations please refer to: https://libxc.gitlab.io

 This ORCA versions uses:
   CBLAS   interface :  Fast vector & matrix operations
   LAPACKE interface :  Fast linear algebra routines
   SCALAPACK package :  Parallel linear algebra routines
   Shared memory     :  Shared parallel matrices
   BLAS/LAPACK       :  OpenBLAS 0.3.27  USE64BITINT DYNAMIC_ARCH NO_AFFINITY Zen SINGLE_THREADED
        Core in use  :  Zen
   Copyright (c) 2011-2014, The OpenBLAS Project


Your calculation utilizes the geometrical counterpoise correction gCP
Please cite in your paper:
H.Kruse, S. Grimme J.Chem.Phys., 136, (2012), 154101 
   

Your calculation utilizes the atom-pairwise dispersion correction
based on EEQ partial charges (D4)


================================================================================

----- Orbital basis set information -----
Your calculation utilizes the basis: def2-mTZVPP
   Stefan Grimme, Andreas Hansen, Sebastian Ehlert, and Jan-Michael Mewes 
   J. Chem. Phys. 154, 064103 (2021). DOI: 10.1063/5.0040021

----- AuxJ basis set information -----
Your calculation utilizes the auxiliary basis: def2/J
   F. Weigend, Phys. Chem. Chem. Phys. 8, 1057 (2006).

================================================================================
                                        WARNINGS
                       Please study these warnings very carefully!
================================================================================

WARNING: Old DensityContainer found on disk!
         Will remove this file - 
         If you want to keep old densities, please start your calculation with a different basename. 



WARNING: SCAN, rSCAN, or r2SCAN functional requested.
  ===> : libXC variant has now been activated.



================================================================================
                                       INPUT FILE
================================================================================
NAME = sp.inp
|  1> ! r2scan-3c def2/J RI DEFGRID2 scfconv6 printgap
|  2> %output
|  3>     printlevel normal
|  4> end
|  5> * xyz 0 1
|  6> C -0.7838632352 1.24322e-05 0.6681746378
|  7> C 0.5939752289 -0.0002113482 0.0190974166
|  8> Cl 1.4841107427 -1.4428712193 0.5477928185
|  9> Cl 1.4845613814 1.4421446055 0.5485162351
| 10> Cl 0.4640582795 0.000462553 -1.7434057454
| 11> Cl -1.6740445201 1.4514221195 0.1821744682
| 12> Cl -1.674602977 -1.4510949153 0.1821106128
| 13> H -0.6947578551 0.0001493764 1.7578087031
| 14> *
| 15> 
| 16>                          ****END OF INPUT****
================================================================================

                       ****************************
                       * Single Point Calculation *
                       ****************************

---------------------------------
CARTESIAN COORDINATES (ANGSTROEM)
---------------------------------
  C     -0.783863    0.000012    0.668175
  C      0.593975   -0.000211    0.019097
  Cl     1.484111   -1.442871    0.547793
  Cl     1.484561    1.442145    0.548516
  Cl     0.464058    0.000463   -1.743406
  Cl    -1.674045    1.451422    0.182174
  Cl    -1.674603   -1.451095    0.182111
  H     -0.694758    0.000149    1.757809

----------------------------
CARTESIAN COORDINATES (A.U.)
----------------------------
  NO LB      ZA    FRAG     MASS         X           Y           Z
   0 C     6.0000    0    12.011   -1.481287    0.000023    1.262667
   1 C     6.0000    0    12.011    1.122451   -0.000399    0.036089
   2 Cl   17.0000    0    35.453    2.804563   -2.726631    1.035178
   3 Cl   17.0000    0    35.453    2.805414    2.725258    1.036545
   4 Cl   17.0000    0    35.453    0.876943    0.000874   -3.294559
   5 Cl   17.0000    0    35.453   -3.163486    2.742790    0.344260
   6 Cl   17.0000    0    35.453   -3.164541   -2.742172    0.344139
   7 H     1.0000    0     1.008   -1.312902    0.000282    3.321777

--------------------------------
INTERNAL COORDINATES (ANGSTROEM)
--------------------------------
 C      0   0   0     0.000000000000     0.00000000     0.00000000
 C      1   0   0     1.523069309753     0.00000000     0.00000000
 Cl     2   1   0     1.775704807844   109.06982186     0.00000000
 Cl     2   1   3     1.775899399623   109.05657441   241.49102240
 Cl     2   1   3     1.767284997940   111.00861440   120.75856578
 Cl     1   2   3     1.770652129930   109.75218081   178.70531696
 Cl     1   2   3     1.770702701751   109.75336499   299.81983188
 H      1   2   3     1.093271322124   110.54937131    59.27257979

---------------------------
INTERNAL COORDINATES (A.U.)
---------------------------
 C      0   0   0     0.000000000000     0.00000000     0.00000000
 C      1   0   0     2.878183878414     0.00000000     0.00000000
 Cl     2   1   0     3.355595781513   109.06982186     0.00000000
 Cl     2   1   3     3.355963506682   109.05657441   241.49102240
 Cl     2   1   3     3.339684646694   111.00861440   120.75856578
 Cl     1   2   3     3.346047604012   109.75218081   178.70531696
 Cl     1   2   3     3.346143170905   109.75336499   299.81983188
 H      1   2   3     2.065983388884   110.54937131    59.27257979

---------------------
BASIS SET INFORMATION
---------------------
There are 3 groups of distinct atoms

 Group   1 Type C   : 11s6p1d contracted to 5s3p1d pattern {62111/411/1}
 Group   2 Type Cl  : 14s9p2d contracted to 5s4p2d pattern {73211/6111/11}
 Group   3 Type H   : 4s1p contracted to 2s1p pattern {31/1}

Atom   0C    basis set group =>   1
Atom   1C    basis set group =>   1
Atom   2Cl   basis set group =>   2
Atom   3Cl   basis set group =>   2
Atom   4Cl   basis set group =>   2
Atom   5Cl   basis set group =>   2
Atom   6Cl   basis set group =>   2
Atom   7H    basis set group =>   3
---------------------------------
AUXILIARY/J BASIS SET INFORMATION
---------------------------------
There are 3 groups of distinct atoms

 Group   1 Type C   : 12s5p4d2f1g contracted to 6s4p3d1f1g pattern {711111/2111/211/2/1}
 Group   2 Type Cl  : 14s5p5d2f1g contracted to 8s4p3d1f1g pattern {71111111/2111/311/2/1}
 Group   3 Type H   : 5s2p1d contracted to 3s1p1d pattern {311/2/1}

Atom   0C    basis set group =>   1
Atom   1C    basis set group =>   1
Atom   2Cl   basis set group =>   2
Atom   3Cl   basis set group =>   2
Atom   4Cl   basis set group =>   2
Atom   5Cl   basis set group =>   2
Atom   6Cl   basis set group =>   2
Atom   7H    basis set group =>   3

Checking for AutoStart:
The File: sp.gbw exists
Trying to determine its content:
     ... Fine, the file contains calculation information
     ... Fine, the calculation information was read
     ... Fine, the file contains a basis set
     ... Fine, the basis set was read
     ... Fine, the file contains a geometry
     ... Fine, the geometry was read
     ... Fine, the file contains a set of orbitals
     ... Fine, the orbitals can be read
     => possible old guess file was deleted
     => GBW file was renamed to GES file
     => GES file is set as startup file
     => Guess is set to MORead
     ... now leaving AutoStart

------------------------------------------------------------------------------
                             ORCA STARTUP CALCULATIONS
                           -- RI-GTO INTEGRALS CHOSEN --
------------------------------------------------------------------------------
------------------------------------------------------------------------------
                   ___                                                        
                  /   \      - P O W E R E D   B Y -                         
                 /     \                                                     
                 |  |  |   _    _      __       _____    __    __             
                 |  |  |  | |  | |    /  \     |  _  \  |  |  /  |          
                  \  \/   | |  | |   /    \    | | | |  |  | /  /          
                 / \  \   | |__| |  /  /\  \   | |_| |  |  |/  /          
                |  |  |   |  __  | /  /__\  \  |    /   |      \           
                |  |  |   | |  | | |   __   |  |    \   |  |\   \          
                \     /   | |  | | |  |  |  |  | |\  \  |  | \   \       
                 \___/    |_|  |_| |__|  |__|  |_| \__\ |__|  \__/        
                                                                              
                      - O R C A' S   B I G   F R I E N D -                    
                                      &                                       
                       - I N T E G R A L  F E E D E R -                       
                                                                              
 v1 FN, 2020, v2 2021, v3 2022-2024                                           
------------------------------------------------------------------------------


----------------------
SHARK INTEGRAL PACKAGE
----------------------

Number of atoms                             ...      8
Number of basis functions                   ...    178
Number of shells                            ...     76
Maximum angular momentum                    ...      2
Integral batch strategy                     ... SHARK/LIBINT Hybrid
RI-J (if used) integral strategy            ... SPLIT-RIJ (Revised 2003 algorithm where possible)
Printlevel                                  ...      1
Contraction scheme used                     ... SEGMENTED contraction
Prescreening option                         ... SCHWARTZ
   Thresh                                   ... 1.000e-10
   Tcut                                     ... 1.000e-11
   Tpresel                                  ... 1.000e-11 
Coulomb Range Separation                    ... NOT USED
Exchange Range Separation                   ... NOT USED
Multipole approximations                    ... NOT USED
Finite Nucleus Model                        ... NOT USED
CABS basis                                  ... NOT available
Auxiliary Coulomb fitting basis             ... AVAILABLE
   # of basis functions in Aux-J            ...    364
   # of shells in Aux-J                     ...    120
   Maximum angular momentum in Aux-J        ...      4
Auxiliary J/K fitting basis                 ... NOT available
Auxiliary Correlation fitting basis         ... NOT available
Auxiliary 'external' fitting basis          ... NOT available

Checking pre-screening integrals            ... done (  0.0 sec) Dimension = 76
Check shell pair data                       ... done (  0.0 sec)
Shell pair information
Shell pair cut-off parameter TPreSel        ...   1.0e-11
Total number of shell pairs                 ...      2926
Shell pairs after pre-screening             ...      2606
Total number of primitive shell pairs       ...     14108
Primitive shell pairs kept                  ...      8258
          la=0 lb=0:    553 shell pairs
          la=1 lb=0:    874 shell pairs
          la=1 lb=1:    357 shell pairs
          la=2 lb=0:    424 shell pairs
          la=2 lb=1:    320 shell pairs
          la=2 lb=2:     78 shell pairs

Calculating one electron integrals          ... done (  0.0 sec)
Calculating RI/J V-Matrix + Cholesky decomp.... done (  0.0 sec)
Calculating Nuclear repulsion               ... done (  0.0 sec) ENN=    759.155573498066 Eh

Diagonalization of the overlap matrix:
Smallest eigenvalue                        ... 4.832e-04
Time for diagonalization                   ...    0.002 sec
Threshold for overlap eigenvalues          ... 1.000e-07
Number of eigenvalues below threshold      ... 0
Time for construction of square roots      ...    0.001 sec
Total time needed                          ...    0.004 sec

-------------------
DFT GRID GENERATION
-------------------

General Integration Accuracy     IntAcc      ... 4.388
Radial Grid Type                 RadialGrid  ... OptM3 with GC (2021)
Angular Grid (max. ang.)         AngularGrid ... 4 (Lebedev-302)
Angular grid pruning method      GridPruning ... 4 (adaptive)
Weight generation scheme         WeightScheme... mBecke (2022)
Basis function cutoff            BFCut       ... 1.0000e-10
Integration weight cutoff        WCut        ... 1.0000e-14
Partially contracted basis set               ... off
Rotationally invariant grid construction     ... off
Angular grids for H and He will be reduced by one unit

Total number of grid points                  ...    51943
Total number of batches                      ...      817
Average number of points per batch           ...       63
Average number of grid points per atom       ...     6493
Initializing property integral containers    ... done (  0.0 sec)

SHARK setup successfully completed in   0.3 seconds

Maximum memory used throughout the entire STARTUP-calculation: 25.7 MB
-------------------------------------------------------------------------------
                                 ORCA GUESS
                   Start orbitals & Density for SCF / CASSCF
-------------------------------------------------------------------------------

------------
SCF SETTINGS
------------
Hamiltonian:
 Density Functional     Method          .... DFT(GTOs)
  Functional kind                       .... Exchange
  Functional name                       .... Re-regularized SCAN exchange by Furness et al
  Functional family                     .... MGGA
  Functional refs                              
    [ 0] J. W. Furness, A. D. Kaplan, J. Ning, J. P. Perdew, and J. Sun.,  J. Phys. Chem. Lett. 11, 8208-8215 (2020), doi: 10.1021/acs.jpclett.0c02405
    [ 1] J. W. Furness, A. D. Kaplan, J. Ning, J. P. Perdew, and J. Sun.,  J. Phys. Chem. Lett. 11, 9248-9248 (2020), doi: 10.1021/acs.jpclett.0c03077
  Functional external parameters        .... 6
    Parameter  0 _c1        =  6.670000e-01 : c1 parameter        
    Parameter  1 _c2        =  8.000000e-01 : c2 parameter        
    Parameter  2 _d         =  1.240000e+00 : d parameter         
    Parameter  3 _k1        =  6.500000e-02 : k1 parameter        
    Parameter  4 _eta       =  1.000000e-03 : eta parameter       
    Parameter  5 _dp2       =  3.610000e-01 : dp2 parameter       
  Functional kind                       .... Correlation
  Functional name                       .... Re-regularized SCAN correlation by Furness et al
  Functional family                     .... MGGA
  Functional refs                              
    [ 0] J. W. Furness, A. D. Kaplan, J. Ning, J. P. Perdew, and J. Sun.,  J. Phys. Chem. Lett. 11, 8208-8215 (2020), doi: 10.1021/acs.jpclett.0c02405
    [ 1] J. W. Furness, A. D. Kaplan, J. Ning, J. P. Perdew, and J. Sun.,  J. Phys. Chem. Lett. 11, 9248-9248 (2020), doi: 10.1021/acs.jpclett.0c03077
  Functional external parameters        .... 1
    Parameter  0 _eta       =  1.000000e-03 : Regularization parameter
 Gradients option       PostSCFGGA      .... off
 RI-approximation to the Coulomb term is turned on
   Number of AuxJ basis functions       .... 364


General Settings:
 Integral files         IntName         .... sp
 Hartree-Fock type      HFTyp           .... RHF
 Total Charge           Charge          ....    0
 Multiplicity           Mult            ....    1
 Number of Electrons    NEL             ....   98
 Basis Dimension        Dim             ....  178
 Nuclear Repulsion      ENuc            ....    759.1555734981 Eh

Convergence Acceleration:
 AO-DIIS                CNVDIIS         .... on
   Start iteration      DIISMaxIt       ....    12
   Startup error        DIISStart       ....  0.200000
   # of expansion vecs  DIISMaxEq       ....     5
   Bias factor          DIISBfac        ....   1.050
   Max. coefficient     DIISMaxC        ....  10.000
 MO-DIIS                CNVKDIIS        .... off
 Trust-Rad. Augm. Hess. CNVTRAH         .... auto
   Auto Start mean grad. ratio tolernc. ....  1.125000
   Auto Start start iteration           ....     1
   Auto Start num. interpolation iter.  ....    10
   Max. Number of Micro iterations      ....    24
   Max. Number of Macro iterations      .... Maxiter - #DIIS iter
   Number of Davidson start vectors     ....     2
   Converg. threshold    (grad. norm)   ....   3.330e-04
   Grad. Scal. Fac. for Micro threshold ....   0.100
   Minimum threshold for Micro iter.    ....   1.000e-02
   NR start threshold (gradient norm)   ....   1.000e-04
   Initial trust radius                 ....   0.400
   Minimum AH scaling param. (alpha)    ....   1.000
   Maximum AH scaling param. (alpha)    .... 1000.000
   Quad. conv. algorithm                .... NR
   White noise on init. David. guess    .... on
   Maximum white noise                  ....   0.010
   Pseudo random numbers                .... off
   Inactive MOs                         .... canonical
   Orbital update algorithm             .... Taylor
   Preconditioner                       .... Diag
   Full preconditioner red. dimension   ....   250
   COSX micro iterations for RIJONX calc.... off
 SOSCF                  CNVSOSCF        .... on
   Start iteration      SOSCFMaxIt      ....   150
   Startup grad/error   SOSCFStart      ....  0.003300
   Hessian update       SOSCFHessUp     .... L-BFGS
 Level Shifting         CNVShift        .... on
   Level shift para.    LevelShift      ....    0.2500
   Turn off err/grad.   ShiftErr        ....    0.0010
 Zerner damping         CNVZerner       .... off
 Static damping         CNVDamp         .... on
   Fraction old density DampFac         ....    0.7000
   Max. Damping (<1)    DampMax         ....    0.9800
   Min. Damping (>=0)   DampMin         ....    0.0000
   Turn off err/grad.   DampErr         ....    0.1000

SCF Procedure:
 Maximum # iterations   MaxIter         ....   125
 SCF integral mode      SCFMode         .... Direct
   Integral package                     .... SHARK and LIBINT hybrid scheme
 Reset frequency        DirectResetFreq ....    20
 Integral Threshold     Thresh          ....  1.000e-10 Eh
 Primitive CutOff       TCut            ....  1.000e-11 Eh

Convergence Tolerance:
 Convergence Check Mode ConvCheckMode   .... Total+1el-Energy
 Convergence forced     ConvForced      .... 0
 Energy Change          TolE            ....  1.000e-06 Eh
 1-El. energy change                    ....  1.000e-03 Eh
 Orbital Gradient       TolG            ....  3.330e-04
 Orbital Rotation angle TolX            ....  3.330e-04
 DIIS Error             TolErr          ....  1.000e-06

---------------------
INITIAL GUESS: MOREAD
---------------------
Guess MOs are being read from file: sp.ges
Input Geometry matches current geometry (good)
Atom 0: N(Shells)= 9 and 6 - projection required
Input basis set needs projection
NBasis(read)= 120
NBasis(calc)= 178
Basis set overlap was calculated
Using GuessMode=FMatrix for the initial guess
C*T matrix was formed
Effective Fockian was calculated
Effective Fockian was diagonalized
Initial density was built
                      ------------------
                      INITIAL GUESS DONE (   0.0 sec)
                      ------------------
             **** ENERGY FILE WAS UPDATED (sp.en.tmp) ****
Finished Guess after   0.0 sec
Maximum memory used throughout the entire GUESS-calculation: 12.9 MB

-------------------------------------------------------------------------------------------
                                      ORCA LEAN-SCF
                              memory conserving SCF solver
-------------------------------------------------------------------------------------------

----------------------------------------D-I-I-S--------------------------------------------
Iteration    Energy (Eh)           Delta-E    RMSDP     MaxDP     DIISErr   Damp  Time(sec)
-------------------------------------------------------------------------------------------
               ***  Starting incremental Fock matrix formation  ***
    1    -2377.5108938476141702     0.00e+00  2.70e-03  5.64e-02  5.38e-01  0.700   0.7
    2    -2377.5576728390769858    -4.68e-02  2.23e-03  3.92e-02  3.77e-01  0.700   0.6
    3    -2377.5907375509527810    -3.31e-02  1.65e-03  2.77e-02  2.64e-01  0.700   0.6
                               ***Turning on AO-DIIS***
    4    -2377.6139344575713039    -2.32e-02  1.21e-03  2.05e-02  1.85e-01  0.700   0.6
    5    -2377.6301950147926618    -1.63e-02  8.59e-04  1.47e-02  1.29e-01  0.700   0.6
    6    -2377.6415952641241347    -1.14e-02  6.06e-04  1.04e-02  9.05e-02  0.700   0.6
    7    -2377.6495850970145511    -7.99e-03  1.42e-03  2.45e-02  6.34e-02  0.000   0.6
                              *** Initializing SOSCF ***
---------------------------------------S-O-S-C-F--------------------------------------
Iteration    Energy (Eh)           Delta-E    RMSDP     MaxDP     MaxGrad    Time(sec)
--------------------------------------------------------------------------------------
    8    -2377.6682533005227924    -1.87e-02  7.97e-06  1.59e-04  1.40e-04     0.6
               *** Restarting incremental Fock matrix formation ***
    9    -2377.6682535034715329    -2.03e-07  3.98e-06  1.07e-04  3.36e-05     0.7
                  *** Gradient check signals convergence ***

               *****************************************************
               *                     SUCCESS                       *
               *           SCF CONVERGED AFTER   9 CYCLES          *
               *****************************************************

             **** ENERGY FILE WAS UPDATED (sp.en.tmp) ****

----------------
TOTAL SCF ENERGY
----------------

Total Energy       :      -2377.66825350347153 Eh          -64699.64244 eV

Components:
Nuclear Repulsion  :        759.15557349806647 Eh           20657.67337 eV
Electronic Energy  :      -3136.82382700153812 Eh          -85357.31581 eV
One Electron Energy:      -4793.27664495052068 Eh         -130431.68853 eV
Two Electron Energy:       1656.45281794898256 Eh           45074.37271 eV

Virial components:
Potential Energy   :      -4749.84237899963045 Eh         -129249.78206 eV
Kinetic Energy     :       2372.17412549615847 Eh           64550.13962 eV
Virial Ratio       :          2.00231607281618

DFT components:
N(Alpha)           :       48.999999417156 electrons
N(Beta)            :       48.999999417156 electrons
N(Total)           :       97.999998834311 electrons
E(X)               :     -148.508851473019 Eh       
E(C)               :       -3.761897690500 Eh       
E(XC)              :     -152.270749163518 Eh       

---------------
SCF CONVERGENCE
---------------

  Last Energy change         ...    2.0295e-07  Tolerance :   1.0000e-06
  Last MAX-Density change    ...    1.0747e-04  Tolerance :   1.0000e-05
  Last RMS-Density change    ...    3.9801e-06  Tolerance :   1.0000e-06
  Last DIIS Error            ...    1.4003e-04  Tolerance :   1.0000e-06
  Last Orbital Gradient      ...    3.3619e-05  Tolerance :   3.3300e-04
  Last Orbital Rotation      ...    4.6610e-05  Tolerance :   3.3300e-04


----------------
ORBITAL ENERGIES
----------------

  NO   OCC          E(Eh)            E(eV) 
   0   2.0000    -101.250754     -2755.1731 
   1   2.0000    -101.250721     -2755.1722 
   2   2.0000    -101.247072     -2755.0729 
   3   2.0000    -101.242210     -2754.9406 
   4   2.0000    -101.242202     -2754.9404 
   5   2.0000     -10.249822      -278.9118 
   6   2.0000     -10.199023      -277.5295 
   7   2.0000      -9.406772      -255.9713 
   8   2.0000      -9.406737      -255.9703 
   9   2.0000      -9.403126      -255.8721 
  10   2.0000      -9.398234      -255.7390 
  11   2.0000      -9.398227      -255.7388 
  12   2.0000      -7.153924      -194.6682 
  13   2.0000      -7.153889      -194.6672 
  14   2.0000      -7.150332      -194.5704 
  15   2.0000      -7.145248      -194.4321 
  16   2.0000      -7.145242      -194.4319 
  17   2.0000      -7.142459      -194.3562 
  18   2.0000      -7.142424      -194.3552 
  19   2.0000      -7.142200      -194.3491 
  20   2.0000      -7.142165      -194.3482 
  21   2.0000      -7.138648      -194.2525 
  22   2.0000      -7.138641      -194.2523 
  23   2.0000      -7.133931      -194.1241 
  24   2.0000      -7.133925      -194.1240 
  25   2.0000      -7.133771      -194.1198 
  26   2.0000      -7.133765      -194.1196 
  27   2.0000      -0.953309       -25.9409 
  28   2.0000      -0.878043       -23.8928 
  29   2.0000      -0.826104       -22.4794 
  30   2.0000      -0.817910       -22.2565 
  31   2.0000      -0.801922       -21.8214 
  32   2.0000      -0.693232       -18.8638 
  33   2.0000      -0.585251       -15.9255 
  34   2.0000      -0.508649       -13.8410 
  35   2.0000      -0.489402       -13.3173 
  36   2.0000      -0.486111       -13.2278 
  37   2.0000      -0.440737       -11.9931 
  38   2.0000      -0.430152       -11.7050 
  39   2.0000      -0.347397        -9.4531 
  40   2.0000      -0.343735        -9.3535 
  41   2.0000      -0.327788        -8.9196 
  42   2.0000      -0.323995        -8.8164 
  43   2.0000      -0.319461        -8.6930 
  44   2.0000      -0.311771        -8.4837 
  45   2.0000      -0.307710        -8.3732 
  46   2.0000      -0.295510        -8.0412 
  47   2.0000      -0.291275        -7.9260 
  48   2.0000      -0.281758        -7.6670 
  49   0.0000      -0.070734        -1.9248 
  50   0.0000      -0.058224        -1.5844 
  51   0.0000      -0.057772        -1.5721 
  52   0.0000      -0.014028        -0.3817 
  53   0.0000       0.016540         0.4501 
  54   0.0000       0.074459         2.0261 
  55   0.0000       0.089295         2.4298 
  56   0.0000       0.146250         3.9797 
  57   0.0000       0.179534         4.8854 
  58   0.0000       0.181488         4.9385 
  59   0.0000       0.212334         5.7779 
*Only the first 10 virtual orbitals were printed.

                    ********************************
                    * MULLIKEN POPULATION ANALYSIS *
                    ********************************

-----------------------
MULLIKEN ATOMIC CHARGES
-----------------------
   0 C :   -0.061302
   1 C :    0.181340
   2 Cl:   -0.059054
   3 Cl:   -0.059224
   4 Cl:   -0.053400
   5 Cl:   -0.084815
   6 Cl:   -0.084835
   7 H :    0.221289
Sum of atomic charges:   -0.0000000

--------------------------------
MULLIKEN REDUCED ORBITAL CHARGES
--------------------------------
  0 C s       :     3.218096  s :     3.218096
      pz      :     1.098964  p :     2.784723
      px      :     0.891188
      py      :     0.794571
      dz2     :     0.012555  d :     0.058482
      dxz     :     0.008481
      dyz     :     0.008597
      dx2y2   :     0.014846
      dxy     :     0.014003

  1 C s       :     3.101855  s :     3.101855
      pz      :     0.847679  p :     2.642283
      px      :     0.965150
      py      :     0.829454
      dz2     :     0.017653  d :     0.074522
      dxz     :     0.013803
      dyz     :     0.013490
      dx2y2   :     0.014874
      dxy     :     0.014702

  2 Cls       :     5.966055  s :     5.966055
      pz      :     3.864511  p :    11.043793
      px      :     3.743373
      py      :     3.435909
      dz2     :     0.008926  d :     0.049206
      dxz     :     0.004558
      dyz     :     0.008477
      dx2y2   :     0.011583
      dxy     :     0.015661

  3 Cls       :     5.966083  s :     5.966083
      pz      :     3.864400  p :    11.043948
      px      :     3.743257
      py      :     3.436291
      dz2     :     0.008927  d :     0.049193
      dxz     :     0.004563
      dyz     :     0.008473
      dx2y2   :     0.011575
      dxy     :     0.015655

  4 Cls       :     5.969631  s :     5.969631
      pz      :     3.178840  p :    11.033703
      px      :     3.921270
      py      :     3.933593
      dz2     :     0.023131  d :     0.050065
      dxz     :     0.010102
      dyz     :     0.011485
      dx2y2   :     0.001486
      dxy     :     0.003862

  5 Cls       :     5.963528  s :     5.963528
      pz      :     3.884422  p :    11.072452
      px      :     3.750364
      py      :     3.437665
      dz2     :     0.008004  d :     0.048835
      dxz     :     0.004810
      dyz     :     0.007994
      dx2y2   :     0.011883
      dxy     :     0.016144

  6 Cls       :     5.963535  s :     5.963535
      pz      :     3.884389  p :    11.072476
      px      :     3.750154
      py      :     3.437933
      dz2     :     0.008001  d :     0.048824
      dxz     :     0.004811
      dyz     :     0.007989
      dx2y2   :     0.011879
      dxy     :     0.016145

  7 H s       :     0.760840  s :     0.760840
      pz      :     0.012688  p :     0.017870
      px      :     0.002650
      py      :     0.002533


------------------------
MULLIKEN OVERLAP CHARGES
------------------------
B(  0-C ,  1-C ) :   0.5941 B(  0-C ,  2-Cl) :  -0.0783 B(  0-C ,  3-Cl) :  -0.0783 
B(  0-C ,  4-Cl) :  -0.0791 B(  0-C ,  5-Cl) :   0.5554 B(  0-C ,  6-Cl) :   0.5553 
B(  0-C ,  7-H ) :   0.8445 B(  1-C ,  2-Cl) :   0.5852 B(  1-C ,  3-Cl) :   0.5851 
B(  1-C ,  4-Cl) :   0.6378 B(  1-C ,  5-Cl) :  -0.0674 B(  1-C ,  6-Cl) :  -0.0674 
B(  1-C ,  7-H ) :  -0.0802 B(  2-Cl,  3-Cl) :  -0.1804 B(  2-Cl,  4-Cl) :  -0.1747 
B(  3-Cl,  4-Cl) :  -0.1748 B(  5-Cl,  6-Cl) :  -0.1552 B(  5-Cl,  7-H ) :  -0.0930 
B(  6-Cl,  7-H ) :  -0.0930 


                     *******************************
                     * LOEWDIN POPULATION ANALYSIS *
                     *******************************

----------------------
LOEWDIN ATOMIC CHARGES
----------------------
   0 C :   -0.386522
   1 C :   -0.442750
   2 Cl:    0.138367
   3 Cl:    0.138191
   4 Cl:    0.145114
   5 Cl:    0.111172
   6 Cl:    0.111155
   7 H :    0.185273

-------------------------------
LOEWDIN REDUCED ORBITAL CHARGES
-------------------------------
  0 C s       :     3.021215  s :     3.021215
      pz      :     1.157149  p :     3.238916
      px      :     1.054931
      py      :     1.026836
      dz2     :     0.029035  d :     0.126391
      dxz     :     0.018006
      dyz     :     0.016620
      dx2y2   :     0.032181
      dxy     :     0.030548

  1 C s       :     3.027669  s :     3.027669
      pz      :     1.079170  p :     3.259450
      px      :     1.114375
      py      :     1.065906
      dz2     :     0.039641  d :     0.155631
      dxz     :     0.027712
      dyz     :     0.025461
      dx2y2   :     0.031303
      dxy     :     0.031514

  2 Cls       :     5.683508  s :     5.683508
      pz      :     3.850277  p :    11.062298
      px      :     3.736975
      py      :     3.475045
      dz2     :     0.019141  d :     0.115827
      dxz     :     0.010253
      dyz     :     0.020975
      dx2y2   :     0.026626
      dxy     :     0.038833

  3 Cls       :     5.683605  s :     5.683605
      pz      :     3.850184  p :    11.062412
      px      :     3.736872
      py      :     3.475355
      dz2     :     0.019136  d :     0.115792
      dxz     :     0.010267
      dyz     :     0.020971
      dx2y2   :     0.026599
      dxy     :     0.038819

  4 Cls       :     5.678551  s :     5.678551
      pz      :     3.245652  p :    11.058302
      px      :     3.902504
      py      :     3.910147
      dz2     :     0.064215  d :     0.118033
      dxz     :     0.021834
      dyz     :     0.022760
      dx2y2   :     0.002425
      dxy     :     0.006800

  5 Cls       :     5.684474  s :     5.684474
      pz      :     3.882935  p :    11.091221
      px      :     3.737319
      py      :     3.470967
      dz2     :     0.018146  d :     0.113132
      dxz     :     0.011265
      dyz     :     0.019681
      dx2y2   :     0.026113
      dxy     :     0.037928

  6 Cls       :     5.684500  s :     5.684500
      pz      :     3.882915  p :    11.091237
      px      :     3.737129
      py      :     3.471192
      dz2     :     0.018141  d :     0.113108
      dxz     :     0.011266
      dyz     :     0.019668
      dx2y2   :     0.026096
      dxy     :     0.037937

  7 H s       :     0.767674  s :     0.767674
      pz      :     0.034070  p :     0.047053
      px      :     0.006672
      py      :     0.006311


---------------------------------
LOEWDIN BOND ORDERS (THRESH 0.050000)
---------------------------------
B(  0-C ,  1-C ) :   1.0327 B(  0-C ,  2-Cl) :   0.1271 B(  0-C ,  3-Cl) :   0.1272 
B(  0-C ,  4-Cl) :   0.1171 B(  0-C ,  5-Cl) :   1.3640 B(  0-C ,  6-Cl) :   1.3639 
B(  0-C ,  7-H ) :   0.8464 B(  1-C ,  2-Cl) :   1.3449 B(  1-C ,  3-Cl) :   1.3446 
B(  1-C ,  4-Cl) :   1.3605 B(  1-C ,  5-Cl) :   0.1234 B(  1-C ,  6-Cl) :   0.1234 
B(  2-Cl,  3-Cl) :   0.1623 B(  2-Cl,  4-Cl) :   0.1626 B(  3-Cl,  4-Cl) :   0.1627 
B(  5-Cl,  6-Cl) :   0.1651 

------------------------------------------
LOEWDIN REDUCED ORBITAL POPULATIONS PER MO
-------------------------------------------
THRESHOLD FOR PRINTING IS 0.1%%
                      0         1         2         3         4         5   
                 -101.25075 -101.25072 -101.24707 -101.24221 -101.24220 -10.24982
                   2.00000   2.00000   2.00000   2.00000   2.00000   2.00000
                  --------  --------  --------  --------  --------  --------
 1 C  s               0.0       0.0       0.0       0.0       0.0      99.6
 2 Cl s              99.9       0.1       0.0       0.0       0.0       0.0
 3 Cl s               0.1      99.9       0.0       0.0       0.0       0.0
 4 Cl s               0.0       0.0     100.0       0.0       0.0       0.0
 5 Cl s               0.0       0.0       0.0       5.8      94.2       0.0
 6 Cl s               0.0       0.0       0.0      94.2       5.8       0.0

                      6         7         8         9        10        11   
                 -10.19902  -9.40677  -9.40674  -9.40313  -9.39823  -9.39823
                   2.00000   2.00000   2.00000   2.00000   2.00000   2.00000
                  --------  --------  --------  --------  --------  --------
 0 C  s              99.7       0.0       0.0       0.0       0.0       0.0
 0 C  py              0.0       0.0       0.0       0.0       0.0       0.2
 1 C  pz              0.0       0.0       0.0       0.1       0.0       0.0
 2 Cl s               0.0      99.8       0.0       0.0       0.0       0.0
 3 Cl s               0.0       0.0      99.8       0.0       0.0       0.0
 4 Cl s               0.0       0.0       0.0      99.8       0.0       0.0
 5 Cl s               0.0       0.0       0.0       0.0       8.1      91.7
 6 Cl s               0.0       0.0       0.0       0.0      91.7       8.1

                     12        13        14        15        16        17   
                  -7.15392  -7.15389  -7.15033  -7.14525  -7.14524  -7.14246
                   2.00000   2.00000   2.00000   2.00000   2.00000   2.00000
                  --------  --------  --------  --------  --------  --------
 2 Cl pz              9.0       0.0       0.0       0.0       0.0      81.9
 2 Cl px             25.5       0.0       0.0       0.0       0.0      17.5
 2 Cl py             65.4       0.0       0.0       0.0       0.0       0.6
 3 Cl pz              0.0       9.1       0.0       0.0       0.0       0.0
 3 Cl px              0.0      25.6       0.0       0.0       0.0       0.0
 3 Cl py              0.0      65.4       0.0       0.0       0.0       0.0
 4 Cl pz              0.0       0.0      99.5       0.0       0.0       0.0
 4 Cl px              0.0       0.0       0.5       0.0       0.0       0.0
 5 Cl pz              0.0       0.0       0.0       0.0       7.3       0.0
 5 Cl px              0.0       0.0       0.0       0.0      25.9       0.0
 5 Cl py              0.0       0.0       0.0       0.0      66.8       0.0
 6 Cl pz              0.0       0.0       0.0       7.3       0.0       0.0
 6 Cl px              0.0       0.0       0.0      25.9       0.0       0.0
 6 Cl py              0.0       0.0       0.0      66.8       0.0       0.0

                     18        19        20        21        22        23   
                  -7.14242  -7.14220  -7.14217  -7.13865  -7.13864  -7.13393
                   2.00000   2.00000   2.00000   2.00000   2.00000   2.00000
                  --------  --------  --------  --------  --------  --------
 2 Cl pz              0.0       9.0       0.0       0.0       0.0       0.0
 2 Cl px              0.0      57.0       0.0       0.0       0.0       0.0
 2 Cl py              0.0      34.0       0.0       0.0       0.0       0.0
 3 Cl pz             81.9       0.0       9.1       0.0       0.0       0.0
 3 Cl px             17.6       0.0      56.9       0.0       0.0       0.0
 3 Cl py              0.6       0.0      34.1       0.0       0.0       0.0
 4 Cl pz              0.0       0.0       0.0       0.5       0.0       0.0
 4 Cl px              0.0       0.0       0.0      99.5       0.0       0.0
 4 Cl py              0.0       0.0       0.0       0.0     100.0       0.0
 6 Cl pz              0.0       0.0       0.0       0.0       0.0       2.7
 6 Cl px              0.0       0.0       0.0       0.0       0.0      74.1
 6 Cl py              0.0       0.0       0.0       0.0       0.0      23.2

                     24        25        26        27        28        29   
                  -7.13393  -7.13377  -7.13377  -0.95331  -0.87804  -0.82610
                   2.00000   2.00000   2.00000   2.00000   2.00000   2.00000
                  --------  --------  --------  --------  --------  --------
 0 C  s               0.0       0.0       0.0      15.8      13.9       0.0
 0 C  pz              0.0       0.0       0.0       1.7       0.3       0.0
 0 C  px              0.0       0.0       0.0       1.3       8.5       0.0
 0 C  py              0.0       0.0       0.0       0.0       0.0      10.2
 0 C  dx2y2           0.0       0.0       0.0       0.0       0.1       0.0
 0 C  dxy             0.0       0.0       0.0       0.0       0.0       0.1
 1 C  s               0.0       0.0       0.0      29.0       3.7       0.0
 1 C  pz              0.0       0.0       0.0       0.0       0.7       0.0
 1 C  px              0.0       0.0       0.0       0.1       9.0       0.0
 1 C  py              0.0       0.0       0.0       0.0       0.0      18.6
 1 C  dyz             0.0       0.0       0.0       0.0       0.0       0.1
 1 C  dx2y2           0.0       0.0       0.0       0.0       0.1       0.0
 1 C  dxy             0.0       0.0       0.0       0.0       0.0       0.3
 2 Cl s               0.0       0.0       0.0       9.3       6.7      24.0
 2 Cl pz              0.0       0.0       0.0       0.2       0.1       0.0
 2 Cl px              0.0       0.0       0.0       0.7       0.0       0.1
 2 Cl py              0.0       0.0       0.0       1.7       0.4       0.2
 2 Cl dyz             0.0       0.0       0.0       0.1       0.0       0.0
 2 Cl dxy             0.0       0.0       0.0       0.3       0.1       0.0
 3 Cl s               0.0       0.0       0.0       9.3       6.7      23.9
 3 Cl pz              0.0       0.0       0.0       0.2       0.1       0.0
 3 Cl px              0.0       0.0       0.0       0.7       0.0       0.1
 3 Cl py              0.0       0.0       0.0       1.7       0.4       0.2
 3 Cl dyz             0.0       0.0       0.0       0.1       0.0       0.0
 3 Cl dxy             0.0       0.0       0.0       0.3       0.1       0.0
 4 Cl s               0.0       0.0       0.0       9.2       4.4       0.0
 4 Cl pz              0.0       0.0       0.0       2.7       0.3       0.0
 4 Cl px              0.0       0.0       0.0       0.0       0.1       0.0
 4 Cl py              0.0       0.0       0.0       0.0       0.0       0.2
 4 Cl dz2             0.0       0.0       0.0       0.6       0.1       0.0
 5 Cl s               0.0       0.0       0.0       4.5      18.7      10.6
 5 Cl pz              2.6       0.0      90.0       0.1       0.1       0.0
 5 Cl px             74.1       0.0       0.0       0.5       0.2       0.1
 5 Cl py             23.2       0.0      10.0       0.9       1.3       0.1
 5 Cl dx2y2           0.0       0.0       0.0       0.0       0.1       0.0
 5 Cl dxy             0.0       0.0       0.0       0.2       0.2       0.0
 6 Cl s               0.0       0.0       0.0       4.5      18.7      10.6
 6 Cl pz              0.0      90.0       0.0       0.1       0.1       0.0
 6 Cl px              0.0       0.0       0.0       0.5       0.2       0.1
 6 Cl py              0.0      10.0       0.0       0.9       1.3       0.1
 6 Cl dx2y2           0.0       0.0       0.0       0.0       0.1       0.0
 6 Cl dxy             0.0       0.0       0.0       0.2       0.2       0.0
 7 H  s               0.0       0.0       0.0       1.4       1.6       0.0
 7 H  pz              0.0       0.0       0.0       0.1       0.2       0.0

                     30        31        32        33        34        35   
                  -0.81791  -0.80192  -0.69323  -0.58525  -0.50865  -0.48940
                   2.00000   2.00000   2.00000   2.00000   2.00000   2.00000
                  --------  --------  --------  --------  --------  --------
 0 C  s               0.2       0.0      11.2       6.8       0.2       0.0
 0 C  pz              0.7       0.0       0.7      10.2      25.5       0.0
 0 C  px              0.0       0.0      10.7       2.0       0.4       0.0
 0 C  py              0.0      12.2       0.0       0.0       0.0      10.0
 0 C  dz2             0.0       0.0       0.0       0.1       0.0       0.0
 0 C  dxz             0.0       0.0       0.2       0.1       0.1       0.0
 0 C  dyz             0.0       0.1       0.0       0.0       0.0       0.1
 0 C  dx2y2           0.0       0.0       0.2       0.0       0.0       0.0
 0 C  dxy             0.0       0.5       0.0       0.0       0.0       0.0
 1 C  s               0.0       0.0       6.2      10.4       0.4       0.0
 1 C  pz             20.5       0.0       2.6       0.6       1.9       0.0
 1 C  px              2.8       0.0       9.8       0.4      16.3       0.0
 1 C  py              0.0       4.6       0.0       0.0       0.0      19.9
 1 C  dz2             0.7       0.0       0.0       0.0       0.0       0.0
 1 C  dxz             0.0       0.0       0.2       0.0       0.0       0.0
 1 C  dx2y2           0.0       0.0       0.2       0.0       0.1       0.0
 1 C  dxy             0.0       0.3       0.0       0.0       0.0       0.0
 2 Cl s              11.1      13.4       7.1       4.7       3.0       3.9
 2 Cl pz              0.1       0.0       0.0       1.1       0.3       2.3
 2 Cl px              0.0       0.0       0.9       1.2       0.4       8.3
 2 Cl py              0.1       0.1       0.8       4.0       9.8       6.5
 2 Cl dxz             0.0       0.0       0.0       0.1       0.0       0.1
 2 Cl dyz             0.0       0.0       0.0       0.2       0.1       0.1
 2 Cl dx2y2           0.0       0.0       0.0       0.1       0.4       0.0
 2 Cl dxy             0.0       0.0       0.3       0.3       0.1       0.3
 3 Cl s              11.2      13.4       7.1       4.7       3.0       3.9
 3 Cl pz              0.1       0.0       0.0       1.1       0.3       2.3
 3 Cl px              0.0       0.0       0.9       1.2       0.4       8.3
 3 Cl py              0.1       0.1       0.8       4.0       9.8       6.5
 3 Cl dxz             0.0       0.0       0.0       0.1       0.0       0.1
 3 Cl dyz             0.0       0.0       0.0       0.2       0.1       0.1
 3 Cl dx2y2           0.0       0.0       0.0       0.1       0.4       0.0
 3 Cl dxy             0.0       0.0       0.3       0.3       0.1       0.3
 4 Cl s              51.0       0.0       3.9       9.1       0.8       0.0
 4 Cl pz              0.6       0.0       0.9       9.5       1.8       0.0
 4 Cl px              0.0       0.0       0.1       0.0       3.0       0.0
 4 Cl py              0.0       0.0       0.0       0.0       0.0       3.2
 4 Cl dz2             0.1       0.0       0.3       1.0       0.1       0.0
 4 Cl dxz             0.0       0.0       0.0       0.0       0.5       0.0
 4 Cl dyz             0.0       0.0       0.0       0.0       0.0       0.5
 5 Cl s               0.1      27.2      12.3       3.4       0.7       2.3
 5 Cl pz              0.0       0.0       0.2       1.4       1.8       0.4
 5 Cl px              0.0       0.1       1.1       0.5       1.5       5.2
 5 Cl py              0.0       0.2       1.1       2.6       1.5       3.3
 5 Cl dz2             0.0       0.0       0.1       0.0       0.2       0.0
 5 Cl dyz             0.0       0.0       0.1       0.3       0.2       0.0
 5 Cl dx2y2           0.0       0.0       0.0       0.1       0.0       0.0
 5 Cl dxy             0.0       0.0       0.4       0.1       0.2       0.2
 6 Cl s               0.1      27.2      12.3       3.4       0.7       2.3
 6 Cl pz              0.0       0.0       0.2       1.4       1.8       0.4
 6 Cl px              0.0       0.1       1.1       0.5       1.5       5.2
 6 Cl py              0.0       0.2       1.1       2.6       1.5       3.3
 6 Cl dz2             0.0       0.0       0.1       0.0       0.2       0.0
 6 Cl dyz             0.0       0.0       0.1       0.3       0.2       0.0
 6 Cl dx2y2           0.0       0.0       0.0       0.1       0.0       0.0
 6 Cl dxy             0.0       0.0       0.4       0.1       0.2       0.2
 7 H  s               0.1       0.0       3.6       8.9       8.1       0.0
 7 H  pz              0.0       0.0       0.4       0.5       0.3       0.0

                     36        37        38        39        40        41   
                  -0.48611  -0.44074  -0.43015  -0.34740  -0.34374  -0.32779
                   2.00000   2.00000   2.00000   2.00000   2.00000   2.00000
                  --------  --------  --------  --------  --------  --------
 0 C  s               0.7       0.2       0.0       0.1       0.0       1.4
 0 C  pz              0.0      12.6       0.0       0.6       0.0       0.3
 0 C  px             19.1       2.8       0.0       0.4       0.0       2.4
 0 C  py              0.0       0.0      16.8       0.0       0.2       0.0
 0 C  dz2             0.0       0.3       0.0       0.2       0.0       0.0
 0 C  dxz             0.0       0.1       0.0       0.0       0.0       0.0
 0 C  dx2y2           0.1       0.0       0.0       0.2       0.0       0.2
 0 C  dxy             0.0       0.0       0.4       0.0       0.1       0.0
 1 C  s               0.1       0.0       0.0       0.1       0.0       0.2
 1 C  pz             13.6      10.4       0.0       1.1       0.0       0.3
 1 C  px              6.9       2.4       0.0       0.7       0.0       1.0
 1 C  py              0.0       0.0       6.9       0.0       1.6       0.0
 1 C  dz2             0.0       0.3       0.0       0.4       0.0       0.1
 1 C  dxz             0.0       0.1       0.0       0.2       0.0       0.2
 1 C  dyz             0.0       0.0       0.0       0.0       0.9       0.0
 1 C  dx2y2           0.0       0.0       0.0       0.3       0.0       0.7
 1 C  dxy             0.0       0.0       0.4       0.0       0.1       0.0
 2 Cl s               0.0       0.4       0.7       0.0       0.0       0.0
 2 Cl pz              2.9       0.4       3.8      12.9      12.5       3.4
 2 Cl px              1.3       0.1       2.2      10.5       6.4      26.1
 2 Cl py              0.2       8.3       4.5       3.2       5.1       2.2
 2 Cl dz2             0.1       0.1       0.0       0.0       0.0       0.0
 2 Cl dyz             0.3       0.0       0.1       0.0       0.0       0.0
 2 Cl dx2y2           0.1       0.2       0.0       0.1       0.0       0.0
 3 Cl s               0.0       0.4       0.7       0.0       0.0       0.0
 3 Cl pz              2.9       0.4       3.8      12.9      12.5       3.4
 3 Cl px              1.2       0.1       2.2      10.5       6.4      26.0
 3 Cl py              0.2       8.4       4.5       3.2       5.1       2.2
 3 Cl dz2             0.1       0.1       0.0       0.0       0.0       0.0
 3 Cl dyz             0.3       0.0       0.1       0.0       0.0       0.0
 3 Cl dx2y2           0.1       0.2       0.0       0.1       0.0       0.0
 4 Cl s               3.7       1.8       0.0       0.0       0.0       0.0
 4 Cl pz             14.7      19.6       0.0       6.9       0.0       0.9
 4 Cl px              2.2       0.4       0.0      12.5       0.0       3.7
 4 Cl py              0.0       0.0       3.9       0.0      36.8       0.0
 4 Cl dz2             0.4       0.3       0.0       0.0       0.0       0.0
 4 Cl dxz             0.3       0.0       0.0       0.1       0.0       0.0
 4 Cl dyz             0.0       0.0       0.3       0.0       0.1       0.0
 5 Cl s               2.1       0.6       1.8       0.0       0.0       0.1
 5 Cl pz              1.0       0.9       4.3       1.3       3.3       1.3
 5 Cl px              0.1       0.1       7.6       8.8       1.5       7.9
 5 Cl py             10.3       9.1      10.1       0.5       1.1       2.9
 5 Cl dz2             0.0       0.1       0.0       0.0       0.0       0.0
 5 Cl dxz             0.0       0.0       0.1       0.0       0.0       0.0
 5 Cl dyz             0.1       0.0       0.1       0.0       0.0       0.0
 5 Cl dx2y2           0.5       0.3       0.0       0.0       0.0       0.0
 5 Cl dxy             0.0       0.0       0.2       0.0       0.0       0.2
 6 Cl s               2.1       0.6       1.8       0.0       0.0       0.1
 6 Cl pz              1.0       0.9       4.3       1.3       3.3       1.3
 6 Cl px              0.1       0.1       7.6       8.8       1.5       7.8
 6 Cl py             10.3       9.1      10.1       0.5       1.1       2.9
 6 Cl dz2             0.0       0.1       0.0       0.0       0.0       0.0
 6 Cl dxz             0.0       0.0       0.1       0.0       0.0       0.0
 6 Cl dyz             0.1       0.0       0.1       0.0       0.0       0.0
 6 Cl dx2y2           0.5       0.3       0.0       0.0       0.0       0.0
 6 Cl dxy             0.0       0.0       0.2       0.0       0.0       0.2
 7 H  s               0.0       6.7       0.0       1.3       0.0       0.2
 7 H  pz              0.0       0.1       0.0       0.0       0.0       0.0
 7 H  px              0.2       0.0       0.0       0.0       0.0       0.0
 7 H  py              0.0       0.0       0.2       0.0       0.0       0.0

                     42        43        44        45        46        47   
                  -0.32400  -0.31946  -0.31177  -0.30771  -0.29551  -0.29127
                   2.00000   2.00000   2.00000   2.00000   2.00000   2.00000
                  --------  --------  --------  --------  --------  --------
 0 C  s               0.0       0.6       0.2       0.0       0.0       0.0
 0 C  pz              0.0       0.0       4.0       0.0       1.1       0.0
 0 C  px              0.0       3.8       0.5       0.0       0.6       0.0
 0 C  py              0.7       0.0       0.0       0.8       0.0       0.1
 0 C  dz2             0.0       0.0       0.4       0.0       0.3       0.0
 0 C  dxz             0.0       0.0       0.1       0.0       0.3       0.0
 0 C  dyz             0.0       0.0       0.0       0.4       0.0       0.0
 0 C  dx2y2           0.0       0.7       0.0       0.0       0.0       0.0
 0 C  dxy             0.3       0.0       0.0       0.0       0.0       0.0
 1 C  s               0.0       0.5       0.4       0.0       0.7       0.0
 1 C  pz              0.0       1.3       0.3       0.0       0.5       0.0
 1 C  px              0.0       2.0       2.7       0.0       1.4       0.0
 1 C  py              1.1       0.0       0.0       0.3       0.0       0.0
 1 C  dz2             0.0       0.1       0.1       0.0       0.2       0.0
 1 C  dxz             0.0       0.4       0.1       0.0       0.0       0.0
 1 C  dx2y2           0.0       0.0       0.1       0.0       0.0       0.0
 1 C  dxy             0.4       0.0       0.0       0.0       0.0       0.0
 2 Cl pz              6.2       8.9       9.3       3.9       5.8      17.4
 2 Cl px             10.5       0.6       0.7       3.2       2.2       0.1
 2 Cl py              7.3       2.1       0.1       7.4       0.0       0.4
 2 Cl dxy             0.0       0.1       0.0       0.0       0.0       0.0
 3 Cl pz              6.2       8.9       9.2       3.9       5.9      17.4
 3 Cl px             10.6       0.6       0.7       3.2       2.2       0.1
 3 Cl py              7.4       2.1       0.1       7.4       0.0       0.4
 3 Cl dxy             0.0       0.1       0.0       0.0       0.0       0.0
 4 Cl s               0.0       0.0       0.1       0.0       0.0       0.0
 4 Cl pz              0.0       2.7       0.1       0.0       1.5       0.0
 4 Cl px              0.0       8.7      43.7       0.0      20.7       0.0
 4 Cl py              1.2       0.0       0.0       1.2       0.0      47.8
 4 Cl dz2             0.0       0.0       0.1       0.0       0.1       0.0
 4 Cl dyz             0.0       0.0       0.0       0.0       0.0       0.1
 4 Cl dxy             0.2       0.0       0.0       0.1       0.0       0.0
 5 Cl pz              9.5       3.8      10.7      26.0      24.4       2.5
 5 Cl px              9.7      21.4       0.7       0.0       2.0       4.5
 5 Cl py              4.4       2.2       0.0       7.9       0.4       0.8
 6 Cl pz              9.5       3.8      10.6      26.1      24.3       2.5
 6 Cl px              9.8      21.4       0.8       0.0       2.0       4.5
 6 Cl py              4.5       2.2       0.0       7.9       0.4       0.8
 7 H  s               0.0       0.4       3.8       0.0       2.3       0.0

                     48        49        50        51        52        53   
                  -0.28176  -0.07073  -0.05822  -0.05777  -0.01403   0.01654
                   2.00000   0.00000   0.00000   0.00000   0.00000   0.00000
                  --------  --------  --------  --------  --------  --------
 0 C  s               0.0       0.2       7.6       0.0       8.0       0.0
 0 C  pz              0.0       0.1       3.3       0.0       1.8       0.0
 0 C  px              0.0       1.2       9.1       0.0       3.6       0.0
 0 C  py              0.1       0.0       0.0      13.1       0.0      24.1
 0 C  dz2             0.0       0.0       1.0       0.0       0.3       0.0
 0 C  dxz             0.0       0.1       0.4       0.0       0.1       0.0
 0 C  dyz             0.0       0.0       0.0       0.0       0.0       0.9
 0 C  dx2y2           0.0       0.0       0.0       0.0       0.3       0.0
 0 C  dxy             0.1       0.0       0.0       1.9       0.0       0.2
 1 C  s               0.0      18.8       0.3       0.0       0.5       0.0
 1 C  pz              0.0       1.5       9.2       0.0      18.7       0.0
 1 C  px              0.0       7.8       2.1       0.0       4.5       0.0
 1 C  py              0.0       0.0       0.0      21.1       0.0      15.4
 1 C  dz2             0.0       0.0       1.2       0.0       0.9       0.0
 1 C  dxz             0.0       0.1       0.1       0.0       0.0       0.0
 1 C  dyz             0.0       0.0       0.0       0.1       0.0       0.7
 1 C  dx2y2           0.0       0.1       0.0       0.0       0.2       0.0
 1 C  dxy             0.1       0.0       0.0       2.0       0.0       0.0
 2 Cl s               0.0       0.9       0.6       1.7       0.2       0.6
 2 Cl pz              1.1       2.2       0.1       1.0       0.1       1.1
 2 Cl px             11.2       1.4       1.2       5.2       0.1       1.2
 2 Cl py              9.3       9.1       2.8       5.2       2.2       2.1
 2 Cl dz2             0.0       0.7       0.5       0.6       0.6       0.1
 2 Cl dxz             0.0       0.5       0.2       0.5       0.2       2.2
 2 Cl dyz             0.0       3.1       0.0       0.6       0.1       1.2
 2 Cl dx2y2           0.1       2.2       0.3       0.1       1.9       0.1
 2 Cl dxy             0.0       2.1       1.2       3.1       0.6       1.2
 3 Cl s               0.0       0.9       0.8       1.5       0.2       0.6
 3 Cl pz              1.1       2.2       0.0       1.0       0.1       1.1
 3 Cl px             11.2       1.4       1.6       4.8       0.1       1.2
 3 Cl py              9.4       9.1       3.4       4.6       2.2       2.1
 3 Cl dz2             0.0       0.7       0.6       0.6       0.6       0.1
 3 Cl dxz             0.0       0.5       0.1       0.6       0.2       2.2
 3 Cl dyz             0.0       3.1       0.0       0.6       0.1       1.2
 3 Cl dx2y2           0.1       2.2       0.3       0.1       1.9       0.1
 3 Cl dxy             0.0       2.1       1.5       2.8       0.7       1.2
 4 Cl s               0.0       1.0       0.7       0.0       2.7       0.0
 4 Cl pz              0.0      12.9       4.9       0.0      14.0       0.0
 4 Cl px              0.0       0.9       0.0       0.0       0.1       0.0
 4 Cl py              1.3       0.0       0.0       1.0       0.0       0.9
 4 Cl dz2             0.0       7.0       1.9       0.0       7.2       0.0
 4 Cl dxz             0.0       1.4       0.2       0.0       0.1       0.0
 4 Cl dyz             0.0       0.0       0.0       1.8       0.0       3.5
 5 Cl s               0.0       0.0       1.4       1.2       0.4       1.9
 5 Cl pz              1.0       0.2       0.5       0.6       0.1       1.6
 5 Cl px             13.3       0.1       1.9       3.9       0.4       2.9
 5 Cl py             12.9       0.3       9.8       3.8       4.3       3.5
 5 Cl dz2             0.0       0.0       1.0       0.5       0.8       0.1
 5 Cl dxz             0.0       0.0       0.0       0.3       0.1       2.4
 5 Cl dyz             0.0       0.2       0.7       0.3       0.6       1.5
 5 Cl dx2y2           0.1       0.3       1.9       0.1       2.6       0.0
 5 Cl dxy             0.0       0.0       2.8       2.3       1.3       2.4
 6 Cl s               0.0       0.0       1.6       1.0       0.4       1.9
 6 Cl pz              1.0       0.2       0.5       0.5       0.1       1.6
 6 Cl px             13.3       0.1       2.4       3.5       0.4       2.9
 6 Cl py             12.9       0.3      10.7       3.0       4.3       3.4
 6 Cl dz2             0.0       0.0       1.1       0.4       0.8       0.1
 6 Cl dxz             0.0       0.0       0.0       0.3       0.1       2.4
 6 Cl dyz             0.0       0.2       0.8       0.2       0.6       1.5
 6 Cl dx2y2           0.1       0.3       1.8       0.1       2.6       0.0
 6 Cl dxy             0.0       0.0       3.2       1.9       1.4       2.4
 7 H  s               0.0       0.0       0.2       0.0       2.8       0.0
 7 H  pz              0.0       0.0       0.0       0.0       0.7       0.0
 7 H  px              0.0       0.1       0.5       0.0       0.0       0.0
 7 H  py              0.0       0.0       0.0       0.4       0.0       1.6

                     54        55        56        57        58        59   
                   0.07446   0.08929   0.14625   0.17953   0.18149   0.21233
                   0.00000   0.00000   0.00000   0.00000   0.00000   0.00000
                  --------  --------  --------  --------  --------  --------
 0 C  s               5.0      16.8       9.0       0.0       1.2       5.2
 0 C  pz              6.4      20.9       6.8       0.0       0.4       4.2
 0 C  px             13.6       6.0       5.4       0.0      21.0       1.1
 0 C  py              0.0       0.0       0.0      45.6       0.0       0.0
 0 C  dz2             0.6       1.5       0.9       0.0       0.2       0.1
 0 C  dxz             1.8       0.1       0.4       0.0       0.2       0.0
 0 C  dyz             0.0       0.0       0.0       0.6       0.0       0.0
 0 C  dx2y2           1.2       0.6       0.0       0.0       0.1       0.6
 0 C  dxy             0.0       0.0       0.0       0.3       0.0       0.0
 1 C  s               3.8       6.3      15.7       0.0      10.3       3.5
 1 C  pz              2.3       2.8       4.4       0.0       7.6       9.2
 1 C  px             12.7       0.1       5.9       0.0       6.0       4.9
 1 C  py              0.0       0.0       0.0       5.1       0.0       0.0
 1 C  dz2             0.2       0.0       0.0       0.0       0.5       0.5
 1 C  dxz             1.1       0.7       0.4       0.0       0.1       0.2
 1 C  dx2y2           1.9       0.0       0.0       0.0       0.2       0.0
 2 Cl s               0.4       1.0       2.5       1.8       4.3       0.0
 2 Cl pz              0.3       0.2       0.9       0.8       1.2       0.4
 2 Cl px              0.3       0.1       0.4       0.5       3.2       0.0
 2 Cl py              0.3       0.6       0.7       1.9       0.9       0.1
 2 Cl dz2             0.4       0.0       0.0       0.0       0.8       3.2
 2 Cl dxz             2.8       0.1       0.0       0.8       0.0       4.5
 2 Cl dyz             2.2       0.4       0.5       0.1       5.5       0.4
 2 Cl dx2y2           0.6       0.3       0.2       1.8       0.0       0.1
 2 Cl dxy             2.1       0.1       2.8       0.1       0.0       0.9
 3 Cl s               0.4       1.0       2.5       1.7       4.3       0.0
 3 Cl pz              0.3       0.2       0.9       0.8       1.2       0.4
 3 Cl px              0.3       0.1       0.4       0.5       3.2       0.0
 3 Cl py              0.3       0.6       0.7       1.9       1.0       0.1
 3 Cl dz2             0.4       0.0       0.0       0.0       0.7       3.2
 3 Cl dxz             2.8       0.1       0.0       0.8       0.0       4.5
 3 Cl dyz             2.2       0.4       0.5       0.0       5.5       0.4
 3 Cl dx2y2           0.6       0.3       0.2       1.8       0.0       0.1
 3 Cl dxy             2.1       0.1       2.8       0.1       0.0       0.9
 4 Cl s               0.1       0.7       4.3       0.0       0.4       2.4
 4 Cl pz              0.0       0.3       2.2       0.0       0.8       1.2
 4 Cl px              0.8       0.5       0.1       0.0       2.5       0.0
 4 Cl py              0.0       0.0       0.0       1.6       0.0       0.0
 4 Cl dz2             0.6       1.2       2.4       0.0       1.5       5.6
 4 Cl dxz             3.6       1.9       1.1       0.0       0.2       0.6
 4 Cl dyz             0.0       0.0       0.0       0.4       0.0       0.0
 4 Cl dx2y2           3.7       0.1       0.0       0.0       2.7       7.8
 4 Cl dxy             0.0       0.0       0.0       1.0       0.0       0.0
 5 Cl s               0.2       1.7       2.6       2.6       1.1       0.9
 5 Cl pz              0.4       0.1       0.6       0.8       0.1       0.0
 5 Cl px              0.6       0.1       0.0       0.1       1.7       0.3
 5 Cl py              0.1       0.5       0.6       1.8       0.0       0.5
 5 Cl dz2             0.2       0.3       0.2       4.1       1.6       0.2
 5 Cl dxz             0.8       2.0       0.1       0.1       0.0       3.8
 5 Cl dyz             5.0       0.6       1.1       0.4       0.9       1.5
 5 Cl dx2y2           0.1       0.7       0.5       2.0       0.1       4.4
 5 Cl dxy             1.7       0.3       1.8       2.4       0.0       5.0
 6 Cl s               0.2       1.7       2.6       2.5       1.2       0.9
 6 Cl pz              0.4       0.1       0.6       0.8       0.1       0.0
 6 Cl px              0.6       0.1       0.0       0.1       1.7       0.3
 6 Cl py              0.1       0.5       0.6       1.8       0.0       0.5
 6 Cl dz2             0.2       0.3       0.2       4.1       1.7       0.2
 6 Cl dxz             0.8       2.0       0.1       0.1       0.0       3.8
 6 Cl dyz             5.0       0.6       1.1       0.4       0.9       1.5
 6 Cl dx2y2           0.1       0.7       0.5       2.0       0.1       4.4
 6 Cl dxy             1.7       0.3       1.8       2.4       0.0       5.0
 7 H  s               2.0      15.0       6.9       0.0       0.1       0.4
 7 H  pz              0.3       6.1       2.8       0.0       0.0       0.2
 7 H  px              1.5       0.1       0.3       0.0       0.7       0.0
 7 H  py              0.0       0.0       0.0       1.5       0.0       0.0

                     60        61        62        63        64        65   
                   0.22320   0.22715   0.23468   0.24620   0.27319   0.27937
                   0.00000   0.00000   0.00000   0.00000   0.00000   0.00000
                  --------  --------  --------  --------  --------  --------
 0 C  s               0.9       0.0       2.0       5.6       0.0       0.4
 0 C  pz             27.6       0.0       1.8       0.1       0.0       0.8
 0 C  px              0.1       0.0      13.7       1.2       0.0       0.1
 0 C  py              0.0       3.1       0.0       0.0       0.5       0.0
 0 C  dz2             2.3       0.0       0.0       0.4       0.0       0.1
 0 C  dxz             0.3       0.0       0.1       0.6       0.0       0.0
 0 C  dyz             0.0       0.4       0.0       0.0       0.0       0.0
 0 C  dx2y2           0.0       0.0       0.2       0.9       0.0       0.1
 0 C  dxy             0.0       0.0       0.0       0.0       1.3       0.0
 1 C  s               1.8       0.0       1.8       0.9       0.0       0.0
 1 C  pz              0.1       0.0      11.0       2.0       0.0       0.3
 1 C  px              2.0       0.0       2.0      11.0       0.0       0.6
 1 C  py              0.0      25.0       0.0       0.0       0.4       0.0
 1 C  dz2             0.0       0.0       0.0       0.3       0.0       1.2
 1 C  dxz             0.8       0.0       0.4       0.0       0.0       0.0
 1 C  dyz             0.0       0.6       0.0       0.0       0.2       0.0
 1 C  dx2y2           0.0       0.0       1.1       0.6       0.0       0.9
 1 C  dxy             0.0       0.4       0.0       0.0       1.5       0.0
 2 Cl s               0.0       1.6       0.2       0.0       0.7       0.7
 2 Cl pz              0.3       0.3       0.5       0.2       0.1       2.9
 2 Cl px              0.1       0.4       2.0       1.2       1.7       4.8
 2 Cl py              0.2       1.8       0.1       0.1      15.5       3.0
 2 Cl dz2             0.9       4.9       0.1       0.3       0.0       0.3
 2 Cl dxz             2.8       1.5       1.5       0.0       0.0       2.8
 2 Cl dyz             1.6       0.6       2.7       1.6       0.4       4.4
 2 Cl dx2y2           2.1       1.8       4.4       2.8       6.4       7.2
 2 Cl dxy             0.2       3.4       3.3       6.3       0.2       0.3
 3 Cl s               0.0       1.6       0.2       0.0       0.7       0.7
 3 Cl pz              0.3       0.3       0.5       0.2       0.1       2.9
 3 Cl px              0.1       0.4       2.0       1.2       1.7       4.8
 3 Cl py              0.2       1.8       0.1       0.1      15.5       3.0
 3 Cl dz2             0.9       4.9       0.1       0.2       0.0       0.3
 3 Cl dxz             2.8       1.5       1.5       0.0       0.0       2.8
 3 Cl dyz             1.6       0.6       2.7       1.6       0.4       4.5
 3 Cl dx2y2           2.1       1.8       4.4       2.8       6.4       7.2
 3 Cl dxy             0.2       3.4       3.3       6.3       0.2       0.3
 4 Cl s               1.8       0.0       2.5       0.2       0.0       2.0
 4 Cl pz              2.1       0.0       6.5       2.8       0.0      23.5
 4 Cl px              0.7       0.0       1.4       0.9       0.0       1.6
 4 Cl py              0.0       1.3       0.0       0.0       4.4       0.0
 4 Cl dz2             0.0       0.0       1.8       0.7       0.0       1.0
 4 Cl dxz            10.7       0.0       2.0       0.1       0.0       1.1
 4 Cl dyz             0.0      11.8       0.0       0.0       4.3       0.0
 4 Cl dx2y2           0.1       0.0       3.5       1.6       0.0       0.1
 4 Cl dxy             0.0       1.6       0.0       0.0       1.8       0.0
 5 Cl s               0.1       0.1       0.2       2.4       0.1       0.2
 5 Cl pz              1.2       0.2       1.2       1.2       0.4       3.3
 5 Cl px              0.0       0.2       1.1      10.4       0.6       0.1
 5 Cl py              0.0       0.6       0.6       2.7      10.4       0.4
 5 Cl dz2             0.9       6.3       1.9       0.2       0.0       1.0
 5 Cl dxz             2.9       2.1       1.1       1.6       0.0       0.1
 5 Cl dyz             7.9       0.0       0.9       0.2       0.6       0.7
 5 Cl dx2y2           0.1       1.3       1.0       1.6       5.6       0.7
 5 Cl dxy             0.0       0.3       1.2       0.8       0.0       0.1
 6 Cl s               0.1       0.1       0.2       2.4       0.1       0.2
 6 Cl pz              1.2       0.2       1.2       1.2       0.4       3.3
 6 Cl px              0.0       0.2       1.1      10.4       0.6       0.1
 6 Cl py              0.0       0.6       0.6       2.7      10.4       0.4
[...]
 3 Cl px              0.6       0.3       2.4       3.6       3.3       7.9
 3 Cl py              1.1       0.8       7.5       5.8      15.5       8.3
 3 Cl dz2             0.1       0.1       0.0       0.1       0.2       0.1
 3 Cl dxz             0.0       0.0       0.0       0.1       0.0       0.1
 3 Cl dyz             0.0       0.2       0.1       0.1       0.1       0.2
 3 Cl dx2y2           0.1       0.1       0.1       0.0       0.1       0.1
 3 Cl dxy             0.1       0.3       0.0       0.6       0.2       0.3
 4 Cl s               0.0       0.1       0.5       0.0       2.1       0.0
 4 Cl pz              0.0       0.6      10.1       0.0      19.5       0.0
 4 Cl px              0.0       8.2       0.1       0.0       0.0       0.0
 4 Cl py              0.1       0.0       0.0       1.5       0.0       1.0
 4 Cl dz2             0.0       0.1       0.0       0.0       1.2       0.0
 4 Cl dxz             0.0       0.3       0.3       0.0       0.1       0.0
 4 Cl dx2y2           0.0       0.1       0.0       0.0       0.1       0.0
 5 Cl s               0.0       0.0       0.5       1.3       0.3       1.6
 5 Cl pz              8.1       2.6       0.5       4.1       0.1       0.8
 5 Cl px              2.1       1.3       2.3       3.6       0.4       5.7
 5 Cl py              5.9       0.0       9.8       7.9       2.8       5.6
 5 Cl dz2             0.2       0.0       0.1       0.1       0.1       0.0
 5 Cl dxz             0.0       0.1       0.1       0.1       0.0       0.0
 5 Cl dyz             0.0       0.1       0.1       0.2       0.0       0.1
 5 Cl dx2y2           0.1       0.0       0.1       0.1       0.0       0.1
 5 Cl dxy             0.3       0.0       0.0       0.4       0.0       0.2
 6 Cl s               0.0       0.0       0.5       1.3       0.2       1.6
 6 Cl pz              8.1       2.6       0.5       4.1       0.1       0.8
 6 Cl px              2.1       1.3       2.3       3.6       0.4       5.8
 6 Cl py              5.8       0.0       9.8       7.9       2.8       5.8
 6 Cl dz2             0.2       0.0       0.1       0.1       0.1       0.0
 6 Cl dxz             0.0       0.1       0.1       0.1       0.0       0.0
 6 Cl dyz             0.0       0.1       0.1       0.2       0.0       0.1
 6 Cl dx2y2           0.1       0.0       0.1       0.1       0.0       0.1
 6 Cl dxy             0.3       0.0       0.0       0.4       0.0       0.2
 7 H  s               0.0       0.2       0.6       0.0       0.5       0.0
 7 H  pz              0.0       1.2       6.3       0.0       0.1       0.0
 7 H  px              0.0      37.2       1.9       0.0       0.0       0.0
 7 H  py             30.1       0.0       0.0       9.3       0.0       2.2

                    168       169       170       171       172       173   
                   3.02290   3.14885   3.49540  21.54795  21.82764  25.01912
                   0.00000   0.00000   0.00000   0.00000   0.00000   0.00000
                  --------  --------  --------  --------  --------  --------
 0 C  s               2.4       2.8       2.4      31.2      68.2       0.0
 0 C  pz              0.6       0.2      12.2       0.0       0.0       0.0
 0 C  px              0.4      13.7       0.4       0.0       0.0       0.0
 0 C  dz2             0.0       0.6      22.0       0.0       0.0       0.0
 0 C  dxz             0.1       7.1       1.8       0.0       0.0       0.0
 0 C  dx2y2           0.1      14.6       0.7       0.0       0.0       0.0
 1 C  s               2.8       1.6       0.8      68.3      31.3       0.0
 1 C  pz              2.0       1.5       0.5       0.0       0.0       0.0
 1 C  px              1.8       8.4       1.5       0.0       0.0       0.0
 1 C  dz2             3.2       0.1       1.0       0.0       0.0       0.0
 1 C  dxz             0.7       9.8       1.4       0.0       0.0       0.0
 1 C  dx2y2           1.1      10.2       1.1       0.0       0.0       0.0
 2 Cl s               0.5       0.4       0.0       0.0       0.0       8.1
 2 Cl pz              1.0       0.4       0.0       0.0       0.0       0.0
 2 Cl px              1.9       0.1       0.0       0.0       0.0       0.0
 2 Cl py              2.5       1.6       0.0       0.0       0.0       0.0
 2 Cl dx2y2           0.1       0.1       0.0       0.0       0.0       0.0
 2 Cl dxy             0.1       0.1       0.0       0.0       0.0       0.0
 3 Cl s               0.5       0.4       0.0       0.0       0.0       8.2
 3 Cl pz              1.1       0.4       0.0       0.0       0.0       0.0
 3 Cl px              2.0       0.1       0.0       0.0       0.0       0.0
 3 Cl py              2.6       1.6       0.0       0.0       0.0       0.0
 3 Cl dx2y2           0.1       0.1       0.0       0.0       0.0       0.0
 3 Cl dxy             0.1       0.1       0.0       0.0       0.0       0.0
 4 Cl s               4.9       0.0       0.4       0.1       0.1       0.0
 4 Cl pz             33.5       0.0       1.4       0.0       0.0       0.0
 4 Cl px              0.1       0.7       0.1       0.0       0.0       0.0
 4 Cl dz2             0.4       0.1       0.1       0.0       0.0       0.0
 4 Cl dxz             0.3       0.0       0.1       0.0       0.0       0.0
 5 Cl s               1.4       1.4       0.3       0.1       0.1      41.7
 5 Cl pz              0.1       0.4       0.1       0.0       0.0       0.0
 5 Cl px              4.8       1.2       0.4       0.0       0.0       0.0
 5 Cl py              6.1       6.1       0.8       0.0       0.0       0.0
 5 Cl dyz             0.0       0.2       0.0       0.0       0.0       0.0
 5 Cl dx2y2           0.0       0.2       0.0       0.0       0.0       0.0
 5 Cl dxy             0.1       0.2       0.0       0.0       0.0       0.0
 6 Cl s               1.4       1.4       0.3       0.1       0.1      41.7
 6 Cl pz              0.1       0.4       0.1       0.0       0.0       0.0
 6 Cl px              4.6       1.2       0.4       0.0       0.0       0.0
 6 Cl py              5.9       6.1       0.8       0.0       0.0       0.0
 6 Cl dyz             0.0       0.2       0.0       0.0       0.0       0.0
 6 Cl dx2y2           0.0       0.2       0.0       0.0       0.0       0.0
 6 Cl dxy             0.1       0.2       0.0       0.0       0.0       0.0
 7 H  s               0.9       0.4      12.1       0.0       0.0       0.0
 7 H  pz              7.5       2.1      36.0       0.0       0.0       0.0
 7 H  px              0.0       1.1       0.3       0.0       0.0       0.0

                    174       175       176       177   
                  25.20214  25.28363  25.43547  25.56400
                   0.00000   0.00000   0.00000   0.00000
                  --------  --------  --------  --------
 0 C  s               0.3       0.3       0.0       0.6
 1 C  s               0.1       0.7       0.0       0.5
 1 C  py              0.0       0.0       0.3       0.0
 2 Cl s              25.3      23.7      41.6       0.6
 3 Cl s              25.2      23.7      41.7       0.6
 4 Cl s              28.5      18.7       0.0      51.9
 5 Cl s              10.2      16.4       8.1      22.7
 6 Cl s              10.1      16.3       8.2      22.8


                      *****************************
                      * MAYER POPULATION ANALYSIS *
                      *****************************

  NA   - Mulliken gross atomic population
  ZA   - Total nuclear charge
  QA   - Mulliken gross atomic charge
  VA   - Mayer's total valence
  BVA  - Mayer's bonded valence
  FA   - Mayer's free valence

  ATOM       NA         ZA         QA         VA         BVA        FA
  0 C      6.0613     6.0000    -0.0613     4.0066     4.0066    -0.0000
  1 C      5.8187     6.0000     0.1813     4.0657     4.0657     0.0000
  2 Cl    17.0591    17.0000    -0.0591     1.1572     1.1572    -0.0000
  3 Cl    17.0592    17.0000    -0.0592     1.1570     1.1570    -0.0000
  4 Cl    17.0534    17.0000    -0.0534     1.1727     1.1727     0.0000
  5 Cl    17.0848    17.0000    -0.0848     1.1397     1.1397     0.0000
  6 Cl    17.0848    17.0000    -0.0848     1.1397     1.1397     0.0000
  7 H      0.7787     1.0000     0.2213     0.9212     0.9212    -0.0000

  Mayer bond orders larger than 0.100000
B(  0-C ,  1-C ) :   0.9155 B(  0-C ,  5-Cl) :   1.0283 B(  0-C ,  6-Cl) :   1.0282 
B(  0-C ,  7-H ) :   0.9154 B(  1-C ,  2-Cl) :   1.0171 B(  1-C ,  3-Cl) :   1.0170 
B(  1-C ,  4-Cl) :   1.0549 

-------
TIMINGS
-------

Total SCF time: 0 days 0 hours 0 min 5 sec 

Total time                  ....       5.465 sec
Sum of individual times     ....       5.452 sec  ( 99.8%)

SCF preparation             ....       0.028 sec  (  0.5%)
Fock matrix formation       ....       5.294 sec  ( 96.9%)
  Startup                   ....       0.002 sec  (  0.0% of F)
  Split-RI-J                ....       1.070 sec  ( 20.2% of F)
  XC integration            ....       4.208 sec  ( 79.5% of F)
    Basis function eval.    ....       0.705 sec  ( 16.8% of XC)
    Density eval.           ....       1.373 sec  ( 32.6% of XC)
    XC-Functional eval.     ....       0.536 sec  ( 12.7% of XC)
    XC-Potential eval.      ....       1.508 sec  ( 35.8% of XC)
Diagonalization             ....       0.000 sec  (  0.0%)
Density matrix formation    ....       0.019 sec  (  0.4%)
Total Energy calculation    ....       0.001 sec  (  0.0%)
Population analysis         ....       0.044 sec  (  0.8%)
Orbital Transformation      ....       0.015 sec  (  0.3%)
Orbital Orthonormalization  ....       0.000 sec  (  0.0%)
DIIS solution               ....       0.045 sec  (  0.8%)
  MO trafo                  ....       0.000 sec  (  0.0 % of DIIS)
  Orb grad                  ....       0.000 sec  (  0.0 % of DIIS)
  Energy W gradient         ....       0.000 sec  (  0.0 % of DIIS)
  DIIS error                ....       0.006 sec  ( 13.0 % of DIIS)
  DIIS work                 ....       0.029 sec  ( 65.2 % of DIIS)
  Form Q                    ....       0.000 sec  (  0.0 % of DIIS)
  Form QpQm                 ....       0.000 sec  (  0.0 % of DIIS)
  Exp/Cayley                ....       0.000 sec  (  0.0 % of DIIS)
  Orb update                ....       0.000 sec  (  0.0 % of DIIS)
  Wake-sleep                ....       0.000 sec  (  1.0 % of DIIS)
SOSCF solution              ....       0.007 sec  (  0.1%)
  MO trafo                  ....       0.005 sec  ( 77.3 % of SOSCF)
  Orb grad                  ....       0.000 sec  (  0.6 % of SOSCF)
  Rot update                ....       0.000 sec  (  0.3 % of SOSCF)
  Step                      ....       0.001 sec  ( 21.5 % of SOSCF)
Finished LeanSCF after   5.5 sec

Maximum memory used throughout the entire LEANSCF-calculation: 17.8 MB


-------------------------------------------------------------------------------
                          DFT DISPERSION CORRECTION                            
                                                                               
                                DFTD4 V3.4.0                                   
-------------------------------------------------------------------------------
The R2SCAN3C composite method is recognized
Using three-body term ABC
Active option DFTDOPT                   ...         5   

-------------------------   ----------------
Dispersion correction           -0.004215567
-------------------------   ----------------

------------------   -----------------
gCP correction             0.011121996
------------------   -----------------

-------------------------   --------------------
FINAL SINGLE POINT ENERGY     -2377.661347074292
-------------------------   --------------------


------------------------------------------------------------------------------
                              ORCA PROPERTY CALCULATIONS
------------------------------------------------------------------------------

GBWName                                 ... sp.gbw
Number of atoms                         ...      8
Number of basis functions               ...    178
Max core memory                         ...   1024 MB

Electric properties:
Dipole moment                           ... YES
Quadrupole moment                       ...  NO
Static polarizability (Dipole/Dipole)   ...  NO
Static polarizability (Dipole/Quad.)    ...  NO
Static polarizability (Quad./Quad.)     ...  NO
Static polarizability (Velocity)        ...  NO

Atomic electric properties:
Dipole moment                           ...  NO
Quadrupole moment                       ...  NO
Static polarizability                   ...  NO

Choice of electric origin               ... Center of mass
Position of electric origin             ...    -0.000001     0.000000     0.000002

General magnetic properties:
Magnetizability                         ...  NO

EPR properties:
g-Tensor (aka g-matrix)                 ...  NO
Zero-Field splitting spin-orbit         ...  NO
Zero-field splitting spin-spin          ...  NO
Hyperfine couplings                     ...  NO (   0 nuclei)
Quadrupole couplings                    ...  NO (   0 nuclei)
Contact density                         ...  NO (   0 nuclei)

NMR properties:
Chemical shifts                         ...  NO (   0 nuclei)
Spin-rotation constants                 ...  NO (   0 nuclei)
Spin-spin couplings                     ...  NO (   0 nuclei,    0 pairs)

Choice of magnetic origin               ... GIAO
Position of magnetic origin             ...     0.000000     0.000000     0.000000

Properties with geometric perturbations:
SCF Hessian                             ...  NO
IR spectrum                             ...  NO
VCD spectrum                            ...  NO
X-ray spectroscopy properties:
SCF XES/XAS/RIXS spectra                ...  NO


-------------
DIPOLE MOMENT
-------------

Method             : SCF
Type of density    : Electron Density
Multiplicity       :   1
Irrep              :   0
Energy             : -2377.6682535034715329 Eh
Relativity type    : 
Basis              : AO
                                X                 Y                 Z
Electronic contribution:      0.801102297      -0.000325673      -1.651792912
Nuclear contribution   :     -0.764664121       0.000055390       2.028731536
                        -----------------------------------------
Total Dipole Moment    :      0.036438176      -0.000270282       0.376938624
                        -----------------------------------------
Magnitude (a.u.)       :      0.378695841
Magnitude (Debye)      :      0.962568332



--------------------
Rotational spectrum 
--------------------
 
Rotational constants in cm-1:             0.038595             0.032756             0.025100 
Rotational constants in MHz :          1157.059168           982.015058           752.478336 

Dipole components along the rotational axes: 
x,y,z [a.u.] :    -0.036438    -0.000270     0.376939 
x,y,z [Debye]:    -0.092618    -0.000687     0.958102 

 

Dipole moment calculation done in   0.0 sec 

Maximum memory used throughout the entire PROP-calculation: 11.3 MB

--------------------------------
SUGGESTED CITATIONS FOR THIS RUN
--------------------------------

Below you find a list of papers that are relevant to this ORCA run
We neither can nor want to force you to cite these papers, but we appreciate if you do
You receive ORCA, which is the product of decades of hard work by many enthusiastic individuals, for free
The only thing we kindly ask in return is that you cite our papers,
We deeply appreciate it, if you show your appreciation for ORCA by not just citing the generic ORCA reference.

Please note that relegating all ORCA citations to the supporting information does *not* help us.
SI sections are not indexed - citations you put there will not count into any citation statistics
But we need these citations in order to attract the funding resources that allow us to do what we are doing

Therefore, if you are a happy ORCA user, please consider citing a few of the papers listed below in the main body of your paper

In addition to the list printed below, the program has created the file sp.bibtex that contains the list in bibtex format
You can import this file easily into all common literature databanks and citation aid programs


List of essential papers. We consider these as the minimum necessary citations

  1. Neese,F.
     Software update: the ORCA program system, version 5.0
     WIRES Comput. Molec. Sci., 2022 12(1)e1606
     doi.org/10.1002/wcms.1606
  2. Grimme,S.; Hansen,A.; Ehlert,S.; Mewes,J.
     r2SCAN-3c: A 'Swiss army knife' composite electronic-structure method
     J. Chem. Phys., 2021 154 064103
     doi.org/10.1063/5.0040021

List of papers to cite with high priority. The work reported in these papers was absolutely
necessary for this run to complete.
Our perspective: the developers of density functionals and basis sets usually get cited in chemistry papers
Good! But without the algorithms to do something with them, the functionals or basis sets would not do anything.
Hence, in our opinion, the algorithm design and method developments papers are equally worthy of getting cited

  1. Neese,F.
     An improvement of the resolution of the identity approximation for the formation of the Coulomb matrix
     J. Comp. Chem., 2003 24(14)1740-1747
     doi.org/10.1002/jcc.10318
  2. Neese,F.
     The SHARK Integral Generation and Digestion System
     J. Comp. Chem., 2022  1-16
     doi.org/10.1002/jcc.26942
  3. Lehtola,S.; Steigemann,C.; Oliveira,M.; Marques,M.
     Recent developments in Libxc - A comprehensive library of functionals for density functional theory
     Software X, 2018 7 
     doi.org/10.1016/j.softx.2017.11.002
  4. Caldeweyher,E.; Bannwarth,C.; Grimme,S.
     Extension of the D3 dispersion coefficient model
     J. Chem. Phys., 2017 147 034112
     doi.org/10.1063/1.4993215
  5. Caldeweyher,E.; Ehlert,S.; Hansen,A.; Neugebauer,H.; Spicher,S.; Bannwarth,C.; Grimme,S.
     A generally applicable atomic-charge dependent London dispersion correction
     J. Chem. Phys., 2019 150 154122
     doi.org/10.1063/1.5090222
  6. Caldeweyher,E.; Mewes,J.; Ehlert,S.; Grimme,S.
     Extension and evaluation of the D4 London-dispersion model for periodic systems
     Phys. Chem. Chem. Phys., 2020 22(16)8499-8512
     doi.org/10.1039/D0CP00502A
  7. Wittmann,L.; Gordiy,I.; Friede,M.; Helmich-Paris,B.; Grimme,S.; Hansen,A.; Bursch,M.
     Extension of the D3 and D4 London Dispersion Corrections to the full Actinides Series
     Phys. Chem. Chem. Phys., 2024 26(32)21379-21394
     doi.org/https://doi.org/10.1039/D4CP01514B 

List of suggested additional citations. These are papers that are important in the 'surrounding' of 
of this run, or papers that preceded the highly important papers. If you like your results we are grateful for a citation.

  1. Neese,F.
     The ORCA program system
     WIRES Comput. Molec. Sci., 2012 2(1)73-78
     doi.org/10.1002/wcms.81
  2. Neese,F.
     Software update: the ORCA program system, version 4.0
     WIRES Comput. Molec. Sci., 2018 8(1)1-6
     doi.org/10.1002/wcms.1327
  3. Neese,F.; Wennmohs,F.; Becker,U.; Riplinger,C.
     The ORCA quantum chemistry program package
     J. Chem. Phys., 2020 152 Art. No. L224108
     doi.org/10.1063/5.0004608

List of optional additional citations

  1. Neese,F.
     Approximate second-order SCF convergence for spin unrestricted wavefunctions
     Chem. Phys. Lett., 2000 325(1-3)93-98
     doi.org/10.1016/s0009-2614(00)00662-x

Timings for individual modules:

Sum of individual times          ...        5.875 sec (=   0.098 min)
Startup calculation              ...        0.313 sec (=   0.005 min)   5.3 %
SCF iterations                   ...        5.528 sec (=   0.092 min)  94.1 %
Property calculations            ...        0.034 sec (=   0.001 min)   0.6 %
                             ****ORCA TERMINATED NORMALLY****
TOTAL RUN TIME: 0 days 0 hours 0 minutes 5 seconds 938 msec
