 Entering Gaussian System
 *********************************************
 Gaussian 98:
 frequency output generated by the xtb code
 *********************************************
                         Standard orientation:
 --------------------------------------------------------------------
  Center     Atomic     Atomic              Coordinates (Angstroms)
  Number     Number      Type              X           Y           Z
 --------------------------------------------------------------------
    1          6             0       -1.922473   -0.258982   -0.519826
    2          6             0       -1.174654   -0.085668    0.795722
    3          6             0        0.099780    0.726012    0.629394
    4         16             0        1.319919   -0.196609   -0.392733
    5          1             0       -2.822403   -0.849830   -0.369688
    6          1             0       -2.207473    0.708756   -0.927617
    7          1             0       -1.293091   -0.767673   -1.246363
    8          1             0       -0.921660   -1.065748    1.205950
    9          1             0       -1.813666    0.427629    1.519228
   10          1             0       -0.103212    1.671427    0.125428
   11          1             0        0.568224    0.915048    1.595352
   12          1             0        2.284930    0.714782   -0.295331
 --------------------------------------------------------------------
     1 basis functions        1 primitive gaussians
     1 alpha electrons        1 beta electrons

 Harmonic frequencies (cm**-1), IR intensities (km*mol⁻¹),
 Raman scattering activities (A**4/amu), Raman depolarization ratios,
 reduced masses (AMU), force constants (mDyne/A) and normal coordinates:
                      1                      2                      3
                        a                      a                      a 
 Frequencies --   101.4729               139.9295               202.9722
 Red. masses --     1.7950                 1.1920                 1.4112
 Frc consts  --     0.0000                 0.0000                 0.0000
 IR Inten    --    17.5986                24.0976                 1.4184
 Raman Activ --     0.0000                 0.0000                 0.0000
 Depolar     --     0.0000                 0.0000                 0.0000
 Atom AN      X      Y      Z        X      Y      Z        X      Y      Z
   1   6    -0.36   0.20   0.08    -0.26   0.02   0.11    -0.30  -0.02   0.07
   2   6     0.06  -0.18  -0.11     0.04  -0.06  -0.05    -0.14  -0.02  -0.03
   3   6    -0.08   0.02  -0.24    -0.06   0.06  -0.21    -0.02  -0.19  -0.03
   4  16     0.32  -0.09   0.26     0.16   0.05  -0.02     0.36   0.14  -0.04
   5   1    -0.03  -0.05   0.04    -0.01  -0.08   0.06    -0.32   0.38   0.15
   6   1    -0.24   0.09   0.19    -0.19   0.01   0.12     0.29   0.01  -0.20
   7   1    -0.13   0.22  -0.11    -0.09   0.10  -0.05    -0.28  -0.41   0.14
   8   1     0.09  -0.08  -0.15     0.06  -0.02  -0.06    -0.10  -0.00   0.03
   9   1     0.07  -0.15   0.08     0.04  -0.06   0.04    -0.00   0.06  -0.02
  10   1    -0.06  -0.05  -0.16    -0.04  -0.01  -0.10     0.01  -0.04   0.02
  11   1    -0.06   0.12  -0.07    -0.02   0.07  -0.07    -0.02  -0.08   0.01
  12   1    -0.15   0.25  -0.38     0.31  -0.36   0.70    -0.00   0.09   0.04
                      4                      5                      6
                        a                      a                      a 
 Frequencies --   279.2144               403.2681               675.9748
 Red. masses --     1.8031                 2.2742                 3.5012
 Frc consts  --     0.0000                 0.0000                 0.0000
 IR Inten    --     0.8826                 0.7678                 5.1472
 Raman Activ --     0.0000                 0.0000                 0.0000
 Depolar     --     0.0000                 0.0000                 0.0000
 Atom AN      X      Y      Z        X      Y      Z        X      Y      Z
   1   6     0.21   0.12  -0.01     0.28   0.20   0.09    -0.05  -0.03  -0.03
   2   6     0.31  -0.30  -0.02    -0.26  -0.10   0.39    -0.19   0.03   0.09
   3   6    -0.07   0.25  -0.13    -0.32  -0.18  -0.22    -0.32   0.48   0.37
   4  16    -0.34  -0.03   0.15     0.19  -0.02  -0.15     0.33  -0.25  -0.26
   5   1    -0.11   0.30   0.01     0.04   0.06  -0.21    -0.01  -0.02  -0.05
   6   1     0.34   0.10  -0.05     0.18   0.11   0.07     0.01  -0.03  -0.08
   7   1    -0.07  -0.17   0.03     0.21   0.13   0.09     0.05  -0.03   0.06
   8   1     0.23  -0.11  -0.16    -0.14  -0.02   0.17     0.13  -0.02  -0.15
   9   1     0.07  -0.26   0.10    -0.06   0.06   0.06    -0.14  -0.24   0.13
  10   1    -0.12   0.01  -0.12    -0.20  -0.15  -0.21    -0.03   0.14   0.11
  11   1    -0.01   0.20  -0.07    -0.03   0.16  -0.14    -0.05   0.05   0.10
  12   1     0.03  -0.10   0.01    -0.06   0.08   0.10     0.12  -0.11  -0.12
                      7                      8                      9
                        a                      a                      a 
 Frequencies --   794.8684               847.1946               874.7056
 Red. masses --     1.1592                 1.2834                 1.3099
 Frc consts  --     0.0000                 0.0000                 0.0000
 IR Inten    --     3.3283                10.9450                 2.2663
 Raman Activ --     0.0000                 0.0000                 0.0000
 Depolar     --     0.0000                 0.0000                 0.0000
 Atom AN      X      Y      Z        X      Y      Z        X      Y      Z
   1   6     0.06   0.06   0.11    -0.10   0.03   0.04     0.10  -0.09   0.16
   2   6    -0.02   0.22  -0.03    -0.22   0.03   0.11     0.02  -0.11  -0.07
   3   6    -0.10  -0.05  -0.22     0.13  -0.13  -0.26    -0.25   0.15  -0.32
   4  16    -0.01  -0.10   0.01    -0.04   0.19   0.14     0.04  -0.02   0.06
   5   1     0.07  -0.06   0.02     0.00  -0.09  -0.19    -0.07   0.09  -0.09
   6   1    -0.01  -0.08  -0.17     0.02  -0.07  -0.20     0.16   0.13   0.30
   7   1     0.15  -0.05   0.19     0.24  -0.02   0.25    -0.05   0.10  -0.10
   8   1     0.21  -0.01  -0.29     0.00  -0.08  -0.20     0.10   0.11   0.24
   9   1     0.07  -0.20   0.24     0.12  -0.10   0.26    -0.04   0.12  -0.15
  10   1     0.16   0.12   0.13     0.06   0.04   0.05     0.07   0.29   0.34
  11   1     0.03  -0.29  -0.03     0.03  -0.15  -0.04    -0.05  -0.47   0.01
  12   1    -0.39   0.34   0.34     0.39  -0.34  -0.36     0.09  -0.07  -0.10
                     10                     11                     12
                        a                      a                      a 
 Frequencies --   950.4973              1047.4974              1075.4841
 Red. masses --     1.8767                 1.2809                 1.3502
 Frc consts  --     0.0000                 0.0000                 0.0000
 IR Inten    --     0.9059                 1.3177                 1.5505
 Raman Activ --     0.0000                 0.0000                 0.0000
 Depolar     --     0.0000                 0.0000                 0.0000
 Atom AN      X      Y      Z        X      Y      Z        X      Y      Z
   1   6    -0.32  -0.21  -0.22    -0.06   0.12  -0.27     0.25  -0.02  -0.12
   2   6    -0.10  -0.12   0.29     0.15  -0.12   0.26    -0.32   0.07   0.22
   3   6     0.39   0.23  -0.03    -0.05   0.13  -0.09     0.11  -0.06  -0.13
   4  16    -0.03  -0.02   0.00     0.03  -0.06   0.05    -0.01   0.07   0.05
   5   1    -0.20   0.02  -0.47     0.07  -0.05   0.13     0.06   0.08   0.33
   6   1     0.15   0.08   0.09    -0.18  -0.09  -0.24    -0.10   0.01   0.12
   7   1     0.05   0.09  -0.05    -0.06  -0.08  -0.03    -0.26  -0.06  -0.27
   8   1     0.11   0.03   0.14    -0.21  -0.09   0.06     0.11   0.01  -0.08
   9   1    -0.03  -0.04   0.08     0.10   0.11   0.02    -0.41  -0.31  -0.00
  10   1     0.17   0.07  -0.02    -0.45   0.13   0.32     0.21   0.00  -0.08
  11   1     0.20   0.06  -0.05     0.42  -0.12  -0.20     0.27  -0.05  -0.14
  12   1    -0.15   0.14   0.14    -0.03   0.02   0.02     0.06  -0.04  -0.05
                     13                     14                     15
                        a                      a                      a 
 Frequencies --  1123.5803              1197.2459              1239.5980
 Red. masses --     2.4478                 1.4750                 1.2884
 Frc consts  --     0.0000                 0.0000                 0.0000
 IR Inten    --     1.7142                 2.0766                 6.6006
 Raman Activ --     0.0000                 0.0000                 0.0000
 Depolar     --     0.0000                 0.0000                 0.0000
 Atom AN      X      Y      Z        X      Y      Z        X      Y      Z
   1   6    -0.10  -0.08  -0.36    -0.01  -0.24   0.17    -0.17   0.20   0.10
   2   6     0.32   0.31   0.31     0.00   0.36  -0.27     0.17  -0.17  -0.14
   3   6    -0.33  -0.29   0.06    -0.05  -0.18   0.15    -0.24  -0.04   0.13
   4  16     0.01   0.04   0.00     0.01   0.00   0.03    -0.01   0.05   0.03
   5   1    -0.05   0.03  -0.06    -0.11   0.06  -0.18     0.04  -0.09  -0.06
   6   1    -0.03   0.01  -0.03     0.19   0.09   0.24    -0.02  -0.04  -0.21
   7   1    -0.11   0.01  -0.18     0.04   0.11  -0.03     0.16  -0.02   0.24
   8   1     0.39   0.17   0.12     0.06   0.04  -0.23     0.21   0.12   0.24
   9   1     0.15   0.01   0.19    -0.06  -0.08  -0.00    -0.24  -0.04  -0.29
  10   1     0.04  -0.10  -0.06    -0.41  -0.10   0.09     0.29  -0.07  -0.20
  11   1    -0.11  -0.06   0.03     0.42   0.07  -0.21     0.43  -0.07  -0.20
  12   1     0.08  -0.07  -0.07     0.03  -0.02  -0.02     0.04  -0.03  -0.03
                     16                     17                     18
                        a                      a                      a 
 Frequencies --  1270.4607              1342.7324              1416.6713
 Red. masses --     1.1721                 1.4610                 1.2311
 Frc consts  --     0.0000                 0.0000                 0.0000
 IR Inten    --    17.6758                 1.4978                 6.5432
 Raman Activ --     0.0000                 0.0000                 0.0000
 Depolar     --     0.0000                 0.0000                 0.0000
 Atom AN      X      Y      Z        X      Y      Z        X      Y      Z
   1   6    -0.10   0.14   0.04    -0.09  -0.08   0.08    -0.23  -0.07  -0.36
   2   6     0.03   0.05   0.04     0.45   0.19   0.25     0.09   0.04   0.03
   3   6     0.29  -0.13  -0.13    -0.10   0.01  -0.09    -0.01  -0.03  -0.03
   4  16     0.01  -0.03  -0.01    -0.00   0.01   0.00    -0.00  -0.00  -0.00
   5   1     0.02  -0.04  -0.04    -0.07  -0.00  -0.20     0.08  -0.04   0.48
   6   1    -0.04  -0.04  -0.14     0.04  -0.03  -0.07     0.23   0.24   0.38
   7   1     0.06  -0.01   0.11    -0.03   0.07  -0.06     0.40  -0.00   0.33
   8   1     0.33   0.16   0.17    -0.47  -0.23  -0.25    -0.11  -0.03   0.01
   9   1    -0.43  -0.22  -0.22    -0.37  -0.17  -0.22    -0.07  -0.08  -0.00
  10   1    -0.43   0.00   0.22     0.13   0.01  -0.06     0.04   0.04   0.06
  11   1    -0.31   0.07   0.14    -0.12  -0.11   0.05    -0.03   0.06  -0.00
  12   1    -0.01   0.00   0.01     0.02  -0.01  -0.01    -0.00  -0.00  -0.00
                     19                     20                     21
                        a                      a                      a 
 Frequencies --  1445.1675              1479.9526              1500.1559
 Red. masses --     1.0972                 1.0891                 1.0545
 Frc consts  --     0.0000                 0.0000                 0.0000
 IR Inten    --     2.5762                 1.1598                 3.1010
 Raman Activ --     0.0000                 0.0000                 0.0000
 Depolar     --     0.0000                 0.0000                 0.0000
 Atom AN      X      Y      Z        X      Y      Z        X      Y      Z
   1   6    -0.00   0.01   0.06     0.00   0.00   0.05     0.16  -0.12  -0.06
   2   6     0.01  -0.03   0.02     0.08   0.09  -0.25     0.05  -0.01  -0.03
   3   6    -0.13  -0.25  -0.07    -0.01  -0.02  -0.02    -0.02  -0.02  -0.01
   4  16     0.01  -0.01  -0.01    -0.00   0.00   0.00    -0.00  -0.00  -0.00
   5   1     0.02  -0.04  -0.05     0.02  -0.03  -0.00    -0.37   0.56  -0.02
   6   1     0.03  -0.02  -0.07     0.07  -0.02  -0.10    -0.58  -0.14   0.10
   7   1    -0.05   0.02  -0.05    -0.04   0.07  -0.08     0.29   0.07   0.18
   8   1     0.03  -0.03  -0.08    -0.37   0.14   0.54    -0.03   0.01   0.06
   9   1     0.00   0.08  -0.07     0.05  -0.52   0.39    -0.02  -0.05   0.00
  10   1     0.31   0.32   0.49     0.04   0.04   0.06     0.04   0.03   0.04
  11   1     0.01   0.64  -0.14     0.01   0.07  -0.02     0.00   0.06  -0.01
  12   1     0.00  -0.00  -0.00     0.01  -0.00  -0.00    -0.00  -0.00   0.00
                     22                     23                     24
                        a                      a                      a 
 Frequencies --  1501.1007              2437.7718              2961.1260
 Red. masses --     1.0590                 1.0388                 1.0837
 Frc consts  --     0.0000                 0.0000                 0.0000
 IR Inten    --     3.4951               136.0491                33.9650
 Raman Activ --     0.0000                 0.0000                 0.0000
 Depolar     --     0.0000                 0.0000                 0.0000
 Atom AN      X      Y      Z        X      Y      Z        X      Y      Z
   1   6    -0.09  -0.17   0.08    -0.00   0.00   0.00    -0.02   0.01   0.01
   2   6    -0.05  -0.06   0.03    -0.00   0.00  -0.00     0.16  -0.18  -0.13
   3   6     0.02   0.02   0.00    -0.00   0.00   0.00     0.01   0.03   0.00
   4  16    -0.00  -0.00   0.00    -0.12  -0.12  -0.01    -0.00   0.00   0.00
   5   1    -0.08   0.19   0.35    -0.00  -0.00   0.00     0.01   0.01  -0.00
   6   1     0.26  -0.12  -0.43    -0.00   0.00   0.00     0.01  -0.04   0.02
   7   1     0.21   0.63  -0.25     0.00  -0.00   0.00     0.04  -0.03  -0.05
   8   1     0.07  -0.01  -0.03     0.00  -0.00  -0.00    -0.04   0.23  -0.12
   9   1     0.01   0.07  -0.03     0.00   0.00  -0.00    -0.53   0.43   0.60
  10   1    -0.01  -0.01  -0.03    -0.00  -0.00   0.00     0.02  -0.11   0.06
  11   1    -0.00  -0.03   0.01    -0.00   0.00  -0.00    -0.04  -0.01  -0.08
  12   1    -0.00   0.00   0.00     0.71   0.68   0.08     0.00  -0.00  -0.00
                     25                     26                     27
                        a                      a                      a 
 Frequencies --  2972.3260              2982.6112              2987.1200
 Red. masses --     1.0890                 1.0526                 1.0686
 Frc consts  --     0.0000                 0.0000                 0.0000
 IR Inten    --     5.9927                20.9777                32.1814
 Raman Activ --     0.0000                 0.0000                 0.0000
 Depolar     --     0.0000                 0.0000                 0.0000
 Atom AN      X      Y      Z        X      Y      Z        X      Y      Z
   1   6    -0.00   0.00  -0.00    -0.01   0.00   0.01     0.01   0.03  -0.01
   2   6     0.01   0.06  -0.06     0.02  -0.01  -0.03     0.02  -0.18   0.12
   3   6     0.09  -0.15   0.21    -0.08  -0.13  -0.14     0.03  -0.09   0.08
   4  16     0.00  -0.00   0.00     0.00  -0.00  -0.00    -0.00  -0.00  -0.00
   5   1     0.00   0.00  -0.00     0.00   0.00  -0.00    -0.05  -0.03   0.01
   6   1    -0.00   0.00  -0.00    -0.00   0.00  -0.00     0.03  -0.11   0.05
   7   1    -0.00  -0.00  -0.00     0.02  -0.01  -0.02    -0.00   0.01   0.00
   8   1     0.09  -0.33   0.13     0.01  -0.04   0.01    -0.20   0.76  -0.30
   9   1    -0.10   0.09   0.10    -0.09   0.07   0.10     0.13  -0.13  -0.13
  10   1    -0.13   0.65  -0.35    -0.10   0.37  -0.24    -0.07   0.32  -0.18
  11   1    -0.19  -0.09  -0.38     0.37   0.12   0.76    -0.05  -0.03  -0.09
  12   1    -0.00   0.00  -0.00     0.00   0.00   0.00     0.00   0.00  -0.00
                     28                     29                     30
                        a                      a                      a 
 Frequencies --  3031.4808              3041.4369              3045.1143
 Red. masses --     1.0810                 1.0922                 1.0426
 Frc consts  --     0.0000                 0.0000                 0.0000
 IR Inten    --    41.0001                44.3416                19.6608
 Raman Activ --     0.0000                 0.0000                 0.0000
 Depolar     --     0.0000                 0.0000                 0.0000
 Atom AN      X      Y      Z        X      Y      Z        X      Y      Z
   1   6     0.06  -0.25   0.07    -0.24   0.01   0.16    -0.10  -0.15  -0.08
   2   6     0.01  -0.04   0.01    -0.02   0.01   0.02     0.00  -0.01  -0.00
   3   6     0.00  -0.01   0.01     0.00  -0.00   0.01     0.00  -0.00  -0.00
   4  16    -0.00  -0.00  -0.00     0.00  -0.00  -0.00    -0.00  -0.00   0.00
   5   1     0.09   0.01  -0.01     0.44   0.32  -0.07     0.66   0.42  -0.13
   6   1    -0.24   0.84  -0.35    -0.05   0.04   0.01     0.03  -0.15   0.05
   7   1    -0.07   0.02   0.09     0.45  -0.38  -0.51    -0.34   0.24   0.36
   8   1    -0.03   0.12  -0.04    -0.01   0.02  -0.01    -0.01   0.02  -0.01
   9   1    -0.01   0.01   0.01     0.05  -0.04  -0.05    -0.01   0.01   0.01
  10   1    -0.01   0.04  -0.02    -0.00   0.01  -0.01    -0.00   0.01  -0.00
  11   1    -0.01  -0.00  -0.01    -0.01  -0.00  -0.02     0.00   0.00   0.01
  12   1     0.00   0.00   0.00    -0.00  -0.00  -0.00     0.00   0.00   0.00
