      -----------------------------------------------------------      
     |                   =====================                   |     
     |                           x T B                           |     
     |                   =====================                   |     
     |                         S. Grimme                         |     
     |          Mulliken Center for Theoretical Chemistry        |     
     |                    University of Bonn                     |     
      -----------------------------------------------------------      

   * xtb version 6.7.1 (41059b4) compiled by 'michael@archlinux' on 2025-03-24

   xtb is free software: you can redistribute it and/or modify it under
   the terms of the GNU Lesser General Public License as published by
   the Free Software Foundation, either version 3 of the License, or
   (at your option) any later version.
   
   xtb is distributed in the hope that it will be useful,
   but WITHOUT ANY WARRANTY; without even the implied warranty of
   MERCHANTABILITY or FITNESS FOR A PARTICULAR PURPOSE.  See the
   GNU Lesser General Public License for more details.
   
   Cite this work as:
   * C. Bannwarth, E. Caldeweyher, S. Ehlert, A. Hansen, P. Pracht,
     J. Seibert, S. Spicher, S. Grimme, WIREs Comput. Mol. Sci., 2020, 11,
     e01493. DOI: 10.1002/wcms.1493
   
   for GFN2-xTB:
   * C. Bannwarth, S. Ehlert and S. Grimme., J. Chem. Theory Comput., 2019,
     15, 1652-1671. DOI: 10.1021/acs.jctc.8b01176
   for GFN1-xTB:
   * S. Grimme, C. Bannwarth, P. Shushkov, J. Chem. Theory Comput., 2017,
     13, 1989-2009. DOI: 10.1021/acs.jctc.7b00118
   for GFN0-xTB:
   * P. Pracht, E. Caldeweyher, S. Ehlert, S. Grimme, ChemRxiv, 2019, preprint.
     DOI: 10.26434/chemrxiv.8326202.v1
   for GFN-FF:
   * S. Spicher and S. Grimme, Angew. Chem. Int. Ed., 2020, 59, 15665-15673.
     DOI: 10.1002/anie.202004239
   
   for ALPB and GBSA implicit solvation:
   * S. Ehlert, M. Stahn, S. Spicher, S. Grimme, J. Chem. Theory Comput.,
     2021, 17, 4250-4261. DOI: 10.1021/acs.jctc.1c00471
   
   for ddCOSMO and CPCM-X implicit solvation:
   * M. Stahn, S. Ehlert, S. Grimme, J. Phys. Chem. A,
     2023, XX, XXXX-XXXX. DOI: 10.1021/acs.jpca.3c04382
   
   for DFT-D4:
   * E. Caldeweyher, C. Bannwarth and S. Grimme, J. Chem. Phys., 2017,
     147, 034112. DOI: 10.1063/1.4993215
   * E. Caldeweyher, S. Ehlert, A. Hansen, H. Neugebauer, S. Spicher,
     C. Bannwarth and S. Grimme, J. Chem. Phys., 2019, 150, 154122.
     DOI: 10.1063/1.5090222
   * E. Caldeweyher, J.-M. Mewes, S. Ehlert and S. Grimme, Phys. Chem. Chem. Phys.
     2020, 22, 8499-8512. DOI: 10.1039/D0CP00502A
   
   for sTDA-xTB:
   * S. Grimme and C. Bannwarth, J. Chem. Phys., 2016, 145, 054103.
     DOI: 10.1063/1.4959605
   
   in the mass-spec context:
   * V. Asgeirsson, C. Bauer and S. Grimme, Chem. Sci., 2017, 8, 4879.
     DOI: 10.1039/c7sc00601b
   * J. Koopman and S. Grimme, ACS Omega 2019, 4, 12, 15120-15133.
     DOI: 10.1021/acsomega.9b02011
   
   for metadynamics refer to:
   * S. Grimme, J. Chem. Theory Comput., 2019, 155, 2847-2862
     DOI: 10.1021/acs.jctc.9b00143
   
   for SPH calculations refer to:
   * S. Spicher and S. Grimme, J. Chem. Theory Comput., 2021, 17, 1701-1714
     DOI: 10.1021/acs.jctc.0c01306
   
   for ONIOM refer to:
   * C. Plett, A. Katbashev, S. Ehlert, S. Grimme, M. Bursch,
     Phys. Chem. Chem. Phys., 2023, 25, 17860-17868. DOI: 10.1039/D3CP02178E
   
   for DIPRO refer to:
   * J. Kohn, N. Gildemeister, S. Grimme, D. Fazzi, A. Hansen,
     J. Chem. Phys., 2023, just accepted.
   
   for PTB refer to:
   * S. Grimme, M. Mueller, A. Hansen, J. Chem. Phys., 2023, 158, 124111.
     DOI: 10.1063/5.0137838
   
   with help from (in alphabetical order)
   P. Atkinson, C. Bannwarth, F. Bohle, G. Brandenburg, E. Caldeweyher
   M. Checinski, S. Dohm, S. Ehlert, S. Ehrlich, I. Gerasimov, C. Hölzer
   A. Katbashev, J. Kohn, J. Koopman, C. Lavigne, S. Lehtola, F. März, M. Müller,
   F. Musil, H. Neugebauer, J. Pisarek, C. Plett, P. Pracht, F. Pultar,
   J. Seibert, P. Shushkov, S. Spicher, M. Stahn, M. Steiner, T. Strunk,
   J. Stückrath, T. Rose, and J. Unsleber
   
 * started run on 2025/04/09 at 01:47:52.248     
   ID    Z sym.   atoms
    1    6 C      1-3
    2   16 S      4
    3    1 H      5-12

           -------------------------------------------------
          |                Calculation Setup                |
           -------------------------------------------------

          program call               : /usr/bin/xtb xtb_rrho.coord --gfn2 --ohess vtight --chrg 0 --enso --norestart -I rrho-xcontrol-inp --parallel 1
          coordinate file            : xtb_rrho.coord
          omp threads                :                     1


           -------------------------------------------------
          |                 G F N 2 - x T B                 |
           -------------------------------------------------

        Reference                      10.1021/acs.jctc.8b01176
      * Hamiltonian:
        H0-scaling (s, p, d)           1.850000    2.230000    2.230000
        zeta-weighting                 0.500000
      * Dispersion:
        s8                             2.700000
        a1                             0.520000
        a2                             5.000000
        s9                             5.000000
      * Repulsion:
        kExp                           1.500000    1.000000
        rExp                           1.000000
      * Coulomb:
        alpha                          2.000000
        third order                    shell-resolved
        anisotropic                    true
        a3                             3.000000
        a5                             4.000000
        cn-shift                       1.200000
        cn-exp                         4.000000
        max-rad                        5.000000


          ...................................................
          :                      SETUP                      :
          :.................................................:
          :  # basis functions                  30          :
          :  # atomic orbitals                  29          :
          :  # shells                           17          :
          :  # electrons                        26          :
          :  max. iterations                   250          :
          :  Hamiltonian                  GFN2-xTB          :
          :  restarted?                      false          :
          :  GBSA solvation                  false          :
          :  PC potential                    false          :
          :  electronic temp.          300.0000000     K    :
          :  accuracy                    1.0000000          :
          :  -> integral cutoff          0.2500000E+02      :
          :  -> integral neglect         0.1000000E-07      :
          :  -> SCF convergence          0.1000000E-05 Eh   :
          :  -> wf. convergence          0.1000000E-03 e    :
          :  Broyden damping             0.4000000          :
          :  net charge                          0          :
          :  unpaired electrons                  0          :
          ...................................................

 iter      E             dE          RMSdq      gap      omega  full diag
   1    -13.8595604 -0.138596E+02  0.353E+00    5.24       0.0  T
   2    -13.8930627 -0.335023E-01  0.200E+00    4.66       1.0  T
   3    -13.8945521 -0.148943E-02  0.857E-01    4.57       1.0  T
   4    -13.8951865 -0.634347E-03  0.296E-01    4.42       1.0  T
   5    -13.8952168 -0.302994E-04  0.125E-01    4.43       1.0  T
   6    -13.8952321 -0.152860E-04  0.340E-02    4.43       1.0  T
   7    -13.8952328 -0.700397E-06  0.143E-02    4.43       2.0  T
   8    -13.8952329 -0.171012E-06  0.338E-03    4.43       8.5  T
   9    -13.8952329 -0.231679E-08  0.500E-04    4.43      57.7  T
  10    -13.8952329 -0.873559E-10  0.265E-04    4.43     109.0  T

   *** convergence criteria satisfied after 10 iterations ***

         #    Occupation            Energy/Eh            Energy/eV
      -------------------------------------------------------------
         1        2.0000           -0.7069200             -19.2363
       ...           ...                  ...                  ...
         7        2.0000           -0.4937943             -13.4368
         8        2.0000           -0.4793262             -13.0431
         9        2.0000           -0.4678146             -12.7299
        10        2.0000           -0.4524669             -12.3123
        11        2.0000           -0.4474415             -12.1755
        12        2.0000           -0.4341557             -11.8140
        13        2.0000           -0.3662554              -9.9663 (HOMO)
        14                         -0.2035086              -5.5378 (LUMO)
        15                         -0.1246995              -3.3932
        16                         -0.0164399              -0.4474
        17                         -0.0055825              -0.1519
        18                          0.0118409               0.3222
       ...                                ...                  ...
        29                          0.5078761              13.8200
      -------------------------------------------------------------
                  HL-Gap            0.1627468 Eh            4.4286 eV
             Fermi-level           -0.2848820 Eh           -7.7520 eV

 SCC (total)                   0 d,  0 h,  0 min,  0.004 sec
 SCC setup                      ...        0 min,  0.000 sec (  1.357%)
 Dispersion                     ...        0 min,  0.000 sec (  1.011%)
 classical contributions        ...        0 min,  0.000 sec (  0.282%)
 integral evaluation            ...        0 min,  0.001 sec ( 16.163%)
 iterations                     ...        0 min,  0.002 sec ( 49.305%)
 molecular gradient             ...        0 min,  0.001 sec ( 30.017%)
 printout                       ...        0 min,  0.000 sec (  1.660%)

         :::::::::::::::::::::::::::::::::::::::::::::::::::::
         ::                     SUMMARY                     ::
         :::::::::::::::::::::::::::::::::::::::::::::::::::::
         :: total energy             -13.739828172505 Eh    ::
         :: gradient norm              0.014944857894 Eh/a0 ::
         :: HOMO-LUMO gap              4.428564795029 eV    ::
         ::.................................................::
         :: SCC energy               -13.895227579003 Eh    ::
         :: -> isotropic ES            0.005512653932 Eh    ::
         :: -> anisotropic ES          0.002965131478 Eh    ::
         :: -> anisotropic XC          0.009661541942 Eh    ::
         :: -> dispersion             -0.006194755526 Eh    ::
         :: repulsion energy           0.155399406498 Eh    ::
         :: add. restraining           0.000000000000 Eh    ::
         :: total charge               0.000000000000 e     ::
         :::::::::::::::::::::::::::::::::::::::::::::::::::::

      ----------------------------------------------------------- 
     |                   =====================                   |
     |                        A N C O P T                        |
     |                   =====================                   |
     |               Approximate Normal Coordinate               |
     |                Rational Function Optimizer                |
      ----------------------------------------------------------- 

          ...................................................
          :                      SETUP                      :
          :.................................................:
          :   optimization level         verytight          :
          :   max. optcycles                   240          :
          :   ANC micro-cycles                  20          :
          :   degrees of freedom                30          :
          :.................................................:
          :   RF solver                   davidson          :
          :   write xtbopt.log                true          :
          :   linear?                        false          :
          :   energy convergence         0.1000000E-06 Eh   :
          :   grad. convergence          0.2000000E-03 Eh/α :
          :   maximum RF displ.          1.0000000          :
          :   Hlow (freq-cutoff)         0.1000000E-01      :
          :   Hmax (freq-cutoff)         5.0000000          :
          :   S6 in model hess.         20.0000000          :
          ...................................................

generating ANC from exact Hessian ...
Using Lindh-Hessian (1995)
 Shifting diagonal of input Hessian by    6.5772870716651818E-003
 Lowest  eigenvalues of input Hessian
    0.000000    0.000000    0.000000    0.000000    0.000000    0.000000
    0.010000    0.013199    0.014038    0.018575    0.025051    0.030954
    0.047265    0.056713    0.058300    0.059734    0.066103    0.072770
 Highest eigenvalues
    1.030910    1.065505    1.083674    1.143595    1.185108    1.250945


........................................................................
.............................. CYCLE    1 ..............................
........................................................................

 iter      E             dE          RMSdq      gap      omega  full diag
   1    -13.8952329 -0.138952E+02  0.420E-05    4.43       0.0  T
   2    -13.8952329 -0.973444E-12  0.260E-05    4.43    1111.8  T
   3    -13.8952329 -0.106581E-12  0.103E-05    4.43    2798.3  T
     SCC iter.                  ...        0 min,  0.001 sec
     gradient                   ...        0 min,  0.001 sec
 * total energy  :   -13.7398282 Eh     change       -0.1840306E-10 Eh
   gradient norm :     0.0149457 Eh/α   predicted     0.0000000E+00 (-100.00%)
   displ. norm   :     0.1421890 α      lambda       -0.1133981E-02
   maximum displ.:     0.0914494 α      in ANC's #5, #8, #7, ...

........................................................................
.............................. CYCLE    2 ..............................
........................................................................

 iter      E             dE          RMSdq      gap      omega  full diag
   1    -13.9008490 -0.139008E+02  0.147E-01    4.47       0.0  T
   2    -13.9008517 -0.265245E-05  0.826E-02    4.46       1.0  T
   3    -13.9008522 -0.566903E-06  0.922E-03    4.46       3.1  T
   4    -13.9008523 -0.627084E-07  0.435E-03    4.46       6.6  T
   5    -13.9008523 -0.629014E-08  0.177E-03    4.46      16.3  T
   6    -13.9008523 -0.368931E-08  0.600E-04    4.46      48.1  T
   7    -13.9008523 -0.106878E-09  0.122E-04    4.46     235.9  T
     SCC iter.                  ...        0 min,  0.001 sec
     gradient                   ...        0 min,  0.001 sec
 * total energy  :   -13.7404831 Eh     change       -0.6549013E-03 Eh
   gradient norm :     0.0051855 Eh/α   predicted    -0.5784523E-03 ( -11.67%)
   displ. norm   :     0.0593207 α      lambda       -0.1015375E-03
   maximum displ.:     0.0363315 α      in ANC's #2, #3, #5, ...

........................................................................
.............................. CYCLE    3 ..............................
........................................................................

 iter      E             dE          RMSdq      gap      omega  full diag
   1    -13.9028302 -0.139028E+02  0.504E-02    4.47       0.0  T
   2    -13.9028310 -0.774057E-06  0.257E-02    4.46       1.1  T
   3    -13.9028310 -0.874997E-07  0.466E-03    4.46       6.2  T
   4    -13.9028311 -0.630332E-08  0.213E-03    4.46      13.6  T
   5    -13.9028311 -0.874236E-09  0.536E-04    4.46      53.8  T
   6    -13.9028311 -0.289534E-09  0.282E-04    4.46     102.4  T
     SCC iter.                  ...        0 min,  0.001 sec
     gradient                   ...        0 min,  0.001 sec
 * total energy  :   -13.7405441 Eh     change       -0.6105471E-04 Eh
   gradient norm :     0.0017972 Eh/α   predicted    -0.5094812E-04 ( -16.55%)
   displ. norm   :     0.0677424 α      lambda       -0.2509796E-04
   maximum displ.:     0.0512978 α      in ANC's #3, #2, #6, ...

........................................................................
.............................. CYCLE    4 ..............................
........................................................................

 iter      E             dE          RMSdq      gap      omega  full diag
   1    -13.9034658 -0.139035E+02  0.732E-02    4.48       0.0  T
   2    -13.9034665 -0.764482E-06  0.358E-02    4.48       1.0  T
   3    -13.9034667 -0.158319E-06  0.488E-03    4.48       5.9  T
   4    -13.9034667 -0.406896E-08  0.225E-03    4.48      12.8  T
   5    -13.9034667 -0.518660E-08  0.582E-04    4.48      49.6  T
   6    -13.9034667 -0.371900E-09  0.250E-04    4.48     115.3  T
     SCC iter.                  ...        0 min,  0.001 sec
     gradient                   ...        0 min,  0.001 sec
 * total energy  :   -13.7405651 Eh     change       -0.2098156E-04 Eh
   gradient norm :     0.0014737 Eh/α   predicted    -0.1257348E-04 ( -40.07%)
   displ. norm   :     0.0617832 α      lambda       -0.1404970E-04
   maximum displ.:     0.0521730 α      in ANC's #3, #2, #4, ...

........................................................................
.............................. CYCLE    5 ..............................
........................................................................

 iter      E             dE          RMSdq      gap      omega  full diag
   1    -13.9030349 -0.139030E+02  0.777E-02    4.47       0.0  T
   2    -13.9030355 -0.667380E-06  0.375E-02    4.47       1.0  T
   3    -13.9030357 -0.174447E-06  0.432E-03    4.47       6.7  T
   4    -13.9030357  0.154910E-08  0.124E-03    4.47      23.3  T
   5    -13.9030357 -0.462993E-08  0.315E-04    4.47      91.7  T
   6    -13.9030357 -0.354792E-10  0.913E-05    4.47     316.3  T
     SCC iter.                  ...        0 min,  0.001 sec
     gradient                   ...        0 min,  0.001 sec
 * total energy  :   -13.7405805 Eh     change       -0.1539750E-04 Eh
   gradient norm :     0.0010763 Eh/α   predicted    -0.7035775E-05 ( -54.31%)
   displ. norm   :     0.0596163 α      lambda       -0.1124609E-04
   maximum displ.:     0.0466343 α      in ANC's #3, #4, #1, ...

........................................................................
.............................. CYCLE    6 ..............................
........................................................................

 iter      E             dE          RMSdq      gap      omega  full diag
   1    -13.9026794 -0.139027E+02  0.729E-02    4.47       0.0  T
   2    -13.9026800 -0.584685E-06  0.351E-02    4.47       1.0  T
   3    -13.9026801 -0.145586E-06  0.405E-03    4.47       7.1  T
   4    -13.9026801 -0.735719E-09  0.132E-03    4.47      21.8  T
   5    -13.9026801 -0.201464E-08  0.241E-04    4.47     119.7  T
   6    -13.9026801 -0.119442E-10  0.103E-04    4.47     281.1  T
     SCC iter.                  ...        0 min,  0.001 sec
     gradient                   ...        0 min,  0.001 sec
 * total energy  :   -13.7405919 Eh     change       -0.1141184E-04 Eh
   gradient norm :     0.0006122 Eh/α   predicted    -0.5632798E-05 ( -50.64%)
   displ. norm   :     0.0459457 α      lambda       -0.4715785E-05
   maximum displ.:     0.0366711 α      in ANC's #3, #4, #2, ...

........................................................................
.............................. CYCLE    7 ..............................
........................................................................

 iter      E             dE          RMSdq      gap      omega  full diag
   1    -13.9028717 -0.139029E+02  0.552E-02    4.47       0.0  T
   2    -13.9028720 -0.344509E-06  0.266E-02    4.47       1.1  T
   3    -13.9028721 -0.871874E-07  0.325E-03    4.47       8.9  T
   4    -13.9028721  0.104125E-09  0.874E-04    4.47      33.0  T
   5    -13.9028721 -0.150729E-08  0.241E-04    4.47     119.6  T
     SCC iter.                  ...        0 min,  0.001 sec
     gradient                   ...        0 min,  0.001 sec
 * total energy  :   -13.7405962 Eh     change       -0.4289617E-05 Eh
   gradient norm :     0.0005140 Eh/α   predicted    -0.2360222E-05 ( -44.98%)
   displ. norm   :     0.0236321 α      lambda       -0.1214172E-05
   maximum displ.:     0.0190601 α      in ANC's #3, #2, #1, ...

........................................................................
.............................. CYCLE    8 ..............................
........................................................................

 iter      E             dE          RMSdq      gap      omega  full diag
   1    -13.9029651 -0.139030E+02  0.265E-02    4.47       0.0  T
   2    -13.9029652 -0.798323E-07  0.129E-02    4.47       2.2  T
   3    -13.9029652 -0.196243E-07  0.164E-03    4.47      17.6  T
   4    -13.9029652  0.462741E-10  0.420E-04    4.47      68.7  T
   5    -13.9029652 -0.391239E-09  0.124E-04    4.47     233.6  T
     SCC iter.                  ...        0 min,  0.001 sec
     gradient                   ...        0 min,  0.001 sec
 * total energy  :   -13.7405973 Eh     change       -0.1114610E-05 Eh
   gradient norm :     0.0002413 Eh/α   predicted    -0.6084713E-06 ( -45.41%)
   displ. norm   :     0.0120618 α      lambda       -0.3914004E-06
   maximum displ.:     0.0106740 α      in ANC's #3, #2, #1, ...

........................................................................
.............................. CYCLE    9 ..............................
........................................................................

 iter      E             dE          RMSdq      gap      omega  full diag
   1    -13.9029995 -0.139030E+02  0.154E-02    4.47       0.0  T
   2    -13.9029995 -0.291378E-07  0.735E-03    4.47       3.9  T
   3    -13.9029995 -0.698898E-08  0.836E-04    4.47      34.5  T
   4    -13.9029995 -0.240092E-10  0.255E-04    4.47     113.0  T
     SCC iter.                  ...        0 min,  0.001 sec
     gradient                   ...        0 min,  0.001 sec
 * total energy  :   -13.7405976 Eh     change       -0.3157351E-06 Eh
   gradient norm :     0.0001128 Eh/α   predicted    -0.1940395E-06 ( -38.54%)
   displ. norm   :     0.0037799 α      lambda       -0.9785315E-07
   maximum displ.:     0.0034303 α      in ANC's #3, #4, #5, ...

........................................................................
.............................. CYCLE   10 ..............................
........................................................................

 iter      E             dE          RMSdq      gap      omega  full diag
   1    -13.9030070 -0.139030E+02  0.582E-03    4.47       0.0  T
   2    -13.9030070 -0.397618E-08  0.284E-03    4.47      10.2  T
   3    -13.9030070 -0.104781E-08  0.324E-04    4.47      89.1  T
   4    -13.9030070  0.922640E-11  0.819E-05    4.47     352.6  T
     SCC iter.                  ...        0 min,  0.001 sec
     gradient                   ...        0 min,  0.001 sec
 * total energy  :   -13.7405977 Eh     change       -0.1066407E-06 Eh
   gradient norm :     0.0000695 Eh/α   predicted    -0.4769414E-07 ( -55.28%)
   displ. norm   :     0.0049131 α      lambda       -0.8582859E-07
   maximum displ.:     0.0032939 α      in ANC's #3, #2, #4, ...

........................................................................
.............................. CYCLE   11 ..............................
........................................................................

 iter      E             dE          RMSdq      gap      omega  full diag
   1    -13.9030025 -0.139030E+02  0.714E-03    4.47       0.0  T
   2    -13.9030025 -0.622481E-08  0.347E-03    4.47       8.3  T
   3    -13.9030025 -0.166610E-08  0.371E-04    4.47      77.8  T
   4    -13.9030025 -0.714095E-11  0.364E-05    4.47     794.0  T
     SCC iter.                  ...        0 min,  0.001 sec
     gradient                   ...        0 min,  0.001 sec
 * total energy  :   -13.7405978 Eh     change       -0.9567351E-07 Eh
   gradient norm :     0.0000752 Eh/α   predicted    -0.4228650E-07 ( -55.80%)
   displ. norm   :     0.0061063 α      lambda       -0.7313427E-07
   maximum displ.:     0.0036060 α      in ANC's #3, #2, #1, ...

   *** GEOMETRY OPTIMIZATION CONVERGED AFTER 11 ITERATIONS ***

------------------------------------------------------------------------
 total energy gain   :        -0.0007697 Eh       -0.4830 kcal/mol
 total RMSD          :         0.1081439 a0        0.0572 Å
 total power (kW/mol):        -0.1837060 (step)  -60.1711 (real)
------------------------------------------------------------------------

 ANCopt (total)                0 d,  0 h,  0 min,  0.034 sec
 optimizer setup                ...        0 min,  0.000 sec (  0.118%)
 model hessian                  ...        0 min,  0.001 sec (  3.887%)
 ANC generation                 ...        0 min,  0.000 sec (  0.348%)
 coordinate transformation      ...        0 min,  0.000 sec (  0.081%)
 single point calculation       ...        0 min,  0.030 sec ( 90.753%)
 optimization log               ...        0 min,  0.000 sec (  1.089%)
 hessian update                 ...        0 min,  0.000 sec (  0.118%)
 rational function              ...        0 min,  0.000 sec (  1.314%)

================
 final structure:
================
$coord
       -3.63294087646521       -0.48942152894945       -0.98234231342553      C
       -2.21977833807632       -0.16190353141751        1.50368813658260      C
        0.18854545262872        1.37196269026394        1.18938614957403      C
        2.49429058919474       -0.37152207238690       -0.74214987151903      S
       -5.33355755134748       -1.60597187925018       -0.69863004276198      H
       -4.17151953096021        1.33933500605028       -1.75295386649329      H
       -2.44357271061439       -1.45070082268337       -2.35529591861919      H
       -1.74168226355530       -2.01398439265560        2.27890548541327      H
       -3.42734551292231        0.80807833868573        2.87091358415900      H
       -0.19505968923621        3.15853805385037        0.23702975316963      H
        1.07376793672219        1.72919079034698        3.01478502459481      H
        4.31788634530362        1.35076558097172       -0.55807815595846      H
$end

 Bond Distances (Angstroems)
 ---------------------------
C1-C2=1.5231         C1-H5=1.0870         C1-H6=1.0881         C1-H7=1.0875         C2-C1=1.5231         C2-C3=1.5201         
C2-H8=1.0922         C2-H9=1.0933         C3-C2=1.5201         C3-S4=1.8398         C3-H10=1.0904        C3-H11=1.0901        
S4-C3=1.8398         S4-H12=1.3309        H5-C1=1.0870         H6-C1=1.0881         H7-C1=1.0875         H8-C2=1.0922         
H9-C2=1.0933         H10-C3=1.0904        H11-C3=1.0901        H12-S4=1.3309        
 C  H  Rav=1.0898 sigma=0.0022  Rmin=1.0870  Rmax=1.0933     7
 C  C  Rav=1.5216 sigma=0.0015  Rmin=1.5201  Rmax=1.5231     2
 S  H  Rav=1.3309 sigma=0.0000  Rmin=1.3309  Rmax=1.3309     1
 S  C  Rav=1.8398 sigma=0.0000  Rmin=1.8398  Rmax=1.8398     1

 selected bond angles (degree)
 --------------------
H5-C1-C2=110.43                H6-C1-C2=110.55                H6-C1-H5=108.56                H7-C1-C2=110.25                
H7-C1-H5=108.49                H7-C1-H6=108.49                C3-C2-C1=112.20                H8-C2-C1=109.64                
H8-C2-C3=109.03                H9-C2-C1=109.76                H9-C2-C3=108.16                H9-C2-H8=107.95                
S4-C3-C2=110.43                H10-C3-C2=110.94               H10-C3-S4=107.55               H11-C3-C2=110.85               
H11-C3-S4=107.11               H11-C3-H10=109.83              H12-S4-C3= 95.55               

 selected dihedral angles (degree)
 ---------------------------------
C3-C2-C1-H5=179.50            C3-C2-C1-H6=299.66            C3-C2-C1-H7= 59.62            H8-C2-C1-H5= 58.19            
H8-C2-C1-H6=178.36            H8-C2-C1-H7=298.32            H9-C2-C1-H5=299.78            H9-C2-C1-H6= 59.95            
H9-C2-C1-H7=179.91            S4-C3-C2-C1=293.30            S4-C3-C2-H8= 54.95            S4-C3-C2-H9=172.09            
H10-C3-C2-C1= 52.45           H10-C3-C2-H8=174.10           H10-C3-C2-H9=291.24           H11-C3-C2-C1=174.75           
H11-C3-C2-H8=296.40           H11-C3-C2-H9= 53.54           H12-S4-C3-C2=182.60           H12-S4-C3-H10= 61.41          
H12-S4-C3-H11=303.40          
           -------------------------------------------------
          |                Final Singlepoint                |
           -------------------------------------------------

          ...................................................
          :                      SETUP                      :
          :.................................................:
          :  # basis functions                  30          :
          :  # atomic orbitals                  29          :
          :  # shells                           17          :
          :  # electrons                        26          :
          :  max. iterations                   250          :
          :  Hamiltonian                  GFN2-xTB          :
          :  restarted?                      false          :
          :  GBSA solvation                  false          :
          :  PC potential                    false          :
          :  electronic temp.          300.0000000     K    :
          :  accuracy                    1.0000000          :
          :  -> integral cutoff          0.2500000E+02      :
          :  -> integral neglect         0.1000000E-07      :
          :  -> SCF convergence          0.1000000E-05 Eh   :
          :  -> wf. convergence          0.1000000E-03 e    :
          :  Broyden damping             0.4000000          :
          :  net charge                          0          :
          :  unpaired electrons                  0          :
          ...................................................

 iter      E             dE          RMSdq      gap      omega  full diag
   1    -13.9030025 -0.139030E+02  0.197E-05    4.47       0.0  T
   2    -13.9030025 -0.214939E-12  0.118E-05    4.47    2443.7  T
   3    -13.9030025  0.284217E-13  0.490E-06    4.47    5896.7  T

   *** convergence criteria satisfied after 3 iterations ***

         #    Occupation            Energy/Eh            Energy/eV
      -------------------------------------------------------------
         1        2.0000           -0.7084627             -19.2783
       ...           ...                  ...                  ...
         7        2.0000           -0.4960948             -13.4994
         8        2.0000           -0.4801969             -13.0668
         9        2.0000           -0.4671517             -12.7118
        10        2.0000           -0.4532623             -12.3339
        11        2.0000           -0.4478000             -12.1853
        12        2.0000           -0.4352110             -11.8427
        13        2.0000           -0.3662903              -9.9673 (HOMO)
        14                         -0.2020889              -5.4991 (LUMO)
        15                         -0.1193794              -3.2485
        16                         -0.0170215              -0.4632
        17                         -0.0075462              -0.2053
        18                          0.0126381               0.3439
       ...                                ...                  ...
        29                          0.5313848              14.4597
      -------------------------------------------------------------
                  HL-Gap            0.1642015 Eh            4.4681 eV
             Fermi-level           -0.2841896 Eh           -7.7332 eV

 SCC (total)                   0 d,  0 h,  0 min,  0.002 sec
 SCC setup                      ...        0 min,  0.000 sec (  1.241%)
 Dispersion                     ...        0 min,  0.000 sec (  0.692%)
 classical contributions        ...        0 min,  0.000 sec (  0.323%)
 integral evaluation            ...        0 min,  0.001 sec ( 21.063%)
 iterations                     ...        0 min,  0.001 sec ( 26.384%)
 molecular gradient             ...        0 min,  0.001 sec ( 48.315%)
 printout                       ...        0 min,  0.000 sec (  1.695%)

         :::::::::::::::::::::::::::::::::::::::::::::::::::::
         ::                     SUMMARY                     ::
         :::::::::::::::::::::::::::::::::::::::::::::::::::::
         :: total energy             -13.740597841730 Eh    ::
         :: gradient norm              0.000075172712 Eh/a0 ::
         :: HOMO-LUMO gap              4.468149907840 eV    ::
         ::.................................................::
         :: SCC energy               -13.902997426266 Eh    ::
         :: -> isotropic ES            0.005644255436 Eh    ::
         :: -> anisotropic ES          0.002622910075 Eh    ::
         :: -> anisotropic XC          0.009642014179 Eh    ::
         :: -> dispersion             -0.006212791651 Eh    ::
         :: repulsion energy           0.162399584535 Eh    ::
         :: add. restraining           0.000000000000 Eh    ::
         :: total charge              -0.000000000000 e     ::
         :::::::::::::::::::::::::::::::::::::::::::::::::::::

           ------------------------------------------------- 
          |                Numerical Hessian                |
           ------------------------------------------------- 
step length          :   0.00500
SCC accuracy         :   0.30000
Hessian scale factor :   1.00000
frozen atoms in %    :   0.00000    0
RMS gradient         :   0.00008
estimated CPU  time      0.00 min
estimated wall time      0.00 min

writing file <hessian>, containing the non-mass-weighted Hessian matrix in atomic units (Eₕ/Bohr²).

 projected vibrational frequencies (cm⁻¹)
eigval :       -0.00    -0.00     0.00     0.00     0.00     0.00
eigval :      101.47   139.93   202.97   279.21   403.27   675.97
eigval :      794.87   847.19   874.71   950.50  1047.50  1075.48
eigval :     1123.58  1197.25  1239.60  1270.46  1342.73  1416.67
eigval :     1445.17  1479.95  1500.16  1501.10  2437.77  2961.13
eigval :     2972.33  2982.61  2987.12  3031.48  3041.44  3045.11
           -------------------------------------------------
          |                Property Printout                |
           -------------------------------------------------

    * Orbital Energies and Occupations

         #    Occupation            Energy/Eh            Energy/eV
      -------------------------------------------------------------
         1        2.0000           -0.7084627             -19.2783
         2        2.0000           -0.6324714             -17.2104
         3        2.0000           -0.5996154             -16.3164
         4        2.0000           -0.5680364             -15.4571
         5        2.0000           -0.5255515             -14.3010
         6        2.0000           -0.5212559             -14.1841
         7        2.0000           -0.4960948             -13.4994
         8        2.0000           -0.4801969             -13.0668
         9        2.0000           -0.4671517             -12.7118
        10        2.0000           -0.4532623             -12.3339
        11        2.0000           -0.4478000             -12.1853
        12        2.0000           -0.4352110             -11.8427
        13        2.0000           -0.3662903              -9.9673 (HOMO)
        14                         -0.2020889              -5.4991 (LUMO)
        15                         -0.1193794              -3.2485
        16                         -0.0170215              -0.4632
        17                         -0.0075462              -0.2053
        18                          0.0126381               0.3439
        19                          0.0885607               2.4099
        20                          0.1189477               3.2367
        21                          0.1405482               3.8245
        22                          0.1587462               4.3197
        23                          0.1793969               4.8816
        24                          0.1855580               5.0493
       ...                                ...                  ...
        29                          0.5313848              14.4597
      -------------------------------------------------------------
                  HL-Gap            0.1642015 Eh            4.4681 eV
             Fermi-level           -0.2841896 Eh           -7.7332 eV

     #   Z          covCN         q      C6AA      α(0)
     1   6          3.752    -0.102    22.507     6.765
     2   6          3.833    -0.048    21.409     6.583
     3   6          3.794     0.004    20.518     6.450
     4  16          1.924    -0.293   153.730    20.868
     5   1          0.925     0.037     2.494     2.469
     6   1          0.925     0.036     2.501     2.473
     7   1          0.925     0.050     2.315     2.379
     8   1          0.924     0.044     2.394     2.420
     9   1          0.924     0.034     2.524     2.485
    10   1          0.925     0.043     2.410     2.428
    11   1          0.925     0.039     2.458     2.452
    12   1          0.923     0.155     1.360     1.824

 Mol. C6AA /au·bohr⁶  :       1467.787288
 Mol. C8AA /au·bohr⁸  :      41243.607100
 Mol. α(0) /au        :         59.596632


Wiberg/Mayer (AO) data.
largest (>0.10) Wiberg bond orders for each atom

 ---------------------------------------------------------------------------
     #   Z sym  total        # sym  WBO       # sym  WBO       # sym  WBO
 ---------------------------------------------------------------------------
     1   6      3.996 --     2      1.021     6      0.988     5      0.987
                             7      0.984
     2   6      3.996 --     1      1.021     3      1.017     8      0.976
                             9      0.971
     3   6      3.977 --     2      1.017     4      0.985    11      0.979
                            10      0.978
     4  16      2.000 --     3      0.985    12      0.966
     5   1      0.999 --     1      0.987
     6   1      0.999 --     1      0.988
     7   1      0.997 --     1      0.984
     8   1      0.998 --     2      0.976
     9   1      0.999 --     2      0.971
    10   1      0.998 --     3      0.978
    11   1      0.998 --     3      0.979
    12   1      0.976 --     4      0.966
 ---------------------------------------------------------------------------

Topologies differ in total number of bonds
Writing topology from bond orders to xtbtopo.mol

molecular dipole:
                 x           y           z       tot (Debye)
 q only:       -0.215       0.440       0.284
   full:       -0.279       0.707       0.483       2.289
molecular quadrupole (traceless):
                xx          xy          yy          xz          yz          zz
 q only:        0.937       2.060      -0.266       0.403       0.023      -0.671
  q+dip:        0.260       3.008       0.559       1.225      -0.670      -0.819
   full:        0.831       3.257       0.339       0.818      -0.117      -1.170

           -------------------------------------------------
          |                Geometry Summary                 |
           -------------------------------------------------

      molecular mass/u    :       76.1605211
   center of mass at/Å    :       -0.0004707       0.0005850      -0.0013128
  moments of inertia/u·Å² :        0.4359872E+02   0.1527228E+03   0.1771267E+03
rotational constants/cm⁻¹ :        0.3866543E+00   0.1103806E+00   0.9517273E-01

 * 10 selected distances

     #   Z          #   Z                                           value/Å
     1   6          2   6                                         1.5231339 (max)
     2   6          3   6                                         1.5200892
     1   6          5   1                                         1.0869763 (min)
     1   6          6   1                                         1.0881330
     1   6          7   1                                         1.0875405
     2   6          8   1                                         1.0921764
     2   6          9   1                                         1.0932844
     3   6         10   1                                         1.0904117
     3   6         11   1                                         1.0900681
     4  16         12   1                                         1.3309264

 * 3 distinct bonds (by element types)

   Z      Z             #   av. dist./Å        max./Å        min./Å
   1 H    6 C           7     1.0897986     1.0932844     1.0869763
   6 C    6 C           2     1.5216116     1.5231339     1.5200892
   1 H   16 S           1     1.3309264     1.3309264     1.3309264

           -------------------------------------------------
          |               Frequency Printout                |
           -------------------------------------------------
 projected vibrational frequencies (cm⁻¹)
eigval :       -0.00    -0.00     0.00     0.00     0.00     0.00
eigval :      101.47   139.93   202.97   279.21   403.27   675.97
eigval :      794.87   847.19   874.71   950.50  1047.50  1075.48
eigval :     1123.58  1197.25  1239.60  1270.46  1342.73  1416.67
eigval :     1445.17  1479.95  1500.16  1501.10  2437.77  2961.13
eigval :     2972.33  2982.61  2987.12  3031.48  3041.44  3045.11
 reduced masses (amu)
    1:      4.11    2:      5.05    3:      6.86    4:      3.30    5:      4.24    6:      3.85
    7:      1.80    8:      1.19    9:      1.41   10:      1.80   11:      2.27   12:      3.50
   13:      1.16   14:      1.28   15:      1.31   16:      1.88   17:      1.28   18:      1.35
   19:      2.45   20:      1.47   21:      1.29   22:      1.17   23:      1.46   24:      1.23
   25:      1.10   26:      1.09   27:      1.05   28:      1.06   29:      1.04   30:      1.08
   31:      1.09   32:      1.05   33:      1.07   34:      1.08   35:      1.09   36:      1.04
 IR intensities (km·mol⁻¹)
    1:      1.84    2:      0.85    3:      0.03    4:      1.72    5:      0.77    6:      0.65
    7:     17.60    8:     24.10    9:      1.42   10:      0.88   11:      0.77   12:      5.15
   13:      3.33   14:     10.95   15:      2.27   16:      0.91   17:      1.32   18:      1.55
   19:      1.71   20:      2.08   21:      6.60   22:     17.68   23:      1.50   24:      6.54
   25:      2.58   26:      1.16   27:      3.10   28:      3.50   29:    136.05   30:     33.97
   31:      5.99   32:     20.98   33:     32.18   34:     41.00   35:     44.34   36:     19.66
 Raman intensities (Ä⁴*amu⁻¹)
    1:      0.00    2:      0.00    3:      0.00    4:      0.00    5:      0.00    6:      0.00
Molecule has no symmetry elements
It seems to be the C1 point group
    7:      0.00    8:      0.00    9:      0.00   10:      0.00   11:      0.00   12:      0.00
   13:      0.00   14:      0.00   15:      0.00   16:      0.00   17:      0.00   18:      0.00
   19:      0.00   20:      0.00   21:      0.00   22:      0.00   23:      0.00   24:      0.00
   25:      0.00   26:      0.00   27:      0.00   28:      0.00   29:      0.00   30:      0.00
   31:      0.00   32:      0.00   33:      0.00   34:      0.00   35:      0.00   36:      0.00
 output can be read by thermo (or use thermo option).
 writing <g98.out> molden fake output.
 recommended (thermochemical) frequency scaling factor: 1.0
           -------------------------------------------------
          |             Thermodynamic Functions             |
           -------------------------------------------------

c1  symmetry found (for desy threshold:  0.10E+00) used in thermo

          ...................................................
          :                      SETUP                      :
          :.................................................:
          :  # frequencies                          30      :
          :  # imaginary freq.                       0      :
          :  linear?                             false      :
          :  only rotor calc.                    false      :
          :  symmetry                               c1      :
          :  rotational number                       1      :
          :  scaling factor                  1.0000000      :
          :  rotor cutoff                    0.0000000 cm⁻¹ :
          :  imag. cutoff                 -100.0000000 cm⁻¹ :
          :.................................................:

    mode    ω/cm⁻¹     T·S(HO)/kcal·mol⁻¹    T·S(FR)/kcal·mol⁻¹   T·S(vib)
   ------------------------------------------------------------------------
       1    101.47    -1.02141 (100.00%)    -0.84648 (  0.00%)    -1.02141
       2    139.93    -0.83626 (100.00%)    -0.75140 (  0.00%)    -0.83626
       3    202.97    -0.62790 (100.00%)    -0.64130 (  0.00%)    -0.62790
       4    279.21    -0.45870 (100.00%)    -0.54688 (  0.00%)    -0.45870
   ------------------------------------------------------------------------

   temp. (K)  partition function   enthalpy   heat capacity  entropy
                                   cal/mol     cal/K/mol   cal/K/mol   J/K/mol
 298.15  VIB   15.2                 2031.063     13.946     12.215
         ROT  0.830E+05              888.727      2.981     25.488
         INT  0.126E+07             2919.791     16.927     37.704
         TR   0.203E+26             1481.212      4.968     38.906
         TOT                        4401.0032    21.8950    76.6098   320.5354

       T/K    H(0)-H(T)+PV         H(T)/Eh          T*S/Eh         G(T)/Eh
   ------------------------------------------------------------------------
    298.15    0.701345E-02    0.108093E+00    0.363998E-01    0.716931E-01
   ------------------------------------------------------------------------

         :::::::::::::::::::::::::::::::::::::::::::::::::::::
         ::                  THERMODYNAMIC                  ::
         :::::::::::::::::::::::::::::::::::::::::::::::::::::
         :: total free energy         -13.668904775154 Eh   ::
         ::.................................................::
         :: total energy              -13.740597841730 Eh   ::
         :: zero point energy           0.101079408150 Eh   ::
         :: G(RRHO) w/o ZPVE           -0.029386341574 Eh   ::
         :: G(RRHO) contrib.            0.071693066576 Eh   ::
         :::::::::::::::::::::::::::::::::::::::::::::::::::::

optimized geometry written to: xtbopt.coord


           -------------------------------------------------
          | TOTAL ENERGY              -13.740597841730 Eh   |
          | TOTAL ENTHALPY            -13.632504988525 Eh   |
          | TOTAL FREE ENERGY         -13.668904775154 Eh   |
          | GRADIENT NORM               0.000075176331 Eh/α |
          | HOMO-LUMO GAP               4.468149557425 eV   |
           -------------------------------------------------

------------------------------------------------------------------------
 * finished run on 2025/04/09 at 01:47:52.489     
------------------------------------------------------------------------
 total:
 * wall-time:     0 d,  0 h,  0 min,  0.241 sec
 *  cpu-time:     0 d,  0 h,  0 min,  0.239 sec
 * ratio c/w:     0.992 speedup
 SCF:
 * wall-time:     0 d,  0 h,  0 min,  0.004 sec
 *  cpu-time:     0 d,  0 h,  0 min,  0.004 sec
 * ratio c/w:     0.978 speedup
 ANC optimizer:
 * wall-time:     0 d,  0 h,  0 min,  0.036 sec
 *  cpu-time:     0 d,  0 h,  0 min,  0.036 sec
 * ratio c/w:     0.982 speedup
 analytical hessian:
 * wall-time:     0 d,  0 h,  0 min,  0.196 sec
 *  cpu-time:     0 d,  0 h,  0 min,  0.195 sec
 * ratio c/w:     0.994 speedup

