      -----------------------------------------------------------      
     |                   =====================                   |     
     |                           x T B                           |     
     |                   =====================                   |     
     |                         S. Grimme                         |     
     |          Mulliken Center for Theoretical Chemistry        |     
     |                    University of Bonn                     |     
      -----------------------------------------------------------      

   * xtb version 6.7.1 (41059b4) compiled by 'michael@archlinux' on 2025-03-24

   xtb is free software: you can redistribute it and/or modify it under
   the terms of the GNU Lesser General Public License as published by
   the Free Software Foundation, either version 3 of the License, or
   (at your option) any later version.
   
   xtb is distributed in the hope that it will be useful,
   but WITHOUT ANY WARRANTY; without even the implied warranty of
   MERCHANTABILITY or FITNESS FOR A PARTICULAR PURPOSE.  See the
   GNU Lesser General Public License for more details.
   
   Cite this work as:
   * C. Bannwarth, E. Caldeweyher, S. Ehlert, A. Hansen, P. Pracht,
     J. Seibert, S. Spicher, S. Grimme, WIREs Comput. Mol. Sci., 2020, 11,
     e01493. DOI: 10.1002/wcms.1493
   
   for GFN2-xTB:
   * C. Bannwarth, S. Ehlert and S. Grimme., J. Chem. Theory Comput., 2019,
     15, 1652-1671. DOI: 10.1021/acs.jctc.8b01176
   for GFN1-xTB:
   * S. Grimme, C. Bannwarth, P. Shushkov, J. Chem. Theory Comput., 2017,
     13, 1989-2009. DOI: 10.1021/acs.jctc.7b00118
   for GFN0-xTB:
   * P. Pracht, E. Caldeweyher, S. Ehlert, S. Grimme, ChemRxiv, 2019, preprint.
     DOI: 10.26434/chemrxiv.8326202.v1
   for GFN-FF:
   * S. Spicher and S. Grimme, Angew. Chem. Int. Ed., 2020, 59, 15665-15673.
     DOI: 10.1002/anie.202004239
   
   for ALPB and GBSA implicit solvation:
   * S. Ehlert, M. Stahn, S. Spicher, S. Grimme, J. Chem. Theory Comput.,
     2021, 17, 4250-4261. DOI: 10.1021/acs.jctc.1c00471
   
   for ddCOSMO and CPCM-X implicit solvation:
   * M. Stahn, S. Ehlert, S. Grimme, J. Phys. Chem. A,
     2023, XX, XXXX-XXXX. DOI: 10.1021/acs.jpca.3c04382
   
   for DFT-D4:
   * E. Caldeweyher, C. Bannwarth and S. Grimme, J. Chem. Phys., 2017,
     147, 034112. DOI: 10.1063/1.4993215
   * E. Caldeweyher, S. Ehlert, A. Hansen, H. Neugebauer, S. Spicher,
     C. Bannwarth and S. Grimme, J. Chem. Phys., 2019, 150, 154122.
     DOI: 10.1063/1.5090222
   * E. Caldeweyher, J.-M. Mewes, S. Ehlert and S. Grimme, Phys. Chem. Chem. Phys.
     2020, 22, 8499-8512. DOI: 10.1039/D0CP00502A
   
   for sTDA-xTB:
   * S. Grimme and C. Bannwarth, J. Chem. Phys., 2016, 145, 054103.
     DOI: 10.1063/1.4959605
   
   in the mass-spec context:
   * V. Asgeirsson, C. Bauer and S. Grimme, Chem. Sci., 2017, 8, 4879.
     DOI: 10.1039/c7sc00601b
   * J. Koopman and S. Grimme, ACS Omega 2019, 4, 12, 15120-15133.
     DOI: 10.1021/acsomega.9b02011
   
   for metadynamics refer to:
   * S. Grimme, J. Chem. Theory Comput., 2019, 155, 2847-2862
     DOI: 10.1021/acs.jctc.9b00143
   
   for SPH calculations refer to:
   * S. Spicher and S. Grimme, J. Chem. Theory Comput., 2021, 17, 1701-1714
     DOI: 10.1021/acs.jctc.0c01306
   
   for ONIOM refer to:
   * C. Plett, A. Katbashev, S. Ehlert, S. Grimme, M. Bursch,
     Phys. Chem. Chem. Phys., 2023, 25, 17860-17868. DOI: 10.1039/D3CP02178E
   
   for DIPRO refer to:
   * J. Kohn, N. Gildemeister, S. Grimme, D. Fazzi, A. Hansen,
     J. Chem. Phys., 2023, just accepted.
   
   for PTB refer to:
   * S. Grimme, M. Mueller, A. Hansen, J. Chem. Phys., 2023, 158, 124111.
     DOI: 10.1063/5.0137838
   
   with help from (in alphabetical order)
   P. Atkinson, C. Bannwarth, F. Bohle, G. Brandenburg, E. Caldeweyher
   M. Checinski, S. Dohm, S. Ehlert, S. Ehrlich, I. Gerasimov, C. Hölzer
   A. Katbashev, J. Kohn, J. Koopman, C. Lavigne, S. Lehtola, F. März, M. Müller,
   F. Musil, H. Neugebauer, J. Pisarek, C. Plett, P. Pracht, F. Pultar,
   J. Seibert, P. Shushkov, S. Spicher, M. Stahn, M. Steiner, T. Strunk,
   J. Stückrath, T. Rose, and J. Unsleber
   
 * started run on 2025/04/08 at 22:30:53.729     
   ID    Z sym.   atoms
    1    6 C      1-3, 6
    2    8 O      4, 5
    3    1 H      7-14

           -------------------------------------------------
          |                Calculation Setup                |
           -------------------------------------------------

          program call               : /usr/bin/xtb xtb_opt.coord --opt normal --orca -I xtb_opt-xcontrol-inp
          coordinate file            : xtb_opt.coord
          omp threads                :                    16

           -------------------------------------------------
          |                   Orca driver                   |
           -------------------------------------------------
orca executable           : /home/michael/Documents/CHEM4561/orca_avx2/orca
orca input file           : xtb_opt.inp
orca input line           : 
orca parallel             : true
orca number of threads    : 16
                         * ORCA takes the control...
  ------------------------------------------------------------------------

                                 *****************
                                 * O   R   C   A *
                                 *****************

                                            #,                                       
                                            ###                                      
                                            ####                                     
                                            #####                                    
                                            ######                                   
                                           ########,                                 
                                     ,,################,,,,,                         
                               ,,#################################,,                 
                          ,,##########################################,,             
                       ,#########################################, ''#####,          
                    ,#############################################,,   '####,        
                  ,##################################################,,,,####,       
                ,###########''''           ''''###############################       
              ,#####''   ,,,,##########,,,,          '''####'''          '####       
            ,##' ,,,,###########################,,,                        '##       
           ' ,,###''''                  '''############,,,                           
         ,,##''                                '''############,,,,        ,,,,,,###''
      ,#''                                            '''#######################'''  
     '                                                          ''''####''''         
             ,#######,   #######,   ,#######,      ##                                
            ,#'     '#,  ##    ##  ,#'     '#,    #''#        ,####,   ,####,        
            ##       ##  ##   ,#'  ##            #'  '#       #'       #'  '#        
            ##       ##  #######   ##           ,######,      #####,   #    #        
            '#,     ,#'  ##    ##  '#,     ,#' ,#      #,     #,   #   #,  ,#        
             '#######'   ##     ##  '#######'  #'      '#     '####' # '####'        



                #########################################################
                #                        -***-                          #
                #          Department of theory and spectroscopy        #
                #                                                       #
                #                      Frank Neese                      #
                #                                                       #
                #     Directorship, Architecture, Infrastructure        #
                #                    SHARK, DRIVERS                     #
                #        Core code/Algorithms in most modules           #
                #                                                       #
                #        Max Planck Institute fuer Kohlenforschung      #
                #                Kaiser Wilhelm Platz 1                 #
                #                 D-45470 Muelheim/Ruhr                 #
                #                      Germany                          #
                #                                                       #
                #                  All rights reserved                  #
                #                        -***-                          #
                #########################################################


                         Program Version 6.0.1  -  RELEASE   -


 With contributions from (in alphabetic order):
[Max-Planck-Institut fuer Kohlenforschung]                               
  Daniel Aravena         : Magnetic Suceptibility                        
  Michael Atanasov       : Ab Initio Ligand Field Theory (pilot matlab implementation)
  Alexander A. Auer      : GIAO ZORA, VPT2 properties, NMR spectrum      
  Ute Becker             : All parallelization in ORCA, NUMFREQ, NUMCALC 
  Giovanni Bistoni       : ED, misc. LED, open-shell LED, HFLD           
  Martin Brehm           : Molecular dynamics                            
  Dmytro Bykov           : pre 5.0 version of the SCF Hessian            
  Marcos Casanova-Páez   : Triplet and SCS-CIS(D). UHF-(DLPNO)-IP/EA/STEOM-CCSD. UHF-CVS-IP/STEOM-CCSD   
  Vijay G. Chilkuri      : MRCI spin determinant printing, contributions to CSF-ICE 
  Pauline Colinet        : FMM embedding                                 
  Dipayan Datta          : RHF DLPNO-CCSD density                        
  Achintya Kumar Dutta   : EOM-CC, STEOM-CC                              
  Nicolas Foglia         : Exact transition moments, OPA infrastructure, MCD improvements    
  Dmitry Ganyushin       : Spin-Orbit,Spin-Spin,Magnetic field MRCI      
  Miquel Garcia-Rates    : C-PCM and meta-GGA Hessian, CCSD/C-PCM, Gaussian charge scheme 
  Tiago L. C. Gouveia    : GS-ROHF, GS-ROCIS                             
  Yang Guo               : DLPNO-NEVPT2, F12-NEVPT2, CIM, IAO-localization        
  Andreas Hansen         : Spin unrestricted coupled pair/coupled cluster methods 
  Ingolf Harden          : AUTO-CI MPn and infrastructure                
  Benjamin Helmich-Paris : MC-RPA, TRAH-(SCF,CASSCF), AVAS, COSX integrals, SCF dyn. polar. 
  Lee Huntington         : MR-EOM, pCC                                   
  Robert Izsak           : Overlap fitted RIJCOSX, COSX-SCS-MP3, EOM     
  Riya Kayal             : Wick's Theorem for AUTO-CI, AUTO-CI UHF-CCSDT 
  Emily Kempfer          : AUTO-CI, RHF CISDT and CCSDT                  
  Christian Kollmar      : KDIIS, OOCD, Brueckner-CCSD(T), CCSD density, CASPT2, CASPT2-K, improved NEVPT2 
  Axel Koslowski         : Symmetry handling                             
  Simone Kossmann        : meta-GGA functionals, TD-DFT gradient, OOMP2, (MP2 Hessian; deprecated post 5.0) 
  Lucas Lang             : DCDCAS                                        
  Marvin Lechner         : AUTO-CI (C++ implementation), FIC-MRCC        
  Spencer Leger          : CASSCF response                               
  Dagmar Lenk            : GEPOL surface, SMD, ORCA-2-JSON               
  Dimitrios Liakos       : Extrapolation schemes; Compound Job, initial MDCI parallelization 
  Dimitrios Manganas     : Further ROCIS development; embedding schemes. LFT, Crystal Embedding 
  Dimitrios Pantazis     : SARC Basis sets                               
  Anastasios Papadopoulos: AUTO-CI, single reference methods and gradients 
  Taras Petrenko         : pre 6.0 DFT Hessian and TD-DFT gradient, (ASA, deprecated), ECA, 1-Electron XAS/XES, NRVS 
  Peter Pinski           : DLPNO-MP2, DLPNO-MP2 Gradient                 
  Christoph Reimann      : Effective Core Potentials                     
  Marius Retegan         : Local ZFS, SOC                                
  Christoph Riplinger    : Optimizer, TS searches, QM/MM, DLPNO-CCSD(T), (RO)-DLPNO pert. Triples 
  Michael Roemelt        : Original ROCIS implementation                 
  Masaaki Saitow         : Open-shell DLPNO-CCSD energy and density      
  Barbara Sandhoefer     : DKH picture change effects                    
  Kantharuban Sivalingam : CASSCF convergence/infrastructure, NEVPT2 and variants, FIC-MRCI 
  Bernardo de Souza      : ESD, SOC TD-DFT                               
  Georgi L. Stoychev     : AutoAux, RI-MP2 NMR, DLPNO-MP2 response, X2C  
  Van Anh Tran           : RI-MP2 g-tensors                              
  Willem Van den Heuvel  : Paramagnetic NMR                              
  Zikuan Wang            : NOTCH, Electric field optimization            
  Frank Wennmohs         : Technical directorship and infrastructure     
  Hang Xu                : AUTO-CI-Response properties                   
                                                                         
[FACCTs GmbH]                                                            
  Markus Bursch, Miquel Garcia-Rates, Christoph Riplinger, Bernardo de Souza, Georgi L. Stoychev 
                                                                 
  APM, Basis sets (HGBS, AHGBS, def-TZVP (Ac-Lr), def2-XVPD (La-Lu)), CI-OPT, improved COSX, DLPNO-Multilevel,           
  DOCKER, DRACO, updates on ESD, GOAT, IRC, LR-CPCM, MBIS, meta-GGA TD-DFT gradient, ML-optimized integration grids, 
  MM, NACMEs, nearIR, NEB, NEB-TS, NL-DFT gradient (VV10), 2- and 3-layer-ONIOM, interface openCOSMO-RS, QMMM,   
  Crystal-QMMM, SF, symmetry and pop. for TD-DFT, r2SCAN hybrids, SOLVATOR                                   
                                                                         
[Other institutions]                                                     
  V. Asgeirsson          : NEB                                           
  Christoph Bannwarth    : sTDA-DFT, sTD-DFT, PBEh-3c, B97-3c, D3        
  Sebastian Ehlert       : rSCAN, r2SCAN, r2SCAN-3c, D4, dhf basis sets  
  Marvin Friede          : D4 for Fr, Ra, Ac-Lr                          
  Lars Goerigk           : TD-DFT with DH, B97 family of functionals     
  Stefan Grimme          : VdW corrections, initial TS optimization, DFT functionals, gCP, sTDA/sTD-DF 
  Waldemar Hujo          : DFT-NL                                        
  H. Jonsson             : NEB                                           
  Holger Kruse           : gCP                                           
  Marcel Mueller         : wB97X-3c, vDZP basis set                      
  Hagen Neugebauer       : wr2SCAN                                       
  Tobias Risthaus        : range-separated hybrid DFT                    
  Lukas Wittmann         : regularized MP2, r2SCAN double-hybrids, wr2SCAN        
                                                                         
We gratefully acknowledge several colleagues who have allowed us to      
interface, adapt or use parts of their codes:                            
  Ed Valeev, F. Pavosevic, A. Kumar             : LibInt (2-el integral package), F12 methods 
  Garnet Chan, S. Sharma, J. Yang, R. Olivares  : DMRG                   
  Ulf Ekstrom                                   : XCFun DFT Library      
  Mihaly Kallay                                 : mrcc  (arbitrary order and MRCC methods)
  Frank Weinhold                                : gennbo (NPA and NBO analysis)           
  Simon Mueller                                 : openCOSMO-RS                            
  Christopher J. Cramer and Donald G. Truhlar   : smd solvation model                     
  S Lehtola, MJT Oliveira, MAL Marques          : LibXC Library                           
  Liviu Ungur et al                             : ANISO software                          


 Your calculation uses the libint2 library for the computation of 2-el integrals
 For citations please refer to: http://libint.valeyev.net

 Your ORCA version has been built with support for libXC version: 6.2.2
 For citations please refer to: https://libxc.gitlab.io

 This ORCA versions uses:
   CBLAS   interface :  Fast vector & matrix operations
   LAPACKE interface :  Fast linear algebra routines
   SCALAPACK package :  Parallel linear algebra routines
   Shared memory     :  Shared parallel matrices
   BLAS/LAPACK       :  OpenBLAS 0.3.27  USE64BITINT DYNAMIC_ARCH NO_AFFINITY Zen SINGLE_THREADED
        Core in use  :  Zen
   Copyright (c) 2011-2014, The OpenBLAS Project




***************************************
The coordinates will be read from file: xtb_opt.xyz
***************************************


Your calculation utilizes the geometrical counterpoise correction gCP
Please cite in your paper:
H.Kruse, S. Grimme J.Chem.Phys., 136, (2012), 154101 
   

Your calculation utilizes the atom-pairwise dispersion correction
based on EEQ partial charges (D4)


================================================================================

----- Orbital basis set information -----
Your calculation utilizes the basis: def2-mTZVPP
   Stefan Grimme, Andreas Hansen, Sebastian Ehlert, and Jan-Michael Mewes 
   J. Chem. Phys. 154, 064103 (2021). DOI: 10.1063/5.0040021

----- AuxJ basis set information -----
Your calculation utilizes the auxiliary basis: def2/J
   F. Weigend, Phys. Chem. Chem. Phys. 8, 1057 (2006).

================================================================================
                                        WARNINGS
                       Please study these warnings very carefully!
================================================================================

WARNING: Old DensityContainer found on disk!
         Will remove this file - 
         If you want to keep old densities, please start your calculation with a different basename. 



WARNING: SCAN, rSCAN, or r2SCAN functional requested.
  ===> : libXC variant has now been activated.



================================================================================
                                       INPUT FILE
================================================================================
NAME = xtb_opt.inp
|  1> ! r2scan-3c def2/J RI DEFGRID2 scfconv7 ENGRAD tightSCF miniprint
|  2> * xyzfile 0 1 xtb_opt.xyz
|  3> 
|  4>                          ****END OF INPUT****
================================================================================

                     *******************************
                     * Energy+Gradient Calculation *
                     *******************************

---------------------------------
CARTESIAN COORDINATES (ANGSTROEM)
---------------------------------
  C     -2.158250    0.350574   -0.687601
  C     -1.329223    0.477462    0.599045
  C      0.023888   -0.158541    0.409263
  O      0.312520   -1.296514    0.699130
  O      0.886501    0.702454   -0.185664
  C      2.186248    0.149908   -0.477798
  H     -2.280320   -0.700152   -0.965152
  H     -3.151281    0.784036   -0.543032
  H     -1.672680    0.874070   -1.515516
  H     -1.823099   -0.043282    1.422639
  H     -1.206539    1.531651    0.863953
  H      2.745023    0.953198   -0.958283
  H      2.093282   -0.709699   -1.146940
  H      2.680410   -0.168422    0.443516

----------------------------
CARTESIAN COORDINATES (A.U.)
----------------------------
  NO LB      ZA    FRAG     MASS         X           Y           Z
   0 C     6.0000    0    12.011   -4.078502    0.662488   -1.299377
   1 C     6.0000    0    12.011   -2.511867    0.902272    1.132030
   2 C     6.0000    0    12.011    0.045142   -0.299599    0.773395
   3 O     8.0000    0    15.999    0.590578   -2.450056    1.321163
   4 O     8.0000    0    15.999    1.675244    1.327445   -0.350853
   5 C     6.0000    0    12.011    4.131410    0.283285   -0.902907
   6 H     1.0000    0     1.008   -4.309181   -1.323096   -1.823872
   7 H     1.0000    0     1.008   -5.955058    1.481613   -1.026183
   8 H     1.0000    0     1.008   -3.160907    1.651754   -2.863911
   9 H     1.0000    0     1.008   -3.445157   -0.081792    2.688397
  10 H     1.0000    0     1.008   -2.280028    2.894402    1.632634
  11 H     1.0000    0     1.008    5.187342    1.801283   -1.810893
  12 H     1.0000    0     1.008    3.955729   -1.341136   -2.167403
  13 H     1.0000    0     1.008    5.065241   -0.318272    0.838123

------------------------------------------------------------------------------
                   ___                                                        
                  /   \      - P O W E R E D   B Y -                         
                 /     \                                                     
                 |  |  |   _    _      __       _____    __    __             
                 |  |  |  | |  | |    /  \     |  _  \  |  |  /  |          
                  \  \/   | |  | |   /    \    | | | |  |  | /  /          
                 / \  \   | |__| |  /  /\  \   | |_| |  |  |/  /          
                |  |  |   |  __  | /  /__\  \  |    /   |      \           
                |  |  |   | |  | | |   __   |  |    \   |  |\   \          
                \     /   | |  | | |  |  |  |  | |\  \  |  | \   \       
                 \___/    |_|  |_| |__|  |__|  |_| \__\ |__|  \__/        
                                                                              
                      - O R C A' S   B I G   F R I E N D -                    
                                      &                                       
                       - I N T E G R A L  F E E D E R -                       
                                                                              
 v1 FN, 2020, v2 2021, v3 2022-2024                                           
------------------------------------------------------------------------------


----------------------
SHARK INTEGRAL PACKAGE
----------------------

Number of atoms                             ...     14
Number of basis functions                   ...    164
Number of shells                            ...     80
Maximum angular momentum                    ...      2
Integral batch strategy                     ... SHARK/LIBINT Hybrid
RI-J (if used) integral strategy            ... SPLIT-RIJ (Revised 2003 algorithm where possible)
Printlevel                                  ...      1
Contraction scheme used                     ... SEGMENTED contraction
Prescreening option                         ... SCHWARTZ
   Thresh                                   ... 3.000e-11
   Tcut                                     ... 1.000e-12
   Tpresel                                  ... 1.000e-12 
Coulomb Range Separation                    ... NOT USED
Exchange Range Separation                   ... NOT USED
Multipole approximations                    ... NOT USED
Finite Nucleus Model                        ... NOT USED
CABS basis                                  ... NOT available
Auxiliary Coulomb fitting basis             ... AVAILABLE
   # of basis functions in Aux-J            ...    382
   # of shells in Aux-J                     ...    130
   Maximum angular momentum in Aux-J        ...      4
Auxiliary J/K fitting basis                 ... NOT available
Auxiliary Correlation fitting basis         ... NOT available
Auxiliary 'external' fitting basis          ... NOT available

Checking pre-screening integrals            ... done (  0.0 sec) Dimension = 80
Check shell pair data                       ... done (  0.0 sec)
Shell pair information
Shell pair cut-off parameter TPreSel        ...   1.0e-12
Total number of shell pairs                 ...      3240
Shell pairs after pre-screening             ...      3023
Total number of primitive shell pairs       ...     11481
Primitive shell pairs kept                  ...      7944
          la=0 lb=0:    986 shell pairs
          la=1 lb=0:   1112 shell pairs
          la=1 lb=1:    330 shell pairs
          la=2 lb=0:    356 shell pairs
          la=2 lb=1:    203 shell pairs
          la=2 lb=2:     36 shell pairs

Calculating one electron integrals          ... done (  0.0 sec)
Calculating RI/J V-Matrix + Cholesky decomp.... done (  0.0 sec)
Calculating Nuclear repulsion               ... done (  0.0 sec) ENN=    246.021007947708 Eh

Diagonalization of the overlap matrix:
Smallest eigenvalue                        ... 2.540e-04
Time for diagonalization                   ...    0.004 sec
Threshold for overlap eigenvalues          ... 1.000e-07
Number of eigenvalues below threshold      ... 0
Time for construction of square roots      ...    0.001 sec
Total time needed                          ...    0.007 sec

-------------------
DFT GRID GENERATION
-------------------

General Integration Accuracy     IntAcc      ... 4.388
Radial Grid Type                 RadialGrid  ... OptM3 with GC (2021)
Angular Grid (max. ang.)         AngularGrid ... 4 (Lebedev-302)
Angular grid pruning method      GridPruning ... 4 (adaptive)
Weight generation scheme         WeightScheme... mBecke (2022)
Basis function cutoff            BFCut       ... 1.0000e-11
Integration weight cutoff        WCut        ... 1.0000e-14
Partially contracted basis set               ... off
Rotationally invariant grid construction     ... off
Angular grids for H and He will be reduced by one unit
Diffuse basis detected: some atoms will have their outermost
                        angular grid increased by 1.

Total number of grid points                  ...    62819
Total number of batches                      ...      989
Average number of points per batch           ...       63
Average number of grid points per atom       ...     4487
Initializing property integral containers    ... done (  0.0 sec)

SHARK setup successfully completed in   0.6 seconds

Maximum memory used throughout the entire STARTUP-calculation: 28.6 MB
Occupation numbers will be reassigned to an Aufbau configuration
             **** ENERGY FILE WAS UPDATED (xtb_opt.en.tmp) ****
Finished Guess after   0.1 sec
Maximum memory used throughout the entire GUESS-calculation: 11.6 MB
----------------------------------------D-I-I-S--------------------------------------------
Iteration    Energy (Eh)           Delta-E    RMSDP     MaxDP     DIISErr   Damp  Time(sec)
-------------------------------------------------------------------------------------------
               ***  Starting incremental Fock matrix formation  ***
                              *** Initializing SOSCF ***
---------------------------------------S-O-S-C-F--------------------------------------
Iteration    Energy (Eh)           Delta-E    RMSDP     MaxDP     MaxGrad    Time(sec)
--------------------------------------------------------------------------------------
    1    -307.6391175653477603     0.00e+00  1.37e-07  2.39e-06  5.83e-07     1.6
               *** Restarting incremental Fock matrix formation ***
    2    -307.6391175653556047    -7.84e-12  1.87e-07  4.13e-06  1.43e-06     1.6
                  *** Gradient check signals convergence ***

               *****************************************************
               *                     SUCCESS                       *
               *           SCF CONVERGED AFTER   2 CYCLES          *
               *****************************************************

             **** ENERGY FILE WAS UPDATED (xtb_opt.en.tmp) ****

----------------
TOTAL SCF ENERGY
----------------

Total Energy       :       -307.63911756535560 Eh           -8371.28598 eV

Components:
Nuclear Repulsion  :        246.02100794770760 Eh            6694.57197 eV
Electronic Energy  :       -553.66012551306324 Eh          -15065.85795 eV
One Electron Energy:       -905.54078011706792 Eh          -24641.01735 eV
Two Electron Energy:        351.88065460400469 Eh            9575.15940 eV

Virial components:
Potential Energy   :       -613.93284198886636 Eh          -16705.96195 eV
Kinetic Energy     :        306.29372442351081 Eh            8334.67597 eV
Virial Ratio       :          2.00439249333096

DFT components:
N(Alpha)           :       23.999982304765 electrons
N(Beta)            :       23.999982304765 electrons
N(Total)           :       47.999964609529 electrons
E(X)               :      -40.201097218897 Eh       
E(C)               :       -1.536242856464 Eh       
E(XC)              :      -41.737340075361 Eh       

---------------
SCF CONVERGENCE
---------------

  Last Energy change         ...    7.8444e-12  Tolerance :   1.0000e-07
  Last MAX-Density change    ...    4.1300e-06  Tolerance :   1.0000e-07
  Last RMS-Density change    ...    1.8730e-07  Tolerance :   5.0000e-09
  Last DIIS Error            ...    3.6184e-06  Tolerance :   1.0000e-07
  Last Orbital Gradient      ...    1.4263e-06  Tolerance :   1.0000e-04
  Last Orbital Rotation      ...    4.5733e-06  Tolerance :   1.0000e-04


----------------
ORBITAL ENERGIES
----------------

  NO   OCC          E(Eh)            E(eV) 
   0   2.0000     -18.998561      -516.9771 
   1   2.0000     -18.934757      -515.2409 
   2   2.0000     -10.154624      -276.3214 
   3   2.0000     -10.086251      -274.4608 
   4   2.0000     -10.047429      -273.4044 
   5   2.0000     -10.036084      -273.0957 
   6   2.0000      -1.065260       -28.9872 
   7   2.0000      -0.978577       -26.6284 
   8   2.0000      -0.759681       -20.6720 
   9   2.0000      -0.688241       -18.7280 
  10   2.0000      -0.614003       -16.7079 
  11   2.0000      -0.531133       -14.4529 
  12   2.0000      -0.468862       -12.7584 
  13   2.0000      -0.447471       -12.1763 
  14   2.0000      -0.446349       -12.1458 
  15   2.0000      -0.409129       -11.1330 
  16   2.0000      -0.399183       -10.8623 
  17   2.0000      -0.378792       -10.3074 
  18   2.0000      -0.350369        -9.5340 
  19   2.0000      -0.332202        -9.0397 
  20   2.0000      -0.327518        -8.9122 
  21   2.0000      -0.323385        -8.7997 
  22   2.0000      -0.275104        -7.4860 
  23   2.0000      -0.239041        -6.5046 
  24   0.0000      -0.020336        -0.5534 
  25   0.0000       0.061788         1.6813 
  26   0.0000       0.093608         2.5472 
  27   0.0000       0.120822         3.2877 
  28   0.0000       0.124672         3.3925 
  29   0.0000       0.140635         3.8269 
  30   0.0000       0.156936         4.2704 
  31   0.0000       0.166140         4.5209 
  32   0.0000       0.174466         4.7474 
  33   0.0000       0.181449         4.9375 
  34   0.0000       0.184578         5.0226 
*Only the first 10 virtual orbitals were printed.
Total SCF time: 0 days 0 hours 0 min 3 sec 
Finished LeanSCF after   3.3 sec

Maximum memory used throughout the entire LEANSCF-calculation: 17.5 MB


-------------------------------------------------------------------------------
                          DFT DISPERSION CORRECTION                            
                                                                               
                                DFTD4 V3.4.0                                   
-------------------------------------------------------------------------------
-------------------------   ----------------
Dispersion correction           -0.002995601
-------------------------   ----------------

------------------   -----------------
gCP correction             0.009150779
------------------   -----------------

-------------------------   --------------------
FINAL SINGLE POINT ENERGY      -307.632962387232
-------------------------   --------------------

------------------------------------------------------------------------------
                         ORCA SCF GRADIENT CALCULATION
------------------------------------------------------------------------------

Nuc. rep. gradient        (SHARK) ... done (  0.0 sec)
HCore & Overlap gradient  (SHARK) ... done (  0.2 sec)
Split-RIJ-J gradient      (SHARK) ... done (  1.0 sec)
XC gradient                       ... done (  5.4 sec)
Dispersion correction             ... done (  0.0 sec)

-------------------
DISPERSION GRADIENT
-------------------

   1   C   :   -0.000064122    0.000009109   -0.000020387
   2   C   :   -0.000047359    0.000012839    0.000021284
   3   C   :    0.000012950   -0.000007096    0.000012397
   4   O   :    0.000019556   -0.000048224    0.000029664
   5   O   :    0.000044179    0.000010763   -0.000001423
   6   C   :    0.000071371   -0.000005167   -0.000011409
   7   H   :   -0.000027704   -0.000004199   -0.000010807
   8   H   :   -0.000025645    0.000005772   -0.000008180
   9   H   :   -0.000028002    0.000008915   -0.000015826
  10   H   :   -0.000016659   -0.000001774    0.000013827
  11   H   :   -0.000016645    0.000014861    0.000010411
  12   H   :    0.000027142    0.000006933   -0.000009064
  13   H   :    0.000027961   -0.000002838   -0.000007362
  14   H   :    0.000022977    0.000000106   -0.000003127

Difference to translation invariance:
           :   -0.0000000000    0.0000000000    0.0000000000

Difference to rotation invariance:
           :   -0.0000000000    0.0000000000   -0.0000000000

Norm of the Dispersion gradient    ...    0.0001576438
RMS gradient                       ...    0.0000243250
MAX gradient                       ...    0.0000713706
gCP correction                   ... done

------------------
CARTESIAN GRADIENT
------------------

   1   C   :    0.000023376    0.000000458   -0.000021492
   2   C   :    0.000055168   -0.000000174    0.000119965
   3   C   :    0.000061611    0.000359445   -0.000388867
   4   O   :    0.000052143   -0.000141422    0.000127643
   5   O   :    0.000072119   -0.000327751    0.000152609
   6   C   :   -0.000272787    0.000111204    0.000312795
   7   H   :    0.000022528    0.000004847    0.000002028
   8   H   :    0.000042433   -0.000000889   -0.000024328
   9   H   :    0.000051526   -0.000008084    0.000028116
  10   H   :   -0.000016200   -0.000026043   -0.000006877
  11   H   :   -0.000031362   -0.000005023    0.000031710
  12   H   :    0.000082355    0.000009857   -0.000163114
  13   H   :   -0.000004917    0.000007656   -0.000040740
  14   H   :   -0.000137992    0.000015918   -0.000129448

Difference to translation invariance:
           :    0.0000000000   -0.0000000000    0.0000000000

Difference to rotation invariance:
           :    0.0000701942    0.0000607593   -0.0000502727

Norm of the Cartesian gradient     ...    0.0008619294
RMS gradient                       ...    0.0001329986
MAX gradient                       ...    0.0003888668

-------
TIMINGS
-------

Total SCF gradient time     ....        6.624 sec

Densities                   ....       0.000 sec  (  0.0%)
One electron gradient       ....       0.174 sec  (  2.6%)
RI-J Coulomb gradient       ....       1.001 sec  ( 15.1%)
XC gradient                 ....       5.384 sec  ( 81.3%)

Maximum memory used throughout the entire SCFGRAD-calculation: 31.7 MB

------------------------------------------------------------------------------
                              ORCA PROPERTY CALCULATIONS
------------------------------------------------------------------------------

GBWName                                 ... xtb_opt.gbw
Number of atoms                         ...     14
Number of basis functions               ...    164
Max core memory                         ...   1024 MB

Electric properties:
Dipole moment                           ... YES
Quadrupole moment                       ...  NO
Static polarizability (Dipole/Dipole)   ...  NO
Static polarizability (Dipole/Quad.)    ...  NO
Static polarizability (Quad./Quad.)     ...  NO
Static polarizability (Velocity)        ...  NO

Atomic electric properties:
Dipole moment                           ...  NO
Quadrupole moment                       ...  NO
Static polarizability                   ...  NO

Choice of electric origin               ... Center of mass
Position of electric origin             ...     0.025844     0.061751     0.083865

General magnetic properties:
Magnetizability                         ...  NO

EPR properties:
g-Tensor (aka g-matrix)                 ...  NO
Zero-Field splitting spin-orbit         ...  NO
Zero-field splitting spin-spin          ...  NO
Hyperfine couplings                     ...  NO (   0 nuclei)
Quadrupole couplings                    ...  NO (   0 nuclei)
Contact density                         ...  NO (   0 nuclei)

NMR properties:
Chemical shifts                         ...  NO (   0 nuclei)
Spin-rotation constants                 ...  NO (   0 nuclei)
Spin-spin couplings                     ...  NO (   0 nuclei,    0 pairs)

Choice of magnetic origin               ... GIAO
Position of magnetic origin             ...     0.000000     0.000000     0.000000

Properties with geometric perturbations:
SCF Hessian                             ...  NO
IR spectrum                             ...  NO
VCD spectrum                            ...  NO
X-ray spectroscopy properties:
SCF XES/XAS/RIXS spectra                ...  NO


-------------
DIPOLE MOMENT
-------------

Method             : SCF
Type of density    : Electron Density
Multiplicity       :   1
Irrep              :   0
Energy             :  -307.6391175653556047 Eh
Relativity type    : 
Basis              : AO
                                X                 Y                 Z
Electronic contribution:      2.531180186      -1.450480570       2.244749624
Nuclear contribution   :     -2.538837031       2.110511440      -2.577319600
                        -----------------------------------------
Total Dipole Moment    :     -0.007656845       0.660030870      -0.332569976
                        -----------------------------------------
Magnitude (a.u.)       :      0.739122565
Magnitude (Debye)      :      1.878700257



--------------------
Rotational spectrum 
--------------------
 
Rotational constants in cm-1:             0.222559             0.079989             0.067692 
Rotational constants in MHz :          6672.136821          2398.008369          2029.342147 

Dipole components along the rotational axes: 
x,y,z [a.u.] :    -0.057698     0.728497     0.110752 
x,y,z [Debye]:    -0.146655     1.851691     0.281509 

 

Dipole moment calculation done in   0.0 sec 

Maximum memory used throughout the entire PROP-calculation: 9.9 MB

--------------------------------
SUGGESTED CITATIONS FOR THIS RUN
--------------------------------

Below you find a list of papers that are relevant to this ORCA run
We neither can nor want to force you to cite these papers, but we appreciate if you do
You receive ORCA, which is the product of decades of hard work by many enthusiastic individuals, for free
The only thing we kindly ask in return is that you cite our papers,
We deeply appreciate it, if you show your appreciation for ORCA by not just citing the generic ORCA reference.

Please note that relegating all ORCA citations to the supporting information does *not* help us.
SI sections are not indexed - citations you put there will not count into any citation statistics
But we need these citations in order to attract the funding resources that allow us to do what we are doing

Therefore, if you are a happy ORCA user, please consider citing a few of the papers listed below in the main body of your paper

In addition to the list printed below, the program has created the file xtb_opt.bibtex that contains the list in bibtex format
You can import this file easily into all common literature databanks and citation aid programs


List of essential papers. We consider these as the minimum necessary citations

  1. Neese,F.
     Software update: the ORCA program system, version 5.0
     WIRES Comput. Molec. Sci., 2022 12(1)e1606
     doi.org/10.1002/wcms.1606
  2. Grimme,S.; Hansen,A.; Ehlert,S.; Mewes,J.
     r2SCAN-3c: A 'Swiss army knife' composite electronic-structure method
     J. Chem. Phys., 2021 154 064103
     doi.org/10.1063/5.0040021

List of papers to cite with high priority. The work reported in these papers was absolutely
necessary for this run to complete.
Our perspective: the developers of density functionals and basis sets usually get cited in chemistry papers
Good! But without the algorithms to do something with them, the functionals or basis sets would not do anything.
Hence, in our opinion, the algorithm design and method developments papers are equally worthy of getting cited

  1. Neese,F.
     An improvement of the resolution of the identity approximation for the formation of the Coulomb matrix
     J. Comp. Chem., 2003 24(14)1740-1747
     doi.org/10.1002/jcc.10318
  2. Neese,F.
     The SHARK Integral Generation and Digestion System
     J. Comp. Chem., 2022  1-16
     doi.org/10.1002/jcc.26942
  3. Lehtola,S.; Steigemann,C.; Oliveira,M.; Marques,M.
     Recent developments in Libxc - A comprehensive library of functionals for density functional theory
     Software X, 2018 7 
     doi.org/10.1016/j.softx.2017.11.002
  4. Caldeweyher,E.; Bannwarth,C.; Grimme,S.
     Extension of the D3 dispersion coefficient model
     J. Chem. Phys., 2017 147 034112
     doi.org/10.1063/1.4993215
  5. Caldeweyher,E.; Ehlert,S.; Hansen,A.; Neugebauer,H.; Spicher,S.; Bannwarth,C.; Grimme,S.
     A generally applicable atomic-charge dependent London dispersion correction
     J. Chem. Phys., 2019 150 154122
     doi.org/10.1063/1.5090222
  6. Caldeweyher,E.; Mewes,J.; Ehlert,S.; Grimme,S.
     Extension and evaluation of the D4 London-dispersion model for periodic systems
     Phys. Chem. Chem. Phys., 2020 22(16)8499-8512
     doi.org/10.1039/D0CP00502A
  7. Wittmann,L.; Gordiy,I.; Friede,M.; Helmich-Paris,B.; Grimme,S.; Hansen,A.; Bursch,M.
     Extension of the D3 and D4 London Dispersion Corrections to the full Actinides Series
     Phys. Chem. Chem. Phys., 2024 26(32)21379-21394
     doi.org/https://doi.org/10.1039/D4CP01514B 

List of suggested additional citations. These are papers that are important in the 'surrounding' of 
of this run, or papers that preceded the highly important papers. If you like your results we are grateful for a citation.

  1. Neese,F.
     The ORCA program system
     WIRES Comput. Molec. Sci., 2012 2(1)73-78
     doi.org/10.1002/wcms.81
  2. Neese,F.
     Software update: the ORCA program system, version 4.0
     WIRES Comput. Molec. Sci., 2018 8(1)1-6
     doi.org/10.1002/wcms.1327
  3. Neese,F.; Wennmohs,F.; Becker,U.; Riplinger,C.
     The ORCA quantum chemistry program package
     J. Chem. Phys., 2020 152 Art. No. L224108
     doi.org/10.1063/5.0004608

List of optional additional citations

  1. Neese,F.
     Approximate second-order SCF convergence for spin unrestricted wavefunctions
     Chem. Phys. Lett., 2000 325(1-3)93-98
     doi.org/10.1016/s0009-2614(00)00662-x

Timings for individual modules:

Sum of individual times          ...       10.828 sec (=   0.180 min)
Startup calculation              ...        0.651 sec (=   0.011 min)   6.0 %
SCF iterations                   ...        3.418 sec (=   0.057 min)  31.6 %
Property calculations            ...        0.068 sec (=   0.001 min)   0.6 %
SCF Gradient evaluation          ...        6.692 sec (=   0.112 min)  61.8 %
                             ****ORCA TERMINATED NORMALLY****
TOTAL RUN TIME: 0 days 0 hours 0 minutes 10 seconds 951 msec
  ------------------------------------------------------------------------
          * successful ORCA run, taking over control again...

         :::::::::::::::::::::::::::::::::::::::::::::::::::::
         ::                  ORCA SUMMARY                   ::
         :::::::::::::::::::::::::::::::::::::::::::::::::::::
         :: total energy            -307.632962387232 Eh    ::
         :: gradient norm              0.000861929395 Eh/a0 ::
         :: HOMO-LUMO gap              0.000000000000 eV    ::
         :::::::::::::::::::::::::::::::::::::::::::::::::::::

      ----------------------------------------------------------- 
     |                       L-ANC optimizer                     |
      ----------------------------------------------------------- 
          low memory version by Sebastian Ehlert

          ...................................................
          :                      SETUP                      :
          :.................................................:
          :   energy convergence        0.5000000E-05 Eh    :
          :   grad. convergence         0.1000000E-02 Eh/a0 :
          :   optimization log               true           :
          :   writing optlog all                1     steps :
          :   Hessian reset                     8     steps :
          :   maximium step len.        1.0000000     a0    :
          :   LBFGS images                      8           :
          ...................................................
 * calculating model hessian...
Using Lindh-Hessian (1995)
 Shifting diagonal of input Hessian by    1.0000000000000000E-002
 Lowest  eigenvalues of input Hessian
    0.000000    0.000000    0.000000    0.000000    0.000000    0.000000
    0.012715    0.015252    0.018386    0.026465    0.030172    0.032599
    0.043416    0.055191    0.061065    0.072359    0.077193    0.094197
 Highest eigenvalues
    1.154873    1.180740    1.198493    1.274169    1.715577    2.306044


........................................................................
.............................. CYCLE    1 ..............................
........................................................................
                         * ORCA takes the control...
  ------------------------------------------------------------------------

                                 *****************
                                 * O   R   C   A *
                                 *****************

                                            #,                                       
                                            ###                                      
                                            ####                                     
                                            #####                                    
                                            ######                                   
                                           ########,                                 
                                     ,,################,,,,,                         
                               ,,#################################,,                 
                          ,,##########################################,,             
                       ,#########################################, ''#####,          
                    ,#############################################,,   '####,        
                  ,##################################################,,,,####,       
                ,###########''''           ''''###############################       
              ,#####''   ,,,,##########,,,,          '''####'''          '####       
            ,##' ,,,,###########################,,,                        '##       
           ' ,,###''''                  '''############,,,                           
         ,,##''                                '''############,,,,        ,,,,,,###''
      ,#''                                            '''#######################'''  
     '                                                          ''''####''''         
             ,#######,   #######,   ,#######,      ##                                
            ,#'     '#,  ##    ##  ,#'     '#,    #''#        ,####,   ,####,        
            ##       ##  ##   ,#'  ##            #'  '#       #'       #'  '#        
            ##       ##  #######   ##           ,######,      #####,   #    #        
            '#,     ,#'  ##    ##  '#,     ,#' ,#      #,     #,   #   #,  ,#        
             '#######'   ##     ##  '#######'  #'      '#     '####' # '####'        



                #########################################################
                #                        -***-                          #
                #          Department of theory and spectroscopy        #
                #                                                       #
                #                      Frank Neese                      #
                #                                                       #
                #     Directorship, Architecture, Infrastructure        #
                #                    SHARK, DRIVERS                     #
                #        Core code/Algorithms in most modules           #
                #                                                       #
                #        Max Planck Institute fuer Kohlenforschung      #
                #                Kaiser Wilhelm Platz 1                 #
                #                 D-45470 Muelheim/Ruhr                 #
                #                      Germany                          #
                #                                                       #
                #                  All rights reserved                  #
                #                        -***-                          #
                #########################################################


                         Program Version 6.0.1  -  RELEASE   -


 With contributions from (in alphabetic order):
[Max-Planck-Institut fuer Kohlenforschung]                               
  Daniel Aravena         : Magnetic Suceptibility                        
  Michael Atanasov       : Ab Initio Ligand Field Theory (pilot matlab implementation)
  Alexander A. Auer      : GIAO ZORA, VPT2 properties, NMR spectrum      
  Ute Becker             : All parallelization in ORCA, NUMFREQ, NUMCALC 
  Giovanni Bistoni       : ED, misc. LED, open-shell LED, HFLD           
  Martin Brehm           : Molecular dynamics                            
  Dmytro Bykov           : pre 5.0 version of the SCF Hessian            
  Marcos Casanova-Páez   : Triplet and SCS-CIS(D). UHF-(DLPNO)-IP/EA/STEOM-CCSD. UHF-CVS-IP/STEOM-CCSD   
  Vijay G. Chilkuri      : MRCI spin determinant printing, contributions to CSF-ICE 
  Pauline Colinet        : FMM embedding                                 
  Dipayan Datta          : RHF DLPNO-CCSD density                        
  Achintya Kumar Dutta   : EOM-CC, STEOM-CC                              
  Nicolas Foglia         : Exact transition moments, OPA infrastructure, MCD improvements    
  Dmitry Ganyushin       : Spin-Orbit,Spin-Spin,Magnetic field MRCI      
  Miquel Garcia-Rates    : C-PCM and meta-GGA Hessian, CCSD/C-PCM, Gaussian charge scheme 
  Tiago L. C. Gouveia    : GS-ROHF, GS-ROCIS                             
  Yang Guo               : DLPNO-NEVPT2, F12-NEVPT2, CIM, IAO-localization        
  Andreas Hansen         : Spin unrestricted coupled pair/coupled cluster methods 
  Ingolf Harden          : AUTO-CI MPn and infrastructure                
  Benjamin Helmich-Paris : MC-RPA, TRAH-(SCF,CASSCF), AVAS, COSX integrals, SCF dyn. polar. 
  Lee Huntington         : MR-EOM, pCC                                   
  Robert Izsak           : Overlap fitted RIJCOSX, COSX-SCS-MP3, EOM     
  Riya Kayal             : Wick's Theorem for AUTO-CI, AUTO-CI UHF-CCSDT 
  Emily Kempfer          : AUTO-CI, RHF CISDT and CCSDT                  
  Christian Kollmar      : KDIIS, OOCD, Brueckner-CCSD(T), CCSD density, CASPT2, CASPT2-K, improved NEVPT2 
  Axel Koslowski         : Symmetry handling                             
  Simone Kossmann        : meta-GGA functionals, TD-DFT gradient, OOMP2, (MP2 Hessian; deprecated post 5.0) 
  Lucas Lang             : DCDCAS                                        
  Marvin Lechner         : AUTO-CI (C++ implementation), FIC-MRCC        
  Spencer Leger          : CASSCF response                               
  Dagmar Lenk            : GEPOL surface, SMD, ORCA-2-JSON               
  Dimitrios Liakos       : Extrapolation schemes; Compound Job, initial MDCI parallelization 
  Dimitrios Manganas     : Further ROCIS development; embedding schemes. LFT, Crystal Embedding 
  Dimitrios Pantazis     : SARC Basis sets                               
  Anastasios Papadopoulos: AUTO-CI, single reference methods and gradients 
  Taras Petrenko         : pre 6.0 DFT Hessian and TD-DFT gradient, (ASA, deprecated), ECA, 1-Electron XAS/XES, NRVS 
  Peter Pinski           : DLPNO-MP2, DLPNO-MP2 Gradient                 
  Christoph Reimann      : Effective Core Potentials                     
  Marius Retegan         : Local ZFS, SOC                                
  Christoph Riplinger    : Optimizer, TS searches, QM/MM, DLPNO-CCSD(T), (RO)-DLPNO pert. Triples 
  Michael Roemelt        : Original ROCIS implementation                 
  Masaaki Saitow         : Open-shell DLPNO-CCSD energy and density      
  Barbara Sandhoefer     : DKH picture change effects                    
  Kantharuban Sivalingam : CASSCF convergence/infrastructure, NEVPT2 and variants, FIC-MRCI 
  Bernardo de Souza      : ESD, SOC TD-DFT                               
  Georgi L. Stoychev     : AutoAux, RI-MP2 NMR, DLPNO-MP2 response, X2C  
  Van Anh Tran           : RI-MP2 g-tensors                              
  Willem Van den Heuvel  : Paramagnetic NMR                              
  Zikuan Wang            : NOTCH, Electric field optimization            
  Frank Wennmohs         : Technical directorship and infrastructure     
  Hang Xu                : AUTO-CI-Response properties                   
                                                                         
[FACCTs GmbH]                                                            
  Markus Bursch, Miquel Garcia-Rates, Christoph Riplinger, Bernardo de Souza, Georgi L. Stoychev 
                                                                 
  APM, Basis sets (HGBS, AHGBS, def-TZVP (Ac-Lr), def2-XVPD (La-Lu)), CI-OPT, improved COSX, DLPNO-Multilevel,           
  DOCKER, DRACO, updates on ESD, GOAT, IRC, LR-CPCM, MBIS, meta-GGA TD-DFT gradient, ML-optimized integration grids, 
  MM, NACMEs, nearIR, NEB, NEB-TS, NL-DFT gradient (VV10), 2- and 3-layer-ONIOM, interface openCOSMO-RS, QMMM,   
  Crystal-QMMM, SF, symmetry and pop. for TD-DFT, r2SCAN hybrids, SOLVATOR                                   
                                                                         
[Other institutions]                                                     
  V. Asgeirsson          : NEB                                           
  Christoph Bannwarth    : sTDA-DFT, sTD-DFT, PBEh-3c, B97-3c, D3        
  Sebastian Ehlert       : rSCAN, r2SCAN, r2SCAN-3c, D4, dhf basis sets  
  Marvin Friede          : D4 for Fr, Ra, Ac-Lr                          
  Lars Goerigk           : TD-DFT with DH, B97 family of functionals     
  Stefan Grimme          : VdW corrections, initial TS optimization, DFT functionals, gCP, sTDA/sTD-DF 
  Waldemar Hujo          : DFT-NL                                        
  H. Jonsson             : NEB                                           
  Holger Kruse           : gCP                                           
  Marcel Mueller         : wB97X-3c, vDZP basis set                      
  Hagen Neugebauer       : wr2SCAN                                       
  Tobias Risthaus        : range-separated hybrid DFT                    
  Lukas Wittmann         : regularized MP2, r2SCAN double-hybrids, wr2SCAN        
                                                                         
We gratefully acknowledge several colleagues who have allowed us to      
interface, adapt or use parts of their codes:                            
  Ed Valeev, F. Pavosevic, A. Kumar             : LibInt (2-el integral package), F12 methods 
  Garnet Chan, S. Sharma, J. Yang, R. Olivares  : DMRG                   
  Ulf Ekstrom                                   : XCFun DFT Library      
  Mihaly Kallay                                 : mrcc  (arbitrary order and MRCC methods)
  Frank Weinhold                                : gennbo (NPA and NBO analysis)           
  Simon Mueller                                 : openCOSMO-RS                            
  Christopher J. Cramer and Donald G. Truhlar   : smd solvation model                     
  S Lehtola, MJT Oliveira, MAL Marques          : LibXC Library                           
  Liviu Ungur et al                             : ANISO software                          


 Your calculation uses the libint2 library for the computation of 2-el integrals
 For citations please refer to: http://libint.valeyev.net

 Your ORCA version has been built with support for libXC version: 6.2.2
 For citations please refer to: https://libxc.gitlab.io

 This ORCA versions uses:
   CBLAS   interface :  Fast vector & matrix operations
   LAPACKE interface :  Fast linear algebra routines
   SCALAPACK package :  Parallel linear algebra routines
   Shared memory     :  Shared parallel matrices
   BLAS/LAPACK       :  OpenBLAS 0.3.27  USE64BITINT DYNAMIC_ARCH NO_AFFINITY Zen SINGLE_THREADED
        Core in use  :  Zen
   Copyright (c) 2011-2014, The OpenBLAS Project




***************************************
The coordinates will be read from file: xtb_opt.xyz
***************************************


Your calculation utilizes the geometrical counterpoise correction gCP
Please cite in your paper:
H.Kruse, S. Grimme J.Chem.Phys., 136, (2012), 154101 
   

Your calculation utilizes the atom-pairwise dispersion correction
based on EEQ partial charges (D4)


================================================================================

----- Orbital basis set information -----
Your calculation utilizes the basis: def2-mTZVPP
   Stefan Grimme, Andreas Hansen, Sebastian Ehlert, and Jan-Michael Mewes 
   J. Chem. Phys. 154, 064103 (2021). DOI: 10.1063/5.0040021

----- AuxJ basis set information -----
Your calculation utilizes the auxiliary basis: def2/J
   F. Weigend, Phys. Chem. Chem. Phys. 8, 1057 (2006).

================================================================================
                                        WARNINGS
                       Please study these warnings very carefully!
================================================================================

WARNING: Old DensityContainer found on disk!
         Will remove this file - 
         If you want to keep old densities, please start your calculation with a different basename. 



WARNING: SCAN, rSCAN, or r2SCAN functional requested.
  ===> : libXC variant has now been activated.



================================================================================
                                       INPUT FILE
================================================================================
NAME = xtb_opt.inp
|  1> ! r2scan-3c def2/J RI DEFGRID2 scfconv7 ENGRAD tightSCF miniprint
|  2> * xyzfile 0 1 xtb_opt.xyz
|  3> 
|  4>                          ****END OF INPUT****
================================================================================

                     *******************************
                     * Energy+Gradient Calculation *
                     *******************************

---------------------------------
CARTESIAN COORDINATES (ANGSTROEM)
---------------------------------
  C     -2.159441    0.350573   -0.687532
  C     -1.329084    0.477530    0.598260
  C      0.024164   -0.158720    0.409485
  O      0.312197   -1.296989    0.698133
  O      0.887024    0.702257   -0.185920
  C      2.187335    0.149605   -0.477593
  H     -2.281808   -0.700163   -0.964937
  H     -3.152416    0.783895   -0.541748
  H     -1.675098    0.874146   -1.516138
  H     -1.822752   -0.042556    1.422385
  H     -1.205891    1.531779    0.862711
  H      2.745615    0.953780   -0.956680
  H      2.094883   -0.709906   -1.146886
  H      2.681754   -0.168487    0.444017

----------------------------
CARTESIAN COORDINATES (A.U.)
----------------------------
  NO LB      ZA    FRAG     MASS         X           Y           Z
   0 C     6.0000    0    12.011   -4.080753    0.662487   -1.299248
   1 C     6.0000    0    12.011   -2.511605    0.902400    1.130547
   2 C     6.0000    0    12.011    0.045663   -0.299937    0.773815
   3 O     8.0000    0    15.999    0.589967   -2.450955    1.319280
   4 O     8.0000    0    15.999    1.676232    1.327074   -0.351339
   5 C     6.0000    0    12.011    4.133463    0.282712   -0.902519
   6 H     1.0000    0     1.008   -4.311993   -1.323116   -1.823467
   7 H     1.0000    0     1.008   -5.957204    1.481347   -1.023756
   8 H     1.0000    0     1.008   -3.165477    1.651896   -2.865085
   9 H     1.0000    0     1.008   -3.444501   -0.080418    2.687918
  10 H     1.0000    0     1.008   -2.278803    2.894642    1.630288
  11 H     1.0000    0     1.008    5.188460    1.802382   -1.807863
  12 H     1.0000    0     1.008    3.958755   -1.341527   -2.167300
  13 H     1.0000    0     1.008    5.067781   -0.318395    0.839071

------------------------------------------------------------------------------
                   ___                                                        
                  /   \      - P O W E R E D   B Y -                         
                 /     \                                                     
                 |  |  |   _    _      __       _____    __    __             
                 |  |  |  | |  | |    /  \     |  _  \  |  |  /  |          
                  \  \/   | |  | |   /    \    | | | |  |  | /  /          
                 / \  \   | |__| |  /  /\  \   | |_| |  |  |/  /          
                |  |  |   |  __  | /  /__\  \  |    /   |      \           
                |  |  |   | |  | | |   __   |  |    \   |  |\   \          
                \     /   | |  | | |  |  |  |  | |\  \  |  | \   \       
                 \___/    |_|  |_| |__|  |__|  |_| \__\ |__|  \__/        
                                                                              
                      - O R C A' S   B I G   F R I E N D -                    
                                      &                                       
                       - I N T E G R A L  F E E D E R -                       
                                                                              
 v1 FN, 2020, v2 2021, v3 2022-2024                                           
------------------------------------------------------------------------------


----------------------
SHARK INTEGRAL PACKAGE
----------------------

Number of atoms                             ...     14
Number of basis functions                   ...    164
Number of shells                            ...     80
Maximum angular momentum                    ...      2
Integral batch strategy                     ... SHARK/LIBINT Hybrid
RI-J (if used) integral strategy            ... SPLIT-RIJ (Revised 2003 algorithm where possible)
Printlevel                                  ...      1
Contraction scheme used                     ... SEGMENTED contraction
Prescreening option                         ... SCHWARTZ
   Thresh                                   ... 3.000e-11
   Tcut                                     ... 1.000e-12
   Tpresel                                  ... 1.000e-12 
Coulomb Range Separation                    ... NOT USED
Exchange Range Separation                   ... NOT USED
Multipole approximations                    ... NOT USED
Finite Nucleus Model                        ... NOT USED
CABS basis                                  ... NOT available
Auxiliary Coulomb fitting basis             ... AVAILABLE
   # of basis functions in Aux-J            ...    382
   # of shells in Aux-J                     ...    130
   Maximum angular momentum in Aux-J        ...      4
Auxiliary J/K fitting basis                 ... NOT available
Auxiliary Correlation fitting basis         ... NOT available
Auxiliary 'external' fitting basis          ... NOT available

Checking pre-screening integrals            ... done (  0.0 sec) Dimension = 80
Check shell pair data                       ... done (  0.0 sec)
Shell pair information
Shell pair cut-off parameter TPreSel        ...   1.0e-12
Total number of shell pairs                 ...      3240
Shell pairs after pre-screening             ...      3023
Total number of primitive shell pairs       ...     11481
Primitive shell pairs kept                  ...      7944
          la=0 lb=0:    986 shell pairs
          la=1 lb=0:   1112 shell pairs
          la=1 lb=1:    330 shell pairs
          la=2 lb=0:    356 shell pairs
          la=2 lb=1:    203 shell pairs
          la=2 lb=2:     36 shell pairs

Calculating one electron integrals          ... done (  0.0 sec)
Calculating RI/J V-Matrix + Cholesky decomp.... done (  0.0 sec)
Calculating Nuclear repulsion               ... done (  0.0 sec) ENN=    245.981793722403 Eh

Diagonalization of the overlap matrix:
Smallest eigenvalue                        ... 2.547e-04
Time for diagonalization                   ...    0.003 sec
Threshold for overlap eigenvalues          ... 1.000e-07
Number of eigenvalues below threshold      ... 0
Time for construction of square roots      ...    0.001 sec
Total time needed                          ...    0.005 sec

-------------------
DFT GRID GENERATION
-------------------

General Integration Accuracy     IntAcc      ... 4.388
Radial Grid Type                 RadialGrid  ... OptM3 with GC (2021)
Angular Grid (max. ang.)         AngularGrid ... 4 (Lebedev-302)
Angular grid pruning method      GridPruning ... 4 (adaptive)
Weight generation scheme         WeightScheme... mBecke (2022)
Basis function cutoff            BFCut       ... 1.0000e-11
Integration weight cutoff        WCut        ... 1.0000e-14
Partially contracted basis set               ... off
Rotationally invariant grid construction     ... off
Angular grids for H and He will be reduced by one unit
Diffuse basis detected: some atoms will have their outermost
                        angular grid increased by 1.

Total number of grid points                  ...    62818
Total number of batches                      ...      989
Average number of points per batch           ...       63
Average number of grid points per atom       ...     4487
Initializing property integral containers    ... done (  0.0 sec)

SHARK setup successfully completed in   0.6 seconds

Maximum memory used throughout the entire STARTUP-calculation: 28.6 MB
Occupation numbers will be reassigned to an Aufbau configuration
             **** ENERGY FILE WAS UPDATED (xtb_opt.en.tmp) ****
Finished Guess after   0.1 sec
Maximum memory used throughout the entire GUESS-calculation: 11.6 MB
----------------------------------------D-I-I-S--------------------------------------------
Iteration    Energy (Eh)           Delta-E    RMSDP     MaxDP     DIISErr   Damp  Time(sec)
-------------------------------------------------------------------------------------------
               ***  Starting incremental Fock matrix formation  ***
                              *** Initializing SOSCF ***
---------------------------------------S-O-S-C-F--------------------------------------
Iteration    Energy (Eh)           Delta-E    RMSDP     MaxDP     MaxGrad    Time(sec)
--------------------------------------------------------------------------------------
    1    -307.6391147782101143     0.00e+00  1.69e-05  2.47e-04  4.95e-05     1.5
               *** Restarting incremental Fock matrix formation ***
    2    -307.6391165678879815    -1.79e-06  7.51e-06  1.07e-04  4.78e-05     1.6
    3    -307.6391165691359220    -1.25e-09  4.98e-06  9.75e-05  1.36e-04     1.2
                 **** Energy Check signals convergence ****

               *****************************************************
               *                     SUCCESS                       *
               *           SCF CONVERGED AFTER   3 CYCLES          *
               *****************************************************

             **** ENERGY FILE WAS UPDATED (xtb_opt.en.tmp) ****

----------------
TOTAL SCF ENERGY
----------------

Total Energy       :       -307.63911656913592 Eh           -8371.28595 eV

Components:
Nuclear Repulsion  :        245.98179372240324 Eh            6693.50490 eV
Electronic Energy  :       -553.62091029153908 Eh          -15064.79085 eV
One Electron Energy:       -905.46503291617898 Eh          -24638.95617 eV
Two Electron Energy:        351.84412262463985 Eh            9574.16532 eV

Virial components:
Potential Energy   :       -613.93182905350727 Eh          -16705.93438 eV
Kinetic Energy     :        306.29271248437129 Eh            8334.64843 eV
Virial Ratio       :          2.00439580842079

DFT components:
N(Alpha)           :       23.999982569027 electrons
N(Beta)            :       23.999982569027 electrons
N(Total)           :       47.999965138054 electrons
E(X)               :      -40.200764077686 Eh       
E(C)               :       -1.536206742747 Eh       
E(XC)              :      -41.736970820433 Eh       

---------------
SCF CONVERGENCE
---------------

  Last Energy change         ...    1.2479e-09  Tolerance :   1.0000e-07
  Last MAX-Density change    ...    9.7519e-05  Tolerance :   1.0000e-07
  Last RMS-Density change    ...    4.9797e-06  Tolerance :   5.0000e-09
  Last DIIS Error            ...    5.7506e-04  Tolerance :   1.0000e-07
  Last Orbital Gradient      ...    1.3560e-04  Tolerance :   1.0000e-04
  Last Orbital Rotation      ...    1.8581e-04  Tolerance :   1.0000e-04


----------------
ORBITAL ENERGIES
----------------

  NO   OCC          E(Eh)            E(eV) 
   0   2.0000     -18.998034      -516.9628 
   1   2.0000     -18.935187      -515.2526 
   2   2.0000     -10.154563      -276.3197 
   3   2.0000     -10.086226      -274.4602 
   4   2.0000     -10.047403      -273.4037 
   5   2.0000     -10.036072      -273.0954 
   6   2.0000      -1.064989       -28.9798 
   7   2.0000      -0.978612       -26.6294 
   8   2.0000      -0.759572       -20.6690 
   9   2.0000      -0.688115       -18.7246 
  10   2.0000      -0.614015       -16.7082 
  11   2.0000      -0.530939       -14.4476 
  12   2.0000      -0.468739       -12.7550 
  13   2.0000      -0.447389       -12.1741 
  14   2.0000      -0.446226       -12.1424 
  15   2.0000      -0.409151       -11.1336 
  16   2.0000      -0.399064       -10.8591 
  17   2.0000      -0.378882       -10.3099 
  18   2.0000      -0.350375        -9.5342 
  19   2.0000      -0.332215        -9.0400 
  20   2.0000      -0.327475        -8.9111 
  21   2.0000      -0.323333        -8.7983 
  22   2.0000      -0.275026        -7.4838 
  23   2.0000      -0.239173        -6.5082 
  24   0.0000      -0.020384        -0.5547 
  25   0.0000       0.061759         1.6805 
  26   0.0000       0.093578         2.5464 
  27   0.0000       0.120837         3.2882 
  28   0.0000       0.124713         3.3936 
  29   0.0000       0.140690         3.8284 
  30   0.0000       0.156978         4.2716 
  31   0.0000       0.166168         4.5217 
  32   0.0000       0.174466         4.7474 
  33   0.0000       0.181436         4.9371 
  34   0.0000       0.184590         5.0230 
*Only the first 10 virtual orbitals were printed.
Total SCF time: 0 days 0 hours 0 min 4 sec 
Finished LeanSCF after   4.4 sec

Maximum memory used throughout the entire LEANSCF-calculation: 17.5 MB


-------------------------------------------------------------------------------
                          DFT DISPERSION CORRECTION                            
                                                                               
                                DFTD4 V3.4.0                                   
-------------------------------------------------------------------------------
-------------------------   ----------------
Dispersion correction           -0.002994982
-------------------------   ----------------

------------------   -----------------
gCP correction             0.009147946
------------------   -----------------

-------------------------   --------------------
FINAL SINGLE POINT ENERGY      -307.632963605247
-------------------------   --------------------

------------------------------------------------------------------------------
                         ORCA SCF GRADIENT CALCULATION
------------------------------------------------------------------------------

Nuc. rep. gradient        (SHARK) ... done (  0.0 sec)
HCore & Overlap gradient  (SHARK) ... done (  0.2 sec)
Split-RIJ-J gradient      (SHARK) ... done (  1.1 sec)
XC gradient                       ... done (  4.8 sec)
Dispersion correction             ... done (  0.0 sec)

-------------------
DISPERSION GRADIENT
-------------------

   1   C   :   -0.000064136    0.000009113   -0.000020380
   2   C   :   -0.000047355    0.000012845    0.000021272
   3   C   :    0.000012943   -0.000007113    0.000012431
   4   O   :    0.000019540   -0.000048245    0.000029642
   5   O   :    0.000044253    0.000010746   -0.000001424
   6   C   :    0.000071352   -0.000005151   -0.000011374
   7   H   :   -0.000027695   -0.000004194   -0.000010806
   8   H   :   -0.000025632    0.000005768   -0.000008170
   9   H   :   -0.000028004    0.000008912   -0.000015837
  10   H   :   -0.000016654   -0.000001769    0.000013820
  11   H   :   -0.000016640    0.000014862    0.000010396
  12   H   :    0.000027131    0.000006933   -0.000009058
  13   H   :    0.000027941   -0.000002824   -0.000007357
  14   H   :    0.000022958    0.000000116   -0.000003156

Difference to translation invariance:
           :   -0.0000000000    0.0000000000   -0.0000000000

Difference to rotation invariance:
           :    0.0000000000    0.0000000000    0.0000000000

Norm of the Dispersion gradient    ...    0.0001576435
RMS gradient                       ...    0.0000243249
MAX gradient                       ...    0.0000713521
gCP correction                   ... done

------------------
CARTESIAN GRADIENT
------------------

   1   C   :   -0.000048604    0.000042540    0.000002318
   2   C   :    0.000005552   -0.000072055   -0.000041015
   3   C   :    0.000077968   -0.000017921    0.000203697
   4   O   :   -0.000013774    0.000082877   -0.000020273
   5   O   :    0.000013524   -0.000013108   -0.000069344
   6   C   :   -0.000077587    0.000015841   -0.000004226
   7   H   :    0.000017929    0.000002573    0.000003299
   8   H   :   -0.000002044    0.000008368   -0.000049135
   9   H   :    0.000046334    0.000005695    0.000006240
  10   H   :    0.000011924   -0.000028382   -0.000031944
  11   H   :   -0.000003972   -0.000002643    0.000029907
  12   H   :   -0.000025432   -0.000002433   -0.000006118
  13   H   :   -0.000020982   -0.000027076   -0.000017698
  14   H   :    0.000019163    0.000005725   -0.000005705

Difference to translation invariance:
           :    0.0000000000   -0.0000000000   -0.0000000000

Difference to rotation invariance:
           :   -0.0000100333    0.0000195332    0.0000402304

Norm of the Cartesian gradient     ...    0.0002973821
RMS gradient                       ...    0.0000458871
MAX gradient                       ...    0.0002036965

-------
TIMINGS
-------

Total SCF gradient time     ....        6.158 sec

Densities                   ....       0.001 sec  (  0.0%)
One electron gradient       ....       0.210 sec  (  3.4%)
RI-J Coulomb gradient       ....       1.086 sec  ( 17.6%)
XC gradient                 ....       4.804 sec  ( 78.0%)

Maximum memory used throughout the entire SCFGRAD-calculation: 31.7 MB

------------------------------------------------------------------------------
                              ORCA PROPERTY CALCULATIONS
------------------------------------------------------------------------------

GBWName                                 ... xtb_opt.gbw
Number of atoms                         ...     14
Number of basis functions               ...    164
Max core memory                         ...   1024 MB

Electric properties:
Dipole moment                           ... YES
Quadrupole moment                       ...  NO
Static polarizability (Dipole/Dipole)   ...  NO
Static polarizability (Dipole/Quad.)    ...  NO
Static polarizability (Quad./Quad.)     ...  NO
Static polarizability (Velocity)        ...  NO

Atomic electric properties:
Dipole moment                           ...  NO
Quadrupole moment                       ...  NO
Static polarizability                   ...  NO

Choice of electric origin               ... Center of mass
Position of electric origin             ...     0.025981     0.061437     0.083394

General magnetic properties:
Magnetizability                         ...  NO

EPR properties:
g-Tensor (aka g-matrix)                 ...  NO
Zero-Field splitting spin-orbit         ...  NO
Zero-field splitting spin-spin          ...  NO
Hyperfine couplings                     ...  NO (   0 nuclei)
Quadrupole couplings                    ...  NO (   0 nuclei)
Contact density                         ...  NO (   0 nuclei)

NMR properties:
Chemical shifts                         ...  NO (   0 nuclei)
Spin-rotation constants                 ...  NO (   0 nuclei)
Spin-spin couplings                     ...  NO (   0 nuclei,    0 pairs)

Choice of magnetic origin               ... GIAO
Position of magnetic origin             ...     0.000000     0.000000     0.000000

Properties with geometric perturbations:
SCF Hessian                             ...  NO
IR spectrum                             ...  NO
VCD spectrum                            ...  NO
X-ray spectroscopy properties:
SCF XES/XAS/RIXS spectra                ...  NO


-------------
DIPOLE MOMENT
-------------

Method             : SCF
Type of density    : Electron Density
Multiplicity       :   1
Irrep              :   0
Energy             :  -307.6391165691359220 Eh
Relativity type    : 
Basis              : AO
                                X                 Y                 Z
Electronic contribution:      2.532559670      -1.452620455       2.242399290
Nuclear contribution   :     -2.539859399       2.112773429      -2.574012257
                        -----------------------------------------
Total Dipole Moment    :     -0.007299729       0.660152973      -0.331612967
                        -----------------------------------------
Magnitude (a.u.)       :      0.738797939
Magnitude (Debye)      :      1.877875123



--------------------
Rotational spectrum 
--------------------
 
Rotational constants in cm-1:             0.222612             0.079929             0.067651 
Rotational constants in MHz :          6673.725067          2396.221437          2028.128924 

Dipole components along the rotational axes: 
x,y,z [a.u.] :    -0.057395     0.728145     0.111055 
x,y,z [Debye]:    -0.145887     1.850797     0.282278 

 

Dipole moment calculation done in   0.0 sec 

Maximum memory used throughout the entire PROP-calculation: 9.9 MB

--------------------------------
SUGGESTED CITATIONS FOR THIS RUN
--------------------------------

Below you find a list of papers that are relevant to this ORCA run
We neither can nor want to force you to cite these papers, but we appreciate if you do
You receive ORCA, which is the product of decades of hard work by many enthusiastic individuals, for free
The only thing we kindly ask in return is that you cite our papers,
We deeply appreciate it, if you show your appreciation for ORCA by not just citing the generic ORCA reference.

[...]
    3    -307.6391164794316637     1.87e-07  4.00e-06  1.17e-04  1.71e-04     1.2
    4    -307.6391166968938933    -2.17e-07  3.18e-07  5.48e-06  2.01e-06     1.0
                  *** Gradient check signals convergence ***

               *****************************************************
               *                     SUCCESS                       *
               *           SCF CONVERGED AFTER   4 CYCLES          *
               *****************************************************

             **** ENERGY FILE WAS UPDATED (xtb_opt.en.tmp) ****

----------------
TOTAL SCF ENERGY
----------------

Total Energy       :       -307.63911669689389 Eh           -8371.28595 eV

Components:
Nuclear Repulsion  :        245.98179372240324 Eh            6693.50490 eV
Electronic Energy  :       -553.62091041929716 Eh          -15064.79085 eV
One Electron Energy:       -905.46378214197580 Eh          -24638.92213 eV
Two Electron Energy:        351.84287172267864 Eh            9574.13128 eV

Virial components:
Potential Energy   :       -613.93129107662264 Eh          -16705.91974 eV
Kinetic Energy     :        306.29217437972875 Eh            8334.63379 eV
Virial Ratio       :          2.00439757339505

DFT components:
N(Alpha)           :       23.999982568852 electrons
N(Beta)            :       23.999982568852 electrons
N(Total)           :       47.999965137704 electrons
E(X)               :      -40.200718599528 Eh       
E(C)               :       -1.536204613102 Eh       
E(XC)              :      -41.736923212630 Eh       

---------------
SCF CONVERGENCE
---------------

  Last Energy change         ...    2.1746e-07  Tolerance :   1.0000e-07
  Last MAX-Density change    ...    5.4824e-06  Tolerance :   1.0000e-07
  Last RMS-Density change    ...    3.1843e-07  Tolerance :   5.0000e-09
  Last DIIS Error            ...    8.4538e-05  Tolerance :   1.0000e-07
  Last Orbital Gradient      ...    2.0105e-06  Tolerance :   1.0000e-04
  Last Orbital Rotation      ...    5.0756e-06  Tolerance :   1.0000e-04


----------------
ORBITAL ENERGIES
----------------

  NO   OCC          E(Eh)            E(eV) 
   0   2.0000     -18.998482      -516.9750 
   1   2.0000     -18.934795      -515.2420 
   2   2.0000     -10.154634      -276.3216 
   3   2.0000     -10.086262      -274.4611 
   4   2.0000     -10.047439      -273.4047 
   5   2.0000     -10.036102      -273.0962 
   6   2.0000      -1.065084       -28.9824 
   7   2.0000      -0.978579       -26.6285 
   8   2.0000      -0.759607       -20.6700 
   9   2.0000      -0.688181       -18.7264 
  10   2.0000      -0.614036       -16.7088 
  11   2.0000      -0.531021       -14.4498 
  12   2.0000      -0.468766       -12.7558 
  13   2.0000      -0.447397       -12.1743 
  14   2.0000      -0.446278       -12.1438 
  15   2.0000      -0.409128       -11.1329 
  16   2.0000      -0.399087       -10.8597 
  17   2.0000      -0.378883       -10.3099 
  18   2.0000      -0.350380        -9.5343 
  19   2.0000      -0.332203        -9.0397 
  20   2.0000      -0.327495        -8.9116 
  21   2.0000      -0.323411        -8.8005 
  22   2.0000      -0.275091        -7.4856 
  23   2.0000      -0.239072        -6.5055 
  24   0.0000      -0.020380        -0.5546 
  25   0.0000       0.061718         1.6794 
  26   0.0000       0.093548         2.5456 
  27   0.0000       0.120825         3.2878 
  28   0.0000       0.124700         3.3933 
  29   0.0000       0.140661         3.8276 
  30   0.0000       0.156966         4.2713 
  31   0.0000       0.166163         4.5215 
  32   0.0000       0.174448         4.7470 
  33   0.0000       0.181420         4.9367 
  34   0.0000       0.184574         5.0225 
*Only the first 10 virtual orbitals were printed.
Total SCF time: 0 days 0 hours 0 min 5 sec 
Finished LeanSCF after   5.5 sec

Maximum memory used throughout the entire LEANSCF-calculation: 17.5 MB


-------------------------------------------------------------------------------
                          DFT DISPERSION CORRECTION                            
                                                                               
                                DFTD4 V3.4.0                                   
-------------------------------------------------------------------------------
-------------------------   ----------------
Dispersion correction           -0.002994982
-------------------------   ----------------

------------------   -----------------
gCP correction             0.009147946
------------------   -----------------

-------------------------   --------------------
FINAL SINGLE POINT ENERGY      -307.632963733005
-------------------------   --------------------

------------------------------------------------------------------------------
                         ORCA SCF GRADIENT CALCULATION
------------------------------------------------------------------------------

Nuc. rep. gradient        (SHARK) ... done (  0.0 sec)
HCore & Overlap gradient  (SHARK) ... done (  0.2 sec)
Split-RIJ-J gradient      (SHARK) ... done (  1.0 sec)
XC gradient                       ... done (  4.6 sec)
Dispersion correction             ... done (  0.0 sec)

-------------------
DISPERSION GRADIENT
-------------------

   1   C   :   -0.000064136    0.000009113   -0.000020380
   2   C   :   -0.000047355    0.000012845    0.000021272
   3   C   :    0.000012943   -0.000007113    0.000012431
   4   O   :    0.000019540   -0.000048245    0.000029642
   5   O   :    0.000044253    0.000010746   -0.000001424
   6   C   :    0.000071352   -0.000005151   -0.000011374
   7   H   :   -0.000027695   -0.000004194   -0.000010806
   8   H   :   -0.000025632    0.000005768   -0.000008170
   9   H   :   -0.000028004    0.000008912   -0.000015837
  10   H   :   -0.000016654   -0.000001769    0.000013820
  11   H   :   -0.000016640    0.000014862    0.000010396
  12   H   :    0.000027131    0.000006933   -0.000009058
  13   H   :    0.000027941   -0.000002824   -0.000007357
  14   H   :    0.000022958    0.000000116   -0.000003156

Difference to translation invariance:
           :   -0.0000000000    0.0000000000   -0.0000000000

Difference to rotation invariance:
           :    0.0000000000    0.0000000000    0.0000000000

Norm of the Dispersion gradient    ...    0.0001576435
RMS gradient                       ...    0.0000243249
MAX gradient                       ...    0.0000713521
gCP correction                   ... done

------------------
CARTESIAN GRADIENT
------------------

   1   C   :   -0.000046970    0.000045385   -0.000001016
   2   C   :    0.000027035   -0.000072231   -0.000057553
   3   C   :    0.000121867    0.000178067    0.000209341
   4   O   :   -0.000025742   -0.000024054   -0.000050078
   5   O   :   -0.000022586   -0.000096119   -0.000047351
   6   C   :   -0.000103651    0.000036472   -0.000008573
   7   H   :    0.000015342    0.000003565    0.000003452
   8   H   :    0.000000094    0.000006164   -0.000039811
   9   H   :    0.000034115    0.000000592    0.000009639
  10   H   :    0.000008182   -0.000027931   -0.000025301
  11   H   :   -0.000001699   -0.000014109    0.000023937
  12   H   :   -0.000024062   -0.000010233    0.000002518
  13   H   :   -0.000008352   -0.000025310   -0.000016000
  14   H   :    0.000026427   -0.000000258   -0.000003206

Difference to translation invariance:
           :    0.0000000000    0.0000000000   -0.0000000000

Difference to rotation invariance:
           :    0.0000659723    0.0000588512   -0.0000509970

Norm of the Cartesian gradient     ...    0.0003735843
RMS gradient                       ...    0.0000576453
MAX gradient                       ...    0.0002093414

-------
TIMINGS
-------

Total SCF gradient time     ....        5.872 sec

Densities                   ....       0.000 sec  (  0.0%)
One electron gradient       ....       0.207 sec  (  3.5%)
RI-J Coulomb gradient       ....       0.964 sec  ( 16.4%)
XC gradient                 ....       4.649 sec  ( 79.2%)

Maximum memory used throughout the entire SCFGRAD-calculation: 31.7 MB

------------------------------------------------------------------------------
                              ORCA PROPERTY CALCULATIONS
------------------------------------------------------------------------------

GBWName                                 ... xtb_opt.gbw
Number of atoms                         ...     14
Number of basis functions               ...    164
Max core memory                         ...   1024 MB

Electric properties:
Dipole moment                           ... YES
Quadrupole moment                       ...  NO
Static polarizability (Dipole/Dipole)   ...  NO
Static polarizability (Dipole/Quad.)    ...  NO
Static polarizability (Quad./Quad.)     ...  NO
Static polarizability (Velocity)        ...  NO

Atomic electric properties:
Dipole moment                           ...  NO
Quadrupole moment                       ...  NO
Static polarizability                   ...  NO

Choice of electric origin               ... Center of mass
Position of electric origin             ...     0.025981     0.061437     0.083394

General magnetic properties:
Magnetizability                         ...  NO

EPR properties:
g-Tensor (aka g-matrix)                 ...  NO
Zero-Field splitting spin-orbit         ...  NO
Zero-field splitting spin-spin          ...  NO
Hyperfine couplings                     ...  NO (   0 nuclei)
Quadrupole couplings                    ...  NO (   0 nuclei)
Contact density                         ...  NO (   0 nuclei)

NMR properties:
Chemical shifts                         ...  NO (   0 nuclei)
Spin-rotation constants                 ...  NO (   0 nuclei)
Spin-spin couplings                     ...  NO (   0 nuclei,    0 pairs)

Choice of magnetic origin               ... GIAO
Position of magnetic origin             ...     0.000000     0.000000     0.000000

Properties with geometric perturbations:
SCF Hessian                             ...  NO
IR spectrum                             ...  NO
VCD spectrum                            ...  NO
X-ray spectroscopy properties:
SCF XES/XAS/RIXS spectra                ...  NO


-------------
DIPOLE MOMENT
-------------

Method             : SCF
Type of density    : Electron Density
Multiplicity       :   1
Irrep              :   0
Energy             :  -307.6391166968938933 Eh
Relativity type    : 
Basis              : AO
                                X                 Y                 Z
Electronic contribution:      2.532648473      -1.453186909       2.242568952
Nuclear contribution   :     -2.539859399       2.112773429      -2.574012257
                        -----------------------------------------
Total Dipole Moment    :     -0.007210926       0.659586520      -0.331443304
                        -----------------------------------------
Magnitude (a.u.)       :      0.738214764
Magnitude (Debye)      :      1.876392812



--------------------
Rotational spectrum 
--------------------
 
Rotational constants in cm-1:             0.222612             0.079929             0.067651 
Rotational constants in MHz :          6673.725067          2396.221437          2028.128924 

Dipole components along the rotational axes: 
x,y,z [a.u.] :    -0.057262     0.727592     0.110871 
x,y,z [Debye]:    -0.145548     1.849391     0.281812 

 

Dipole moment calculation done in   0.0 sec 

Maximum memory used throughout the entire PROP-calculation: 9.9 MB

--------------------------------
SUGGESTED CITATIONS FOR THIS RUN
--------------------------------

Below you find a list of papers that are relevant to this ORCA run
We neither can nor want to force you to cite these papers, but we appreciate if you do
You receive ORCA, which is the product of decades of hard work by many enthusiastic individuals, for free
The only thing we kindly ask in return is that you cite our papers,
We deeply appreciate it, if you show your appreciation for ORCA by not just citing the generic ORCA reference.

Please note that relegating all ORCA citations to the supporting information does *not* help us.
SI sections are not indexed - citations you put there will not count into any citation statistics
But we need these citations in order to attract the funding resources that allow us to do what we are doing

Therefore, if you are a happy ORCA user, please consider citing a few of the papers listed below in the main body of your paper

In addition to the list printed below, the program has created the file xtb_opt.bibtex that contains the list in bibtex format
You can import this file easily into all common literature databanks and citation aid programs


List of essential papers. We consider these as the minimum necessary citations

  1. Neese,F.
     Software update: the ORCA program system, version 5.0
     WIRES Comput. Molec. Sci., 2022 12(1)e1606
     doi.org/10.1002/wcms.1606
  2. Grimme,S.; Hansen,A.; Ehlert,S.; Mewes,J.
     r2SCAN-3c: A 'Swiss army knife' composite electronic-structure method
     J. Chem. Phys., 2021 154 064103
     doi.org/10.1063/5.0040021

List of papers to cite with high priority. The work reported in these papers was absolutely
necessary for this run to complete.
Our perspective: the developers of density functionals and basis sets usually get cited in chemistry papers
Good! But without the algorithms to do something with them, the functionals or basis sets would not do anything.
Hence, in our opinion, the algorithm design and method developments papers are equally worthy of getting cited

  1. Neese,F.
     An improvement of the resolution of the identity approximation for the formation of the Coulomb matrix
     J. Comp. Chem., 2003 24(14)1740-1747
     doi.org/10.1002/jcc.10318
  2. Neese,F.
     The SHARK Integral Generation and Digestion System
     J. Comp. Chem., 2022  1-16
     doi.org/10.1002/jcc.26942
  3. Lehtola,S.; Steigemann,C.; Oliveira,M.; Marques,M.
     Recent developments in Libxc - A comprehensive library of functionals for density functional theory
     Software X, 2018 7 
     doi.org/10.1016/j.softx.2017.11.002
  4. Caldeweyher,E.; Bannwarth,C.; Grimme,S.
     Extension of the D3 dispersion coefficient model
     J. Chem. Phys., 2017 147 034112
     doi.org/10.1063/1.4993215
  5. Caldeweyher,E.; Ehlert,S.; Hansen,A.; Neugebauer,H.; Spicher,S.; Bannwarth,C.; Grimme,S.
     A generally applicable atomic-charge dependent London dispersion correction
     J. Chem. Phys., 2019 150 154122
     doi.org/10.1063/1.5090222
  6. Caldeweyher,E.; Mewes,J.; Ehlert,S.; Grimme,S.
     Extension and evaluation of the D4 London-dispersion model for periodic systems
     Phys. Chem. Chem. Phys., 2020 22(16)8499-8512
     doi.org/10.1039/D0CP00502A
  7. Wittmann,L.; Gordiy,I.; Friede,M.; Helmich-Paris,B.; Grimme,S.; Hansen,A.; Bursch,M.
     Extension of the D3 and D4 London Dispersion Corrections to the full Actinides Series
     Phys. Chem. Chem. Phys., 2024 26(32)21379-21394
     doi.org/https://doi.org/10.1039/D4CP01514B 

List of suggested additional citations. These are papers that are important in the 'surrounding' of 
of this run, or papers that preceded the highly important papers. If you like your results we are grateful for a citation.

  1. Neese,F.
     The ORCA program system
     WIRES Comput. Molec. Sci., 2012 2(1)73-78
     doi.org/10.1002/wcms.81
  2. Neese,F.
     Software update: the ORCA program system, version 4.0
     WIRES Comput. Molec. Sci., 2018 8(1)1-6
     doi.org/10.1002/wcms.1327
  3. Neese,F.; Wennmohs,F.; Becker,U.; Riplinger,C.
     The ORCA quantum chemistry program package
     J. Chem. Phys., 2020 152 Art. No. L224108
     doi.org/10.1063/5.0004608

List of optional additional citations

  1. Neese,F.
     Approximate second-order SCF convergence for spin unrestricted wavefunctions
     Chem. Phys. Lett., 2000 325(1-3)93-98
     doi.org/10.1016/s0009-2614(00)00662-x

Timings for individual modules:

Sum of individual times          ...       12.462 sec (=   0.208 min)
Startup calculation              ...        0.808 sec (=   0.013 min)   6.5 %
SCF iterations                   ...        5.648 sec (=   0.094 min)  45.3 %
Property calculations            ...        0.066 sec (=   0.001 min)   0.5 %
SCF Gradient evaluation          ...        5.939 sec (=   0.099 min)  47.7 %
                             ****ORCA TERMINATED NORMALLY****
TOTAL RUN TIME: 0 days 0 hours 0 minutes 12 seconds 625 msec
  ------------------------------------------------------------------------
          * successful ORCA run, taking over control again...

         :::::::::::::::::::::::::::::::::::::::::::::::::::::
         ::                  ORCA SUMMARY                   ::
         :::::::::::::::::::::::::::::::::::::::::::::::::::::
         :: total energy            -307.632963733005 Eh    ::
         :: gradient norm              0.000373584289 Eh/a0 ::
         :: HOMO-LUMO gap              0.000000000000 eV    ::
         :::::::::::::::::::::::::::::::::::::::::::::::::::::

           -------------------------------------------------
          |                Property Printout                |
           -------------------------------------------------
           -------------------------------------------------
          |                Geometry Summary                 |
           -------------------------------------------------

      molecular mass/u    :       88.1052794
   center of mass at/Å    :        0.0137597       0.0325043       0.0441350
  moments of inertia/u·Å² :        0.7572663E+02   0.2109011E+03   0.2491804E+03
rotational constants/cm⁻¹ :        0.2226117E+00   0.7993146E-01   0.6765231E-01

 * 12 selected distances

     #   Z          #   Z                                           value/Å
     1   6          2   6                                         1.5358624 (max)
     3   6          4   8                                         1.2091063
     3   6          5   8                                         1.3565829
     5   8          6   6                                         1.4426734
     1   6          7   1                                         1.0936055
     1   6          8   1                                         1.0931700
     1   6          9   1                                         1.0932996
     2   6         10   1                                         1.0924190
     2   6         11   1                                         1.0938703
     6   6         12   1                                         1.0899077 (min)
     6   6         13   1                                         1.0932788
     6   6         14   1                                         1.0931600

 * 3 distinct bonds (by element types)

   Z      Z             #   av. dist./Å        max./Å        min./Å
   1 H    6 C           8     1.0928389     1.0938703     1.0899077
   6 C    6 C           1     1.5358624     1.5358624     1.5358624
   6 C    8 O           3     1.3361209     1.4426734     1.2091063


optimized geometry written to: xtbopt.coord


           -------------------------------------------------
          | TOTAL ENERGY             -307.632963733005 Eh   |
          | GRADIENT NORM               0.000373584289 Eh/α |
           -------------------------------------------------

------------------------------------------------------------------------
 * finished run on 2025/04/08 at 22:31:29.405     
------------------------------------------------------------------------
 total:
 * wall-time:     0 d,  0 h,  0 min, 35.676 sec
 *  cpu-time:     0 d,  0 h,  0 min,  0.512 sec
 * ratio c/w:     0.014 speedup
 SCF:
 * wall-time:     0 d,  0 h,  0 min, 10.989 sec
 *  cpu-time:     0 d,  0 h,  0 min,  0.056 sec
 * ratio c/w:     0.005 speedup
 ANC optimizer:
 * wall-time:     0 d,  0 h,  0 min, 24.349 sec
 *  cpu-time:     0 d,  0 h,  0 min,  0.005 sec
 * ratio c/w:     0.000 speedup

