
                                 *****************
                                 * O   R   C   A *
                                 *****************

                                            #,                                       
                                            ###                                      
                                            ####                                     
                                            #####                                    
                                            ######                                   
                                           ########,                                 
                                     ,,################,,,,,                         
                               ,,#################################,,                 
                          ,,##########################################,,             
                       ,#########################################, ''#####,          
                    ,#############################################,,   '####,        
                  ,##################################################,,,,####,       
                ,###########''''           ''''###############################       
              ,#####''   ,,,,##########,,,,          '''####'''          '####       
            ,##' ,,,,###########################,,,                        '##       
           ' ,,###''''                  '''############,,,                           
         ,,##''                                '''############,,,,        ,,,,,,###''
      ,#''                                            '''#######################'''  
     '                                                          ''''####''''         
             ,#######,   #######,   ,#######,      ##                                
            ,#'     '#,  ##    ##  ,#'     '#,    #''#        ,####,   ,####,        
            ##       ##  ##   ,#'  ##            #'  '#       #'       #'  '#        
            ##       ##  #######   ##           ,######,      #####,   #    #        
            '#,     ,#'  ##    ##  '#,     ,#' ,#      #,     #,   #   #,  ,#        
             '#######'   ##     ##  '#######'  #'      '#     '####' # '####'        



                #########################################################
                #                        -***-                          #
                #          Department of theory and spectroscopy        #
                #                                                       #
                #                      Frank Neese                      #
                #                                                       #
                #     Directorship, Architecture, Infrastructure        #
                #                    SHARK, DRIVERS                     #
                #        Core code/Algorithms in most modules           #
                #                                                       #
                #        Max Planck Institute fuer Kohlenforschung      #
                #                Kaiser Wilhelm Platz 1                 #
                #                 D-45470 Muelheim/Ruhr                 #
                #                      Germany                          #
                #                                                       #
                #                  All rights reserved                  #
                #                        -***-                          #
                #########################################################


                         Program Version 6.0.1  -  RELEASE   -


 With contributions from (in alphabetic order):
[Max-Planck-Institut fuer Kohlenforschung]                               
  Daniel Aravena         : Magnetic Suceptibility                        
  Michael Atanasov       : Ab Initio Ligand Field Theory (pilot matlab implementation)
  Alexander A. Auer      : GIAO ZORA, VPT2 properties, NMR spectrum      
  Ute Becker             : All parallelization in ORCA, NUMFREQ, NUMCALC 
  Giovanni Bistoni       : ED, misc. LED, open-shell LED, HFLD           
  Martin Brehm           : Molecular dynamics                            
  Dmytro Bykov           : pre 5.0 version of the SCF Hessian            
  Marcos Casanova-Páez   : Triplet and SCS-CIS(D). UHF-(DLPNO)-IP/EA/STEOM-CCSD. UHF-CVS-IP/STEOM-CCSD   
  Vijay G. Chilkuri      : MRCI spin determinant printing, contributions to CSF-ICE 
  Pauline Colinet        : FMM embedding                                 
  Dipayan Datta          : RHF DLPNO-CCSD density                        
  Achintya Kumar Dutta   : EOM-CC, STEOM-CC                              
  Nicolas Foglia         : Exact transition moments, OPA infrastructure, MCD improvements    
  Dmitry Ganyushin       : Spin-Orbit,Spin-Spin,Magnetic field MRCI      
  Miquel Garcia-Rates    : C-PCM and meta-GGA Hessian, CCSD/C-PCM, Gaussian charge scheme 
  Tiago L. C. Gouveia    : GS-ROHF, GS-ROCIS                             
  Yang Guo               : DLPNO-NEVPT2, F12-NEVPT2, CIM, IAO-localization        
  Andreas Hansen         : Spin unrestricted coupled pair/coupled cluster methods 
  Ingolf Harden          : AUTO-CI MPn and infrastructure                
  Benjamin Helmich-Paris : MC-RPA, TRAH-(SCF,CASSCF), AVAS, COSX integrals, SCF dyn. polar. 
  Lee Huntington         : MR-EOM, pCC                                   
  Robert Izsak           : Overlap fitted RIJCOSX, COSX-SCS-MP3, EOM     
  Riya Kayal             : Wick's Theorem for AUTO-CI, AUTO-CI UHF-CCSDT 
  Emily Kempfer          : AUTO-CI, RHF CISDT and CCSDT                  
  Christian Kollmar      : KDIIS, OOCD, Brueckner-CCSD(T), CCSD density, CASPT2, CASPT2-K, improved NEVPT2 
  Axel Koslowski         : Symmetry handling                             
  Simone Kossmann        : meta-GGA functionals, TD-DFT gradient, OOMP2, (MP2 Hessian; deprecated post 5.0) 
  Lucas Lang             : DCDCAS                                        
  Marvin Lechner         : AUTO-CI (C++ implementation), FIC-MRCC        
  Spencer Leger          : CASSCF response                               
  Dagmar Lenk            : GEPOL surface, SMD, ORCA-2-JSON               
  Dimitrios Liakos       : Extrapolation schemes; Compound Job, initial MDCI parallelization 
  Dimitrios Manganas     : Further ROCIS development; embedding schemes. LFT, Crystal Embedding 
  Dimitrios Pantazis     : SARC Basis sets                               
  Anastasios Papadopoulos: AUTO-CI, single reference methods and gradients 
  Taras Petrenko         : pre 6.0 DFT Hessian and TD-DFT gradient, (ASA, deprecated), ECA, 1-Electron XAS/XES, NRVS 
  Peter Pinski           : DLPNO-MP2, DLPNO-MP2 Gradient                 
  Christoph Reimann      : Effective Core Potentials                     
  Marius Retegan         : Local ZFS, SOC                                
  Christoph Riplinger    : Optimizer, TS searches, QM/MM, DLPNO-CCSD(T), (RO)-DLPNO pert. Triples 
  Michael Roemelt        : Original ROCIS implementation                 
  Masaaki Saitow         : Open-shell DLPNO-CCSD energy and density      
  Barbara Sandhoefer     : DKH picture change effects                    
  Kantharuban Sivalingam : CASSCF convergence/infrastructure, NEVPT2 and variants, FIC-MRCI 
  Bernardo de Souza      : ESD, SOC TD-DFT                               
  Georgi L. Stoychev     : AutoAux, RI-MP2 NMR, DLPNO-MP2 response, X2C  
  Van Anh Tran           : RI-MP2 g-tensors                              
  Willem Van den Heuvel  : Paramagnetic NMR                              
  Zikuan Wang            : NOTCH, Electric field optimization            
  Frank Wennmohs         : Technical directorship and infrastructure     
  Hang Xu                : AUTO-CI-Response properties                   
                                                                         
[FACCTs GmbH]                                                            
  Markus Bursch, Miquel Garcia-Rates, Christoph Riplinger, Bernardo de Souza, Georgi L. Stoychev 
                                                                 
  APM, Basis sets (HGBS, AHGBS, def-TZVP (Ac-Lr), def2-XVPD (La-Lu)), CI-OPT, improved COSX, DLPNO-Multilevel,           
  DOCKER, DRACO, updates on ESD, GOAT, IRC, LR-CPCM, MBIS, meta-GGA TD-DFT gradient, ML-optimized integration grids, 
  MM, NACMEs, nearIR, NEB, NEB-TS, NL-DFT gradient (VV10), 2- and 3-layer-ONIOM, interface openCOSMO-RS, QMMM,   
  Crystal-QMMM, SF, symmetry and pop. for TD-DFT, r2SCAN hybrids, SOLVATOR                                   
                                                                         
[Other institutions]                                                     
  V. Asgeirsson          : NEB                                           
  Christoph Bannwarth    : sTDA-DFT, sTD-DFT, PBEh-3c, B97-3c, D3        
  Sebastian Ehlert       : rSCAN, r2SCAN, r2SCAN-3c, D4, dhf basis sets  
  Marvin Friede          : D4 for Fr, Ra, Ac-Lr                          
  Lars Goerigk           : TD-DFT with DH, B97 family of functionals     
  Stefan Grimme          : VdW corrections, initial TS optimization, DFT functionals, gCP, sTDA/sTD-DF 
  Waldemar Hujo          : DFT-NL                                        
  H. Jonsson             : NEB                                           
  Holger Kruse           : gCP                                           
  Marcel Mueller         : wB97X-3c, vDZP basis set                      
  Hagen Neugebauer       : wr2SCAN                                       
  Tobias Risthaus        : range-separated hybrid DFT                    
  Lukas Wittmann         : regularized MP2, r2SCAN double-hybrids, wr2SCAN        
                                                                         
We gratefully acknowledge several colleagues who have allowed us to      
interface, adapt or use parts of their codes:                            
  Ed Valeev, F. Pavosevic, A. Kumar             : LibInt (2-el integral package), F12 methods 
  Garnet Chan, S. Sharma, J. Yang, R. Olivares  : DMRG                   
  Ulf Ekstrom                                   : XCFun DFT Library      
  Mihaly Kallay                                 : mrcc  (arbitrary order and MRCC methods)
  Frank Weinhold                                : gennbo (NPA and NBO analysis)           
  Simon Mueller                                 : openCOSMO-RS                            
  Christopher J. Cramer and Donald G. Truhlar   : smd solvation model                     
  S Lehtola, MJT Oliveira, MAL Marques          : LibXC Library                           
  Liviu Ungur et al                             : ANISO software                          


 Your calculation uses the libint2 library for the computation of 2-el integrals
 For citations please refer to: http://libint.valeyev.net

 Your ORCA version has been built with support for libXC version: 6.2.2
 For citations please refer to: https://libxc.gitlab.io

 This ORCA versions uses:
   CBLAS   interface :  Fast vector & matrix operations
   LAPACKE interface :  Fast linear algebra routines
   SCALAPACK package :  Parallel linear algebra routines
   Shared memory     :  Shared parallel matrices
   BLAS/LAPACK       :  OpenBLAS 0.3.27  USE64BITINT DYNAMIC_ARCH NO_AFFINITY Zen SINGLE_THREADED
        Core in use  :  Zen
   Copyright (c) 2011-2014, The OpenBLAS Project


Your calculation utilizes the geometrical counterpoise correction gCP
Please cite in your paper:
H.Kruse, S. Grimme J.Chem.Phys., 136, (2012), 154101 
   

Your calculation utilizes the atom-pairwise dispersion correction
based on EEQ partial charges (D4)


================================================================================

----- Orbital basis set information -----
Your calculation utilizes the basis: def2-SV(P)
   F. Weigend and R. Ahlrichs, Phys. Chem. Chem. Phys. 7, 3297 (2005).

----- AuxJ basis set information -----
Your calculation utilizes the auxiliary basis: def2/J
   F. Weigend, Phys. Chem. Chem. Phys. 8, 1057 (2006).

================================================================================
                                        WARNINGS
                       Please study these warnings very carefully!
================================================================================


================================================================================
                                       INPUT FILE
================================================================================
NAME = sp.inp
|  1> ! pbe def2-sv(p) def2/J RI DEFGRID1 loosescf d4 GCP(DFT/SV(P)) printgap
|  2> %output
|  3>     printlevel normal
|  4> end
|  5> * xyz 0 1
|  6> C -1.2606543542 0.2720974537 -2.3678e-06
|  7> C -3.1064e-06 -0.5837301644 1.8079e-06
|  8> C 1.2606558635 0.2720908044 1.5832e-06
|  9> H -1.2881116261 0.9089607501 0.8817140064
| 10> H -1.2884082218 0.908639811 -0.8819468615
| 11> H -2.1505326694 -0.3533161995 0.0002557192
| 12> H -9.7556e-06 -1.2286423167 0.8816809747
| 13> H -3.95085e-05 -1.2286768084 -0.8816542278
| 14> H 1.2883436954 0.9086884816 -0.881859305
| 15> H 2.1505237015 -0.3533350967 7.19679e-05
| 16> H 1.2882534168 0.9088966141 0.8817255309
| 17> *
| 18> 
| 19>                          ****END OF INPUT****
================================================================================

                       ****************************
                       * Single Point Calculation *
                       ****************************

---------------------------------
CARTESIAN COORDINATES (ANGSTROEM)
---------------------------------
  C     -1.260654    0.272097   -0.000002
  C     -0.000003   -0.583730    0.000002
  C      1.260656    0.272091    0.000002
  H     -1.288112    0.908961    0.881714
  H     -1.288408    0.908640   -0.881947
  H     -2.150533   -0.353316    0.000256
  H     -0.000010   -1.228642    0.881681
  H     -0.000040   -1.228677   -0.881654
  H      1.288344    0.908688   -0.881859
  H      2.150524   -0.353335    0.000072
  H      1.288253    0.908897    0.881726

----------------------------
CARTESIAN COORDINATES (A.U.)
----------------------------
  NO LB      ZA    FRAG     MASS         X           Y           Z
   0 C     6.0000    0    12.011   -2.382291    0.514190   -0.000004
   1 C     6.0000    0    12.011   -0.000006   -1.103090    0.000003
   2 C     6.0000    0    12.011    2.382294    0.514177    0.000003
   3 H     1.0000    0     1.008   -2.434178    1.717687    1.666198
   4 H     1.0000    0     1.008   -2.434739    1.717080   -1.666638
   5 H     1.0000    0     1.008   -4.063918   -0.667671    0.000483
   6 H     1.0000    0     1.008   -0.000018   -2.321797    1.666136
   7 H     1.0000    0     1.008   -0.000075   -2.321863   -1.666085
   8 H     1.0000    0     1.008    2.434617    1.717172   -1.666473
   9 H     1.0000    0     1.008    4.063901   -0.667707    0.000136
  10 H     1.0000    0     1.008    2.434446    1.717566    1.666220

--------------------------------
INTERNAL COORDINATES (ANGSTROEM)
--------------------------------
 C      0   0   0     0.000000000000     0.00000000     0.00000000
 C      1   0   0     1.523706822358     0.00000000     0.00000000
 C      2   1   0     1.523709476582   111.65697839     0.00000000
 H      1   2   3     1.088013108659   110.46595502   300.11832348
 H      1   2   3     1.088017711148   110.46979701    59.90891929
 H      1   2   3     1.087669858036   110.72844586   180.01452433
 H      2   1   3     1.092368910853   109.36582010   121.18170432
 H      2   1   3     1.092370605710   109.36522869   238.81567766
 H      3   2   1     1.087980627028   110.46888739   300.09765948
 H      3   2   1     1.087668300461   110.72797121   179.99620480
 H      3   2   1     1.087989147080   110.47107790    59.88798742

---------------------------
INTERNAL COORDINATES (A.U.)
---------------------------
 C      0   0   0     0.000000000000     0.00000000     0.00000000
 C      1   0   0     2.879388602644     0.00000000     0.00000000
 C      2   1   0     2.879393618401   111.65697839     0.00000000
 H      1   2   3     2.056046805482   110.46595502   300.11832348
 H      1   2   3     2.056055502925   110.46979701    59.90891929
 H      1   2   3     2.055398155810   110.72844586   180.01452433
 H      2   1   3     2.064278078721   109.36582010   121.18170432
 H      2   1   3     2.064281281537   109.36522869   238.81567766
 H      3   2   1     2.055985424095   110.46888739   300.09765948
 H      3   2   1     2.055395212419   110.72797121   179.99620480
 H      3   2   1     2.056001524659   110.47107790    59.88798742

---------------------
BASIS SET INFORMATION
---------------------
There are 2 groups of distinct atoms

 Group   1 Type C   : 7s4p1d contracted to 3s2p1d pattern {511/31/1}
 Group   2 Type H   : 4s contracted to 2s pattern {31}

Atom   0C    basis set group =>   1
Atom   1C    basis set group =>   1
Atom   2C    basis set group =>   1
Atom   3H    basis set group =>   2
Atom   4H    basis set group =>   2
Atom   5H    basis set group =>   2
Atom   6H    basis set group =>   2
Atom   7H    basis set group =>   2
Atom   8H    basis set group =>   2
Atom   9H    basis set group =>   2
Atom  10H    basis set group =>   2
---------------------------------
AUXILIARY/J BASIS SET INFORMATION
---------------------------------
There are 2 groups of distinct atoms

 Group   1 Type C   : 12s5p4d2f1g contracted to 6s4p3d1f1g pattern {711111/2111/211/2/1}
 Group   2 Type H   : 5s2p1d contracted to 3s1p1d pattern {311/2/1}

Atom   0C    basis set group =>   1
Atom   1C    basis set group =>   1
Atom   2C    basis set group =>   1
Atom   3H    basis set group =>   2
Atom   4H    basis set group =>   2
Atom   5H    basis set group =>   2
Atom   6H    basis set group =>   2
Atom   7H    basis set group =>   2
Atom   8H    basis set group =>   2
Atom   9H    basis set group =>   2
Atom  10H    basis set group =>   2
------------------------------------------------------------------------------
                             ORCA STARTUP CALCULATIONS
                           -- RI-GTO INTEGRALS CHOSEN --
------------------------------------------------------------------------------
------------------------------------------------------------------------------
                   ___                                                        
                  /   \      - P O W E R E D   B Y -                         
                 /     \                                                     
                 |  |  |   _    _      __       _____    __    __             
                 |  |  |  | |  | |    /  \     |  _  \  |  |  /  |          
                  \  \/   | |  | |   /    \    | | | |  |  | /  /          
                 / \  \   | |__| |  /  /\  \   | |_| |  |  |/  /          
                |  |  |   |  __  | /  /__\  \  |    /   |      \           
                |  |  |   | |  | | |   __   |  |    \   |  |\   \          
                \     /   | |  | | |  |  |  |  | |\  \  |  | \   \       
                 \___/    |_|  |_| |__|  |__|  |_| \__\ |__|  \__/        
                                                                              
                      - O R C A' S   B I G   F R I E N D -                    
                                      &                                       
                       - I N T E G R A L  F E E D E R -                       
                                                                              
 v1 FN, 2020, v2 2021, v3 2022-2024                                           
------------------------------------------------------------------------------


----------------------
SHARK INTEGRAL PACKAGE
----------------------

Number of atoms                             ...     11
Number of basis functions                   ...     58
Number of shells                            ...     34
Maximum angular momentum                    ...      2
Integral batch strategy                     ... SHARK/LIBINT Hybrid
RI-J (if used) integral strategy            ... SPLIT-RIJ (Revised 2003 algorithm where possible)
Printlevel                                  ...      1
Contraction scheme used                     ... SEGMENTED contraction
Prescreening option                         ... SCHWARTZ
   Thresh                                   ... 1.000e-09
   Tcut                                     ... 1.000e-10
   Tpresel                                  ... 1.000e-10 
Coulomb Range Separation                    ... NOT USED
Exchange Range Separation                   ... NOT USED
Multipole approximations                    ... NOT USED
Finite Nucleus Model                        ... NOT USED
CABS basis                                  ... NOT available
Auxiliary Coulomb fitting basis             ... AVAILABLE
   # of basis functions in Aux-J            ...    235
   # of shells in Aux-J                     ...     85
   Maximum angular momentum in Aux-J        ...      4
Auxiliary J/K fitting basis                 ... NOT available
Auxiliary Correlation fitting basis         ... NOT available
Auxiliary 'external' fitting basis          ... NOT available

Checking pre-screening integrals            ... done (  0.0 sec) Dimension = 34
Check shell pair data                       ... done (  0.0 sec)
Shell pair information
Shell pair cut-off parameter TPreSel        ...   1.0e-10
Total number of shell pairs                 ...       595
Shell pairs after pre-screening             ...       594
Total number of primitive shell pairs       ...      2409
Primitive shell pairs kept                  ...      1974
          la=0 lb=0:    324 shell pairs
          la=1 lb=0:    150 shell pairs
          la=1 lb=1:     21 shell pairs
          la=2 lb=0:     75 shell pairs
          la=2 lb=1:     18 shell pairs
          la=2 lb=2:      6 shell pairs

Calculating one electron integrals          ... done (  0.0 sec)
Calculating RI/J V-Matrix + Cholesky decomp.... done (  0.0 sec)
Calculating Nuclear repulsion               ... done (  0.0 sec) ENN=     82.952343508438 Eh

Diagonalization of the overlap matrix:
Smallest eigenvalue                        ... 3.025e-03
Time for diagonalization                   ...    0.000 sec
Threshold for overlap eigenvalues          ... 1.000e-07
Number of eigenvalues below threshold      ... 0
Time for construction of square roots      ...    0.000 sec
Total time needed                          ...    0.001 sec

-------------------
DFT GRID GENERATION
-------------------

General Integration Accuracy     IntAcc      ... 4.159
Radial Grid Type                 RadialGrid  ... OptM3 with GC (2021)
Angular Grid (max. ang.)         AngularGrid ... 3 (Lebedev-194)
Angular grid pruning method      GridPruning ... 4 (adaptive)
Weight generation scheme         WeightScheme... mBecke (2022)
Basis function cutoff            BFCut       ... 1.0000e-10
Integration weight cutoff        WCut        ... 1.0000e-14
Partially contracted basis set               ... off
Rotationally invariant grid construction     ... off
Angular grids for H and He will be reduced by one unit

Total number of grid points                  ...    21292
Total number of batches                      ...      338
Average number of points per batch           ...       62
Average number of grid points per atom       ...     1936
Initializing property integral containers    ... done (  0.0 sec)

SHARK setup successfully completed in   0.1 seconds

Maximum memory used throughout the entire STARTUP-calculation: 10.6 MB
-------------------------------------------------------------------------------
                                 ORCA GUESS
                   Start orbitals & Density for SCF / CASSCF
-------------------------------------------------------------------------------

------------
SCF SETTINGS
------------
Hamiltonian:
 Density Functional     Method          .... DFT(GTOs)
 Exchange Functional    Exchange        .... PBE
   PBE kappa parameter   XKappa         ....  0.804000
   PBE mue parameter    XMuePBE         ....  0.219520
 Correlation Functional Correlation     .... PBE
   PBE beta parameter  CBetaPBE         ....  0.066725
 LDA part of GGA corr.  LDAOpt          .... PW91-LDA
 Gradients option       PostSCFGGA      .... off
   NL short-range parameter             ....  6.400000
 RI-approximation to the Coulomb term is turned on
   Number of AuxJ basis functions       .... 235


General Settings:
 Integral files         IntName         .... sp
 Hartree-Fock type      HFTyp           .... RHF
 Total Charge           Charge          ....    0
 Multiplicity           Mult            ....    1
 Number of Electrons    NEL             ....   26
 Basis Dimension        Dim             ....   58
 Nuclear Repulsion      ENuc            ....     82.9523435084 Eh

Convergence Acceleration:
 AO-DIIS                CNVDIIS         .... on
   Start iteration      DIISMaxIt       ....    12
   Startup error        DIISStart       ....  0.200000
   # of expansion vecs  DIISMaxEq       ....     5
   Bias factor          DIISBfac        ....   1.050
   Max. coefficient     DIISMaxC        ....  10.000
 MO-DIIS                CNVKDIIS        .... off
 Trust-Rad. Augm. Hess. CNVTRAH         .... auto
   Auto Start mean grad. ratio tolernc. ....  1.125000
   Auto Start start iteration           ....    50
   Auto Start num. interpolation iter.  ....    10
   Max. Number of Micro iterations      ....    24
   Max. Number of Macro iterations      .... Maxiter - #DIIS iter
   Number of Davidson start vectors     ....     2
   Converg. threshold    (grad. norm)   ....   1.000e-04
   Grad. Scal. Fac. for Micro threshold ....   0.100
   Minimum threshold for Micro iter.    ....   1.000e-02
   NR start threshold (gradient norm)   ....   1.000e-04
   Initial trust radius                 ....   0.400
   Minimum AH scaling param. (alpha)    ....   1.000
   Maximum AH scaling param. (alpha)    .... 1000.000
   Quad. conv. algorithm                .... NR
   White noise on init. David. guess    .... on
   Maximum white noise                  ....   0.010
   Pseudo random numbers                .... off
   Inactive MOs                         .... canonical
   Orbital update algorithm             .... Taylor
   Preconditioner                       .... Diag
   Full preconditioner red. dimension   ....   250
 SOSCF                  CNVSOSCF        .... on
   Start iteration      SOSCFMaxIt      ....   150
   Startup grad/error   SOSCFStart      ....  0.003300
   Hessian update       SOSCFHessUp     .... L-BFGS
 Level Shifting         CNVShift        .... on
   Level shift para.    LevelShift      ....    0.2500
   Turn off err/grad.   ShiftErr        ....    0.0010
 Zerner damping         CNVZerner       .... off
 Static damping         CNVDamp         .... on
   Fraction old density DampFac         ....    0.7000
   Max. Damping (<1)    DampMax         ....    0.9800
   Min. Damping (>=0)   DampMin         ....    0.0000
   Turn off err/grad.   DampErr         ....    0.1000

SCF Procedure:
 Maximum # iterations   MaxIter         ....   125
 SCF integral mode      SCFMode         .... Direct
   Integral package                     .... SHARK and LIBINT hybrid scheme
 Reset frequency        DirectResetFreq ....    20
 Integral Threshold     Thresh          ....  1.000e-09 Eh
 Primitive CutOff       TCut            ....  1.000e-10 Eh

Convergence Tolerance:
 Convergence Check Mode ConvCheckMode   .... Total+1el-Energy
 Convergence forced     ConvForced      .... 0
 Energy Change          TolE            ....  1.000e-05 Eh
 1-El. energy change                    ....  1.000e-02 Eh
 Orbital Gradient       TolG            ....  1.000e-04
 Orbital Rotation angle TolX            ....  1.000e-04
 DIIS Error             TolErr          ....  5.000e-04

------------------------------
INITIAL GUESS: MODEL POTENTIAL
------------------------------
Loading Hartree-Fock densities                     ... done
Calculating cut-offs                               ... done
Initializing the effective Hamiltonian             ... done
Setting up the integral package (SHARK)            ... done
Starting the Coulomb interaction                   ... done (   0.0 sec)
Making the grid                                    ... done (   0.0 sec)
Mapping shells                                     ... done
Starting the XC term evaluation                    ... done (   0.0 sec)
  promolecular density results
     # of electrons  =     25.997374326
     EX              =    -17.692772243
     EC              =     -0.818883554
     EX+EC           =    -18.511655797
Transforming the Hamiltonian                       ... done (   0.0 sec)
Diagonalizing the Hamiltonian                      ... done (   0.0 sec)
Back transforming the eigenvectors                 ... done (   0.0 sec)
Now organizing SCF variables                       ... done
                      ------------------
                      INITIAL GUESS DONE (   0.1 sec)
                      ------------------
             **** ENERGY FILE WAS UPDATED (sp.en.tmp) ****
Finished Guess after   0.1 sec
Maximum memory used throughout the entire GUESS-calculation: 8.2 MB

-------------------------------------------------------------------------------------------
                                      ORCA LEAN-SCF
                              memory conserving SCF solver
-------------------------------------------------------------------------------------------

----------------------------------------D-I-I-S--------------------------------------------
Iteration    Energy (Eh)           Delta-E    RMSDP     MaxDP     DIISErr   Damp  Time(sec)
-------------------------------------------------------------------------------------------
               ***  Starting incremental Fock matrix formation  ***
    1    -118.7235943000447520     0.00e+00  7.05e-03  8.24e-02  1.66e-01  0.700   0.1
    2    -118.7863752792976157    -6.28e-02  5.03e-03  4.72e-02  7.82e-02  0.700   0.1
                               ***Turning on AO-DIIS***
    3    -118.8077736662473427    -2.14e-02  2.04e-03  1.25e-02  2.16e-02  0.700   0.1
    4    -118.8201258448493007    -1.24e-02  2.93e-03  1.92e-02  9.67e-03  0.000   0.1
    5    -118.8485239255514188    -2.84e-02  8.81e-04  5.88e-03  8.87e-03  0.000   0.1
                              *** Initializing SOSCF ***
---------------------------------------S-O-S-C-F--------------------------------------
Iteration    Energy (Eh)           Delta-E    RMSDP     MaxDP     MaxGrad    Time(sec)
--------------------------------------------------------------------------------------
    6    -118.8489351381262651    -4.11e-04  3.30e-04  2.09e-03  2.20e-03     0.1
               *** Restarting incremental Fock matrix formation ***
    7    -118.8489682127928830    -3.31e-05  2.44e-04  1.57e-03  4.28e-04     0.1
    8    -118.8489674793741955     7.33e-07  7.35e-05  8.68e-04  4.67e-04     0.1
                 **** Energy Check signals convergence ****

               *****************************************************
               *                     SUCCESS                       *
               *           SCF CONVERGED AFTER   8 CYCLES          *
               *****************************************************

             **** ENERGY FILE WAS UPDATED (sp.en.tmp) ****

----------------
TOTAL SCF ENERGY
----------------

Total Energy       :       -118.84896747937420 Eh           -3234.04482 eV

Components:
Nuclear Repulsion  :         82.95234350843789 Eh            2257.24802 eV
Electronic Energy  :       -201.80131098781209 Eh           -5491.29284 eV
One Electron Energy:       -322.37925512566500 Eh           -8772.38551 eV
Two Electron Energy:        120.57794413785290 Eh            3281.09267 eV

Virial components:
Potential Energy   :       -236.54197188379811 Eh           -6436.63429 eV
Kinetic Energy     :        117.69300440442390 Eh            3202.58947 eV
Virial Ratio       :          2.00982185033681

DFT components:
N(Alpha)           :       12.999920132222 electrons
N(Beta)            :       12.999920132222 electrons
N(Total)           :       25.999840264445 electrons
E(X)               :      -18.244016325449 Eh       
E(C)               :       -0.831190924312 Eh       
E(XC)              :      -19.075207249761 Eh       

---------------
SCF CONVERGENCE
---------------

  Last Energy change         ...   -7.3342e-07  Tolerance :   1.0000e-05
  Last MAX-Density change    ...    8.6788e-04  Tolerance :   1.0000e-03
  Last RMS-Density change    ...    7.3454e-05  Tolerance :   1.0000e-04
  Last DIIS Error            ...    2.2013e-03  Tolerance :   5.0000e-04
  Last Orbital Gradient      ...    4.6717e-04  Tolerance :   1.0000e-04
  Last Orbital Rotation      ...    3.6415e-04  Tolerance :   1.0000e-04


----------------
ORBITAL ENERGIES
----------------

  NO   OCC          E(Eh)            E(eV) 
   0   2.0000      -9.880842      -268.8714 
   1   2.0000      -9.869551      -268.5641 
   2   2.0000      -9.869534      -268.5637 
   3   2.0000      -0.700976       -19.0745 
   4   2.0000      -0.605115       -16.4660 
   5   2.0000      -0.515814       -14.0360 
   6   2.0000      -0.409210       -11.1352 
   7   2.0000      -0.387861       -10.5542 
   8   2.0000      -0.351747        -9.5715 
   9   2.0000      -0.334504        -9.1023 
  10   2.0000      -0.292405        -7.9567 
  11   2.0000      -0.291722        -7.9382 
  12   2.0000      -0.284640        -7.7454 
  13   0.0000       0.041093         1.1182 
  14   0.0000       0.087607         2.3839 
  15   0.0000       0.089104         2.4246 
  16   0.0000       0.089272         2.4292 
  17   0.0000       0.118033         3.2118 
  18   0.0000       0.136486         3.7140 
  19   0.0000       0.140565         3.8250 
  20   0.0000       0.148451         4.0396 
  21   0.0000       0.184218         5.0128 
  22   0.0000       0.219633         5.9765 
  23   0.0000       0.375637        10.2216 
*Only the first 10 virtual orbitals were printed.

                    ********************************
                    * MULLIKEN POPULATION ANALYSIS *
                    ********************************

-----------------------
MULLIKEN ATOMIC CHARGES
-----------------------
   0 C :   -0.284684
   1 C :   -0.205246
   2 C :   -0.284662
   3 H :    0.097866
   4 H :    0.097871
   5 H :    0.102436
   6 H :    0.089128
   7 H :    0.089131
   8 H :    0.097861
   9 H :    0.102433
  10 H :    0.097866
Sum of atomic charges:    0.0000000

--------------------------------
MULLIKEN REDUCED ORBITAL CHARGES
--------------------------------
  0 C s       :     3.103853  s :     3.103853
      pz      :     1.065487  p :     3.151376
      px      :     1.036968
      py      :     1.048922
      dz2     :     0.005121  d :     0.029455
      dxz     :     0.001937
      dyz     :     0.010136
      dx2y2   :     0.004910
      dxy     :     0.007351

  1 C s       :     3.078811  s :     3.078811
      pz      :     1.045516  p :     3.088844
      px      :     0.997056
      py      :     1.046272
      dz2     :     0.005326  d :     0.037592
      dxz     :     0.004086
      dyz     :     0.012375
      dx2y2   :     0.008123
      dxy     :     0.007681

  2 C s       :     3.103817  s :     3.103817
      pz      :     1.065495  p :     3.151389
      px      :     1.036972
      py      :     1.048922
      dz2     :     0.005120  d :     0.029455
      dxz     :     0.001937
      dyz     :     0.010137
      dx2y2   :     0.004910
      dxy     :     0.007351

  3 H s       :     0.902134  s :     0.902134

  4 H s       :     0.902129  s :     0.902129

  5 H s       :     0.897564  s :     0.897564

  6 H s       :     0.910872  s :     0.910872

  7 H s       :     0.910869  s :     0.910869

  8 H s       :     0.902139  s :     0.902139

  9 H s       :     0.897567  s :     0.897567

 10 H s       :     0.902134  s :     0.902134


------------------------
MULLIKEN OVERLAP CHARGES
------------------------
B(  0-C ,  1-C ) :   0.9278 B(  0-C ,  2-C ) :  -0.1390 B(  0-C ,  3-H ) :   0.7613 
B(  0-C ,  4-H ) :   0.7613 B(  0-C ,  5-H ) :   0.7333 B(  0-C ,  6-H ) :  -0.0518 
B(  0-C ,  7-H ) :  -0.0518 B(  1-C ,  2-C ) :   0.9278 B(  1-C ,  3-H ) :  -0.0541 
B(  1-C ,  4-H ) :  -0.0540 B(  1-C ,  6-H ) :   0.7297 B(  1-C ,  7-H ) :   0.7296 
B(  1-C ,  8-H ) :  -0.0540 B(  1-C , 10-H ) :  -0.0540 B(  2-C ,  6-H ) :  -0.0518 
B(  2-C ,  7-H ) :  -0.0518 B(  2-C ,  8-H ) :   0.7613 B(  2-C ,  9-H ) :   0.7333 
B(  2-C , 10-H ) :   0.7613 B(  3-H ,  4-H ) :  -0.0549 B(  6-H ,  7-H ) :  -0.0680 
B(  8-H , 10-H ) :  -0.0549 


                     *******************************
                     * LOEWDIN POPULATION ANALYSIS *
                     *******************************

----------------------
LOEWDIN ATOMIC CHARGES
----------------------
   0 C :   -0.342154
   1 C :   -0.242399
   2 C :   -0.342160
   3 H :    0.115861
   4 H :    0.115862
   5 H :    0.117544
   6 H :    0.114087
   7 H :    0.114088
   8 H :    0.115864
   9 H :    0.117545
  10 H :    0.115864

-------------------------------
LOEWDIN REDUCED ORBITAL CHARGES
-------------------------------
  0 C s       :     2.947302  s :     2.947302
      pz      :     1.124786  p :     3.323811
      px      :     1.088184
      py      :     1.110841
      dz2     :     0.013582  d :     0.071042
      dxz     :     0.003253
      dyz     :     0.023727
      dx2y2   :     0.011052
      dxy     :     0.019427

  1 C s       :     2.905435  s :     2.905435
      pz      :     1.102618  p :     3.247224
      px      :     1.057481
      py      :     1.087125
      dz2     :     0.014082  d :     0.089740
      dxz     :     0.007297
      dyz     :     0.028527
      dx2y2   :     0.017312
      dxy     :     0.022522

  2 C s       :     2.947289  s :     2.947289
      pz      :     1.124799  p :     3.323828
      px      :     1.088185
      py      :     1.110844
      dz2     :     0.013581  d :     0.071043
      dxz     :     0.003253
      dyz     :     0.023729
      dx2y2   :     0.011052
      dxy     :     0.019427

  3 H s       :     0.884139  s :     0.884139

  4 H s       :     0.884138  s :     0.884138

  5 H s       :     0.882456  s :     0.882456

  6 H s       :     0.885913  s :     0.885913

  7 H s       :     0.885912  s :     0.885912

  8 H s       :     0.884136  s :     0.884136

  9 H s       :     0.882455  s :     0.882455

 10 H s       :     0.884136  s :     0.884136


---------------------------------
LOEWDIN BOND ORDERS (THRESH 0.050000)
---------------------------------
B(  0-C ,  1-C ) :   1.1361 B(  0-C ,  2-C ) :   0.0556 B(  0-C ,  3-H ) :   0.9417 
B(  0-C ,  4-H ) :   0.9418 B(  0-C ,  5-H ) :   0.9409 B(  1-C ,  2-C ) :   1.1361 
B(  1-C ,  6-H ) :   0.9116 B(  1-C ,  7-H ) :   0.9116 B(  2-C ,  8-H ) :   0.9418 
B(  2-C ,  9-H ) :   0.9409 B(  2-C , 10-H ) :   0.9417 

------------------------------------------
LOEWDIN REDUCED ORBITAL POPULATIONS PER MO
-------------------------------------------
THRESHOLD FOR PRINTING IS 0.1%%
                      0         1         2         3         4         5   
                  -9.88084  -9.86955  -9.86953  -0.70098  -0.60512  -0.51581
                   2.00000   2.00000   2.00000   2.00000   2.00000   2.00000
                  --------  --------  --------  --------  --------  --------
 0 C  s               0.0      66.1      33.6      16.8      23.1       6.6
 0 C  px              0.1       0.0       0.0       2.4       0.7       4.0
 0 C  py              0.0       0.0       0.0       0.7       0.0       5.7
 0 C  dxy             0.0       0.0       0.0       0.1       0.0       0.2
 1 C  s              99.6       0.0       0.0      28.7       0.0      16.2
 1 C  px              0.0       0.1       0.0       0.0      14.7       0.0
 1 C  py              0.0       0.0       0.1       1.7       0.0       9.7
 1 C  dz2             0.0       0.0       0.0       0.0       0.0       0.2
 1 C  dxy             0.0       0.0       0.0       0.0       0.4       0.0
 2 C  s               0.0      33.5      66.2      16.8      23.1       6.6
 2 C  px              0.1       0.0       0.0       2.4       0.7       4.0
 2 C  py              0.0       0.0       0.0       0.7       0.0       5.7
 2 C  dxy             0.0       0.0       0.0       0.1       0.0       0.2
 3 H  s               0.0       0.0       0.0       3.2       5.8       4.4
 4 H  s               0.0       0.0       0.0       3.2       5.8       4.4
 5 H  s               0.0       0.0       0.0       3.0       6.9       2.5
 6 H  s               0.1       0.0       0.0       5.3       0.0       9.0
 7 H  s               0.1       0.0       0.0       5.3       0.0       9.0
 8 H  s               0.0       0.0       0.0       3.2       5.8       4.4
 9 H  s               0.0       0.0       0.0       3.0       6.9       2.5
10 H  s               0.0       0.0       0.0       3.2       5.8       4.4

                      6         7         8         9        10        11   
                  -0.40921  -0.38786  -0.35175  -0.33450  -0.29241  -0.29172
                   2.00000   2.00000   2.00000   2.00000   2.00000   2.00000
                  --------  --------  --------  --------  --------  --------
 0 C  s               0.0       0.2       0.1       0.0       0.4       0.5
 0 C  pz             17.8       0.0       0.0      28.9       0.0       0.0
 0 C  px              0.0      21.0       0.0       0.0       0.9      25.3
 0 C  py              0.0       5.3      27.1       0.0      16.7       0.0
 0 C  dz2             0.0       0.0       0.3       0.0       0.2       0.0
 0 C  dyz             0.1       0.0       0.0       0.4       0.0       0.0
 0 C  dx2y2           0.0       0.0       0.0       0.0       0.4       0.1
 0 C  dxy             0.0       0.2       0.0       0.0       0.0       0.5
 1 C  s               0.0       0.5       0.0       0.0       0.2       0.0
 1 C  pz             31.4       0.0       0.0       0.0       0.0       0.0
 1 C  px              0.0       0.0      15.8       0.0       0.0      22.2
 1 C  py              0.0      16.7       0.0       0.0      26.2       0.0
 1 C  dz2             0.0       0.0       0.0       0.0       0.4       0.0
 1 C  dxz             0.0       0.0       0.0       0.4       0.0       0.0
 1 C  dx2y2           0.0       0.1       0.0       0.0       0.7       0.0
 1 C  dxy             0.0       0.0       0.0       0.0       0.0       0.7
 2 C  s               0.0       0.2       0.1       0.0       0.4       0.5
 2 C  pz             17.8       0.0       0.0      28.9       0.0       0.0
 2 C  px              0.0      21.0       0.0       0.0       0.9      25.3
 2 C  py              0.0       5.3      27.1       0.0      16.7       0.0
 2 C  dz2             0.0       0.0       0.3       0.0       0.2       0.0
 2 C  dyz             0.1       0.0       0.0       0.4       0.0       0.0
 2 C  dx2y2           0.0       0.0       0.0       0.0       0.4       0.1
 2 C  dxy             0.0       0.2       0.0       0.0       0.0       0.5
 3 H  s               4.5       0.2       5.3      10.2       3.8       0.2
 4 H  s               4.5       0.2       5.3      10.2       3.7       0.2
 5 H  s               0.0      12.6       4.1       0.0       3.2      11.8
 6 H  s               7.4       1.4       0.0       0.0       7.0       0.0
 7 H  s               7.4       1.4       0.0       0.0       7.0       0.0
 8 H  s               4.5       0.2       5.3      10.2       3.7       0.2
 9 H  s               0.0      12.6       4.1       0.0       3.1      11.8
10 H  s               4.5       0.2       5.3      10.2       3.7       0.2

                     12        13        14        15        16        17   
                  -0.28464   0.04109   0.08761   0.08910   0.08927   0.11803
                   2.00000   0.00000   0.00000   0.00000   0.00000   0.00000
                  --------  --------  --------  --------  --------  --------
 0 C  s               0.0       9.3       0.0      14.7       1.5       3.0
 0 C  pz              9.5       0.0       8.5       0.0       0.0       0.0
 0 C  px              0.0       1.6       0.0       2.2       1.1       1.7
 0 C  py              0.0       1.1       0.0       0.0       6.9       4.9
 0 C  dz2             0.0       0.1       0.0       0.0       0.1       0.9
 0 C  dxz             0.1       0.0       0.1       0.0       0.0       0.0
 0 C  dyz             0.7       0.0       0.5       0.0       0.0       0.0
 0 C  dx2y2           0.0       0.0       0.0       0.1       0.1       0.1
 0 C  dxy             0.0       0.3       0.0       0.0       0.4       0.0
 1 C  s               0.0       8.6       0.0       0.0       6.2      10.5
 1 C  pz             23.7       0.0      10.0       0.0       0.0       0.0
 1 C  px              0.0       0.0       0.0       1.7       0.0       0.0
 1 C  py              0.0       2.9       0.0       0.0       3.2       1.6
 1 C  dz2             0.0       0.2       0.0       0.0       0.0       0.0
 1 C  dyz             1.4       0.0       1.2       0.0       0.0       0.0
 1 C  dx2y2           0.0       0.0       0.0       0.0       0.8       0.9
 1 C  dxy             0.0       0.0       0.0       0.9       0.0       0.0
 2 C  s               0.0       9.3       0.0      14.6       1.5       3.0
 2 C  pz              9.5       0.0       8.5       0.0       0.0       0.0
 2 C  px              0.0       1.6       0.0       2.2       1.0       1.7
 2 C  py              0.0       1.1       0.0       0.0       6.9       4.9
 2 C  dz2             0.0       0.1       0.0       0.0       0.1       0.9
 2 C  dxz             0.1       0.0       0.1       0.0       0.0       0.0
 2 C  dyz             0.7       0.0       0.5       0.0       0.0       0.0
 2 C  dx2y2           0.0       0.0       0.0       0.1       0.1       0.1
 2 C  dxy             0.0       0.3       0.0       0.0       0.4       0.0
 3 H  s               6.5       7.7      10.7       7.5       9.1       0.3
 4 H  s               6.5       7.7      10.7       7.5       9.0       0.3
 5 H  s               0.0       6.9       0.0      16.8       5.5      20.6
 6 H  s              14.1       9.4      13.9       0.0      11.2      11.6
 7 H  s              14.1       9.4      13.9       0.0      11.2      11.7
 8 H  s               6.5       7.7      10.7       7.5       9.1       0.3
 9 H  s               0.0       6.9       0.0      16.9       5.4      20.6
10 H  s               6.5       7.7      10.7       7.4       9.1       0.3

                     18        19        20        21        22        23   
                   0.13649   0.14057   0.14845   0.18422   0.21963   0.37564
                   0.00000   0.00000   0.00000   0.00000   0.00000   0.00000
                  --------  --------  --------  --------  --------  --------
 0 C  s               0.0       0.9       0.0       2.0       0.8       1.0
 0 C  pz              5.6       0.0      14.1       0.0       0.0       0.0
 0 C  px              0.0       7.2       0.0      15.8       9.6      12.6
 0 C  py              0.0       6.8       0.0       2.1       9.6       8.5
 0 C  dz2             0.0       0.1       0.0       0.2       1.7       2.8
 0 C  dxz             1.0       0.0       0.0       0.0       0.0       0.0
 0 C  dyz             0.0       0.0       1.3       0.0       0.0       0.0
 0 C  dx2y2           0.0       0.0       0.0       2.1       0.0       0.9
 0 C  dxy             0.0       0.6       0.0       2.8       2.6       2.2
 1 C  s               0.0       0.0       0.0       9.2       0.0       0.1
 1 C  pz             16.8       0.0       0.0       0.0       0.0       0.0
 1 C  px              0.0       1.6       0.0       0.0      33.7       0.0
 1 C  py              0.0       0.0       0.0      27.0       0.0       1.0
 1 C  dz2             0.0       0.0       0.0       4.9       0.0       0.4
 1 C  dxz             0.0       0.0       1.8       0.0       0.0       0.0
 1 C  dyz             0.2       0.0       0.0       0.0       0.0       0.0
 1 C  dx2y2           0.0       0.0       0.0       0.3       0.0       2.3
 1 C  dxy             0.0       0.9       0.0       0.0       6.4       0.0
 2 C  s               0.0       0.9       0.0       2.0       0.8       1.0
 2 C  pz              5.6       0.0      14.1       0.0       0.0       0.0
 2 C  px              0.0       7.2       0.0      15.8       9.6      12.6
 2 C  py              0.0       6.8       0.0       2.1       9.6       8.5
 2 C  dz2             0.0       0.1       0.0       0.2       1.7       2.8
 2 C  dxz             1.0       0.0       0.0       0.0       0.0       0.0
 2 C  dyz             0.0       0.0       1.3       0.0       0.0       0.0
 2 C  dx2y2           0.0       0.0       0.0       2.1       0.0       0.9
 2 C  dxy             0.0       0.6       0.0       2.8       2.6       2.2
 3 H  s               6.9       7.3      16.9       0.4       2.2       2.5
 4 H  s               6.8       7.3      16.9       0.4       2.2       2.5
 5 H  s               0.0      18.5       0.0       0.6       1.1      13.6
 6 H  s              21.1       0.0       0.0       2.8       0.0       1.5
 7 H  s              21.1       0.0       0.0       2.8       0.0       1.5
 8 H  s               6.9       7.3      16.9       0.4       2.2       2.5
 9 H  s               0.0      18.5       0.0       0.6       1.1      13.6
10 H  s               6.8       7.3      16.9       0.4       2.2       2.5

                     24        25        26        27        28        29   
                   0.40262   0.40412   0.42477   0.43055   0.58080   0.61380
                   0.00000   0.00000   0.00000   0.00000   0.00000   0.00000
                  --------  --------  --------  --------  --------  --------
 0 C  s               0.0       1.8       0.0       1.4       3.4       5.8
 0 C  pz              9.5       0.0      24.9       0.0       0.0       0.0
 0 C  px              0.0      10.2       0.0       2.5      15.5       0.8
 0 C  py              0.0      13.3       0.0      14.0       6.5       5.0
 0 C  dz2             0.0       2.0       0.0       1.5       0.0       0.5
 0 C  dxz             0.3       0.0       0.1       0.0       0.0       0.0
 0 C  dyz             4.3       0.0       6.1       0.0       0.0       0.0
 0 C  dx2y2           0.0       1.3       0.0       0.0       0.1       0.2
 0 C  dxy             0.0       0.3       0.0       1.2       0.4       0.4
 1 C  s               0.0       0.0       0.0       2.6      15.5       0.0
 1 C  pz              8.2       0.0       0.0       0.0       0.0       0.0
 1 C  px              0.0      23.2       0.0       0.0       0.0      61.6
 1 C  py              0.0       0.0       0.0      36.2      10.5       0.0
 1 C  dz2             0.0       0.0       0.0       6.7       0.0       0.0
 1 C  dxz             0.0       0.0       1.9       0.0       0.0       0.0
 1 C  dyz             7.3       0.0       0.0       0.0       0.0       0.0
 1 C  dx2y2           0.0       0.0       0.0       0.3       0.0       0.0
 1 C  dxy             0.0       4.9       0.0       0.0       0.0       0.0
 2 C  s               0.0       1.8       0.0       1.4       3.4       5.8
 2 C  pz              9.5       0.0      24.9       0.0       0.0       0.0
 2 C  px              0.0      10.2       0.0       2.5      15.5       0.8
 2 C  py              0.0      13.3       0.0      14.0       6.5       5.0
 2 C  dz2             0.0       2.0       0.0       1.5       0.0       0.5
 2 C  dxz             0.3       0.0       0.1       0.0       0.0       0.0
 2 C  dyz             4.3       0.0       6.0       0.0       0.0       0.0
 2 C  dx2y2           0.0       1.3       0.0       0.0       0.1       0.2
 2 C  dxy             0.0       0.3       0.0       1.2       0.4       0.4
 3 H  s               7.4       3.2       9.0       0.6       1.7       2.6
 4 H  s               7.5       3.2       9.0       0.6       1.7       2.6
 5 H  s               0.0       0.6       0.0       1.2       0.1       1.1
 6 H  s              13.3       0.0       0.0       4.2       7.6       0.0
 7 H  s              13.3       0.0       0.0       4.1       7.6       0.0
 8 H  s               7.4       3.2       9.0       0.6       1.7       2.6
 9 H  s               0.0       0.6       0.0       1.1       0.1       1.1
10 H  s               7.5       3.2       9.0       0.6       1.7       2.6

                     30        31        32        33        34        35   
                   0.62435   0.62736   0.63285   0.66860   0.67282   0.68357
                   0.00000   0.00000   0.00000   0.00000   0.00000   0.00000
                  --------  --------  --------  --------  --------  --------
 0 C  s               0.0       3.4      24.9       6.4       4.9      15.6
 0 C  pz             27.2       0.0       0.0       0.0       0.0       0.0
 0 C  px              0.0       6.4       1.4       3.2      14.9       8.1
 0 C  py              0.0       4.2       2.9       1.7      17.4      10.7
 0 C  dz2             0.0       3.3       0.3       0.1       0.0       0.3
 0 C  dxz             2.4       0.0       0.0       0.0       0.0       0.0
 0 C  dx2y2           0.0       0.0       0.1       0.0       0.7       0.2
 0 C  dxy             0.0       3.6       0.0       0.1       0.0       0.0
 1 C  s               0.0       0.0      10.8      14.3       0.0       0.0
 1 C  pz             32.1       0.0       0.0       0.0       0.0       0.0
 1 C  px              0.0       3.6       0.0       0.0       3.5       4.9
 1 C  py              0.0       0.0       6.7      33.9       0.0       0.0
 1 C  dz2             0.0       0.0       0.3       0.4       0.0       0.0
 1 C  dyz             1.3       0.0       0.0       0.0       0.0       0.0
 1 C  dx2y2           0.0       0.0       0.0       0.4       0.0       0.0
 1 C  dxy             0.0       1.1       0.0       0.0       0.0       0.0
 2 C  s               0.0       3.4      24.9       6.4       4.9      15.6
 2 C  pz             27.2       0.0       0.0       0.0       0.0       0.0
 2 C  px              0.0       6.4       1.4       3.2      14.9       8.1
 2 C  py              0.0       4.2       2.9       1.7      17.4      10.7
 2 C  dz2             0.0       3.3       0.3       0.1       0.0       0.3
 2 C  dxz             2.4       0.0       0.0       0.0       0.0       0.0
 2 C  dx2y2           0.0       0.0       0.1       0.0       0.7       0.2
 2 C  dxy             0.0       3.6       0.0       0.1       0.0       0.0
 3 H  s               1.8       0.2       4.7       0.2       2.8       6.1
 4 H  s               1.8       0.2       4.7       0.2       2.8       6.2
 5 H  s               0.0      26.3       0.5       1.9       4.8       0.3
 6 H  s               0.1       0.0       1.5      11.8       0.0       0.0
 7 H  s               0.1       0.0       1.5      11.8       0.0       0.0
 8 H  s               1.8       0.2       4.7       0.2       2.8       6.2
 9 H  s               0.0      26.3       0.5       1.9       4.8       0.3
10 H  s               1.8       0.2       4.7       0.2       2.8       6.1

                     36        37        38        39        40        41   
                   0.68651   0.69182   0.70358   0.70917   0.73115   0.98738
                   0.00000   0.00000   0.00000   0.00000   0.00000   0.00000
                  --------  --------  --------  --------  --------  --------
 0 C  s               0.0       0.0       0.1       0.0      10.3      10.9
 0 C  pz             11.0      28.6       0.0       8.0       0.0       0.0
 0 C  px              0.0       0.0      11.0       0.0       1.8       0.3
 0 C  py              0.0       0.0      16.0       0.0       2.8       0.8
 0 C  dz2             0.0       0.0       0.6       0.0       0.1       0.0
 0 C  dxz             0.0       0.1       0.0       2.7       0.0       0.0
 0 C  dyz             0.0       1.3       0.0       3.2       0.0       0.0
 0 C  dx2y2           0.0       0.0       0.0       0.0       0.0       0.3
 0 C  dxy             0.0       0.0       0.2       0.0       0.1       0.0
 1 C  s               0.0       0.0       0.2       0.0      21.4      47.3
 1 C  pz             48.3       0.0       0.0      16.7       0.0       0.0
 1 C  py              0.0       0.0       9.4       0.0       1.7       1.7
 1 C  dz2             0.0       0.0       0.7       0.0       0.0       0.3
 1 C  dyz             1.3       0.0       0.0       6.6       0.0       0.0
 1 C  dx2y2           0.0       0.0       0.1       0.0       0.1       0.2
 2 C  s               0.0       0.0       0.1       0.0      10.3      10.9
 2 C  pz             11.0      28.6       0.0       8.0       0.0       0.0
 2 C  px              0.0       0.0      11.0       0.0       1.8       0.3
 2 C  py              0.0       0.0      16.0       0.0       2.8       0.8
 2 C  dz2             0.0       0.0       0.6       0.0       0.1       0.0
 2 C  dxz             0.0       0.1       0.0       2.7       0.0       0.0
 2 C  dyz             0.0       1.3       0.0       3.2       0.0       0.0
 2 C  dx2y2           0.0       0.0       0.0       0.0       0.0       0.3
 2 C  dxy             0.0       0.0       0.2       0.0       0.1       0.0
 3 H  s               0.6      10.0       1.2       7.9       7.1       1.2
 4 H  s               0.6      10.0       1.2       7.9       7.0       1.2
 5 H  s               0.0       0.0      14.2       0.0       5.7       2.2
 6 H  s              13.0       0.0       0.2       8.6       3.5       8.4
 7 H  s              13.0       0.0       0.2       8.6       3.5       8.4
 8 H  s               0.6      10.0       1.2       8.0       7.1       1.2
 9 H  s               0.0       0.0      14.2       0.0       5.7       2.2
10 H  s               0.6      10.0       1.2       8.0       7.1       1.2

                     42        43        44        45        46        47   
                   0.99686   1.37908   1.39806   1.65548   1.79036   1.82709
                   0.00000   0.00000   0.00000   0.00000   0.00000   0.00000
                  --------  --------  --------  --------  --------  --------
 0 C  s              25.7       0.0       0.3       0.9       0.0       0.7
 0 C  pz              0.0       0.7       0.0       0.0       1.4       0.0
 0 C  px              9.3       0.0       0.2       1.4       0.0       0.5
 0 C  py              2.2       0.0       0.6       0.3       0.0       1.2
 0 C  dz2             0.5       0.0       4.7       1.8       0.0      13.8
 0 C  dxz             0.0      28.0       0.0       0.0      36.3       0.0
 0 C  dyz             0.0       0.6       0.0       0.0       0.0       0.0
 0 C  dx2y2           0.1       0.0      18.7      36.9       0.0       2.4
 0 C  dxy             0.3       0.0       1.0       0.8       0.0      14.5
 1 C  s               0.0       0.0       0.5       0.0       0.0       0.0
 1 C  pz              0.0       0.0       0.0       0.0      11.9       0.0
 1 C  px              0.0       0.0       0.0       4.7       0.0       2.7
 1 C  py              0.0       0.0       0.6       0.0       0.0       0.0
 1 C  dz2             0.0       0.0       6.6       0.0       0.0       0.0
 1 C  dxz             0.0      40.2       0.0       0.0       0.0       0.0
 1 C  dyz             0.0       0.0       0.0       0.0       6.1       0.0
 1 C  dx2y2           0.0       0.0      39.5       0.0       0.0       0.0
 1 C  dxy             0.1       0.0       0.0      10.3       0.0      29.1
 2 C  s              25.7       0.0       0.3       0.9       0.0       0.7
 2 C  pz              0.0       0.7       0.0       0.0       1.4       0.0
 2 C  px              9.3       0.0       0.2       1.4       0.0       0.5
 2 C  py              2.2       0.0       0.6       0.3       0.0       1.2
 2 C  dz2             0.5       0.0       4.7       1.8       0.0      13.8
 2 C  dxz             0.0      28.0       0.0       0.0      36.3       0.0
 2 C  dyz             0.0       0.6       0.0       0.0       0.0       0.0
 2 C  dx2y2           0.1       0.0      18.7      36.9       0.0       2.4
 2 C  dxy             0.3       0.0       1.0       0.8       0.0      14.5
 3 H  s               4.9       0.3       0.0       0.1       0.1       0.4
 4 H  s               4.9       0.3       0.0       0.1       0.1       0.4
 5 H  s               2.0       0.0       0.7       0.1       0.0       0.2
 6 H  s               0.0       0.0       0.1       0.0       3.2       0.0
 7 H  s               0.0       0.0       0.1       0.0       3.2       0.0
 8 H  s               5.0       0.3       0.0       0.1       0.1       0.4
 9 H  s               2.0       0.0       0.7       0.1       0.0       0.2
10 H  s               5.0       0.3       0.0       0.1       0.1       0.4

                     48        49        50        51        52        53   
                   1.84324   1.93202   1.97523   2.06984   2.08700   2.17902
                   0.00000   0.00000   0.00000   0.00000   0.00000   0.00000
                  --------  --------  --------  --------  --------  --------
 0 C  s               0.7       0.0       0.1       0.0       0.0       0.0
 0 C  pz              0.0       2.6       0.0       1.5       0.0       0.0
 0 C  px              0.4       0.0       1.4       0.0       0.7       0.0
 0 C  py              1.0       0.0       0.6       0.0       1.4       0.0
 0 C  dz2            15.6       0.0       7.7       0.0      21.9       0.0
 0 C  dxz             0.0      17.9       0.0       0.0       0.0       7.0
 0 C  dyz             0.0      11.4       0.0      39.7       0.0       1.5
 0 C  dx2y2           0.1       0.0       7.4       0.0       3.8       0.0
 0 C  dxy             3.0       0.0      19.9       0.0      14.4       0.0
 1 C  s               2.5       0.0       1.6       0.0       0.0       0.0
 1 C  pz              0.0       0.0       0.0       0.3       0.0       0.7
 1 C  px              0.0       0.0       0.0       0.0       0.2       0.0
 1 C  py              4.3       0.0       0.7       0.0       0.0       0.0
 1 C  dz2            45.2       0.0       1.1       0.0       0.0       0.0
 1 C  dxz             0.0      29.3       0.0       0.0       0.0       0.0
 1 C  dyz             0.0       0.0       0.0       2.6       0.0      72.0
 1 C  dx2y2           0.1       0.0      15.1       0.0       0.0       0.0
 2 C  s               0.7       0.0       0.1       0.0       0.0       0.0
 2 C  pz              0.0       2.6       0.0       1.5       0.0       0.0
 2 C  px              0.4       0.0       1.4       0.0       0.7       0.0
 2 C  py              1.0       0.0       0.6       0.0       1.4       0.0
 2 C  dz2            15.6       0.0       7.7       0.0      21.9       0.0
 2 C  dxz             0.0      17.9       0.0       0.0       0.0       7.0
 2 C  dyz             0.0      11.4       0.0      39.7       0.0       1.5
 2 C  dx2y2           0.1       0.0       7.4       0.0       3.8       0.0
 2 C  dxy             3.0       0.0      19.9       0.0      14.4       0.0
 3 H  s               0.6       1.7       0.1       3.5       1.3       0.1
 4 H  s               0.6       1.7       0.1       3.5       1.3       0.1
 5 H  s               0.1       0.0       3.1       0.0       5.1       0.0
 6 H  s               1.9       0.0       0.3       0.3       0.0       5.0
 7 H  s               1.9       0.0       0.3       0.3       0.0       5.0
 8 H  s               0.6       1.7       0.1       3.5       1.3       0.1
 9 H  s               0.1       0.0       3.1       0.0       5.1       0.0
10 H  s               0.6       1.7       0.1       3.5       1.3       0.1

                     54        55        56        57   
                   2.22923   2.29380   2.44923   2.56591
                   0.00000   0.00000   0.00000   0.00000
                  --------  --------  --------  --------
 0 C  s               0.0       0.2       0.4       1.4
 0 C  pz              0.1       0.0       0.0       0.0
 0 C  px              0.0       0.2       0.8       2.5
 0 C  py              0.0       0.4       0.8       0.6
 0 C  dz2             0.0      11.7       3.3       3.6
 0 C  dxz             3.9       0.0       0.0       0.0
 0 C  dyz            29.0       0.0       0.0       0.0
 0 C  dx2y2           0.0      18.7       1.1       4.1
 0 C  dxy             0.0       1.0      17.0      11.8
 1 C  s               0.0       0.8       2.7       0.0
 1 C  px              0.0       0.0       0.0       5.7
 1 C  py              0.0       2.8       1.4       0.0
 1 C  dz2             0.0      15.1      17.5       0.0
 1 C  dxz            26.4       0.0       0.0       0.0
 1 C  dx2y2           0.0      10.2      29.0       0.0
 1 C  dxy             0.0       0.0       0.0      45.1
 2 C  s               0.0       0.2       0.4       1.4
 2 C  pz              0.1       0.0       0.0       0.0
 2 C  px              0.0       0.2       0.8       2.5
 2 C  py              0.0       0.4       0.8       0.6
 2 C  dz2             0.0      11.7       3.3       3.6
 2 C  dxz             3.9       0.0       0.0       0.0
 2 C  dyz            29.0       0.0       0.0       0.0
 2 C  dx2y2           0.0      18.7       1.1       4.1
 2 C  dxy             0.0       1.0      17.0      11.8
 3 H  s               1.9       0.9       0.0       0.1
 4 H  s               1.9       0.9       0.0       0.1
 5 H  s               0.0       1.3       0.4       0.2
 6 H  s               0.0       0.3       0.9       0.0
 7 H  s               0.0       0.3       0.9       0.0
 8 H  s               1.9       0.9       0.0       0.1
 9 H  s               0.0       1.3       0.4       0.2
10 H  s               1.9       0.9       0.0       0.1


                      *****************************
                      * MAYER POPULATION ANALYSIS *
                      *****************************

  NA   - Mulliken gross atomic population
  ZA   - Total nuclear charge
  QA   - Mulliken gross atomic charge
  VA   - Mayer's total valence
  BVA  - Mayer's bonded valence
  FA   - Mayer's free valence

  ATOM       NA         ZA         QA         VA         BVA        FA
  0 C      6.2847     6.0000    -0.2847     4.0150     4.0150    -0.0000
  1 C      6.2052     6.0000    -0.2052     4.1830     4.1830     0.0000
  2 C      6.2847     6.0000    -0.2847     4.0150     4.0150     0.0000
  3 H      0.9021     1.0000     0.0979     0.9561     0.9561     0.0000
  4 H      0.9021     1.0000     0.0979     0.9561     0.9561     0.0000
  5 H      0.8976     1.0000     0.1024     0.9495     0.9495     0.0000
  6 H      0.9109     1.0000     0.0891     0.9402     0.9402     0.0000
  7 H      0.9109     1.0000     0.0891     0.9402     0.9402     0.0000
  8 H      0.9021     1.0000     0.0979     0.9561     0.9561     0.0000
  9 H      0.8976     1.0000     0.1024     0.9495     0.9495     0.0000
 10 H      0.9021     1.0000     0.0979     0.9561     0.9561    -0.0000

  Mayer bond orders larger than 0.100000
B(  0-C ,  1-C ) :   1.1508 B(  0-C ,  3-H ) :   0.9577 B(  0-C ,  4-H ) :   0.9577 
B(  0-C ,  5-H ) :   0.9548 B(  1-C ,  2-C ) :   1.1508 B(  1-C ,  6-H ) :   0.9345 
B(  1-C ,  7-H ) :   0.9345 B(  2-C ,  8-H ) :   0.9577 B(  2-C ,  9-H ) :   0.9548 
B(  2-C , 10-H ) :   0.9577 

-------
TIMINGS
-------

Total SCF time: 0 days 0 hours 0 min 0 sec 

Total time                  ....       0.505 sec
Sum of individual times     ....       0.492 sec  ( 97.4%)

SCF preparation             ....       0.021 sec  (  4.3%)
Fock matrix formation       ....       0.451 sec  ( 89.2%)
  Startup                   ....       0.001 sec  (  0.1% of F)
  Split-RI-J                ....       0.135 sec  ( 30.0% of F)
  XC integration            ....       0.311 sec  ( 69.1% of F)
    Basis function eval.    ....       0.143 sec  ( 45.8% of XC)
    Density eval.           ....       0.051 sec  ( 16.3% of XC)
    XC-Functional eval.     ....       0.042 sec  ( 13.6% of XC)
    XC-Potential eval.      ....       0.053 sec  ( 17.2% of XC)
Diagonalization             ....       0.000 sec  (  0.0%)
Density matrix formation    ....       0.002 sec  (  0.3%)
Total Energy calculation    ....       0.000 sec  (  0.0%)
Population analysis         ....       0.012 sec  (  2.4%)
Orbital Transformation      ....       0.001 sec  (  0.2%)
Orbital Orthonormalization  ....       0.000 sec  (  0.0%)
DIIS solution               ....       0.004 sec  (  0.8%)
  MO trafo                  ....       0.000 sec  (  0.0 % of DIIS)
  Orb grad                  ....       0.000 sec  (  0.0 % of DIIS)
  Energy W gradient         ....       0.000 sec  (  0.0 % of DIIS)
  DIIS error                ....       0.000 sec  (  4.5 % of DIIS)
  DIIS work                 ....       0.003 sec  ( 80.9 % of DIIS)
  Form Q                    ....       0.000 sec  (  0.0 % of DIIS)
  Form QpQm                 ....       0.000 sec  (  0.0 % of DIIS)
  Exp/Cayley                ....       0.000 sec  (  0.0 % of DIIS)
  Orb update                ....       0.000 sec  (  0.0 % of DIIS)
  Wake-sleep                ....       0.000 sec  (  3.1 % of DIIS)
SOSCF solution              ....       0.001 sec  (  0.2%)
  MO trafo                  ....       0.001 sec  ( 61.9 % of SOSCF)
  Orb grad                  ....       0.000 sec  (  2.2 % of SOSCF)
  Rot update                ....       0.000 sec  (  6.6 % of SOSCF)
  Step                      ....       0.000 sec  ( 27.1 % of SOSCF)
Finished LeanSCF after   0.5 sec

Maximum memory used throughout the entire LEANSCF-calculation: 6.7 MB


-------------------------------------------------------------------------------
                          DFT DISPERSION CORRECTION                            
                                                                               
                                DFTD4 V3.4.0                                   
-------------------------------------------------------------------------------
The PBE functional is recognized
Active option DFTDOPT                   ...         5   

-------------------------   ----------------
Dispersion correction           -0.005213977
-------------------------   ----------------

------------------   -----------------
gCP correction             0.042785480
------------------   -----------------

-------------------------   --------------------
FINAL SINGLE POINT ENERGY      -118.811395977214
-------------------------   --------------------


------------------------------------------------------------------------------
                              ORCA PROPERTY CALCULATIONS
------------------------------------------------------------------------------

GBWName                                 ... sp.gbw
Number of atoms                         ...     11
Number of basis functions               ...     58
Max core memory                         ...   1024 MB

Electric properties:
Dipole moment                           ... YES
Quadrupole moment                       ...  NO
Static polarizability (Dipole/Dipole)   ...  NO
Static polarizability (Dipole/Quad.)    ...  NO
Static polarizability (Quad./Quad.)     ...  NO
Static polarizability (Velocity)        ...  NO

Atomic electric properties:
Dipole moment                           ...  NO
Quadrupole moment                       ...  NO
Static polarizability                   ...  NO

Choice of electric origin               ... Center of mass
Position of electric origin             ...     0.000000     0.000002    -0.000000

General magnetic properties:
Magnetizability                         ...  NO

EPR properties:
g-Tensor (aka g-matrix)                 ...  NO
Zero-Field splitting spin-orbit         ...  NO
Zero-field splitting spin-spin          ...  NO
Hyperfine couplings                     ...  NO (   0 nuclei)
Quadrupole couplings                    ...  NO (   0 nuclei)
Contact density                         ...  NO (   0 nuclei)

NMR properties:
Chemical shifts                         ...  NO (   0 nuclei)
Spin-rotation constants                 ...  NO (   0 nuclei)
Spin-spin couplings                     ...  NO (   0 nuclei,    0 pairs)

Choice of magnetic origin               ... GIAO
Position of magnetic origin             ...     0.000000     0.000000     0.000000

Properties with geometric perturbations:
SCF Hessian                             ...  NO
IR spectrum                             ...  NO
VCD spectrum                            ...  NO
X-ray spectroscopy properties:
SCF XES/XAS/RIXS spectra                ...  NO


-------------
DIPOLE MOMENT
-------------

Method             : SCF
Type of density    : Electron Density
Multiplicity       :   1
Irrep              :   0
Energy             :  -118.8489674793741955 Eh
Relativity type    : 
Basis              : AO
                                X                 Y                 Z
Electronic contribution:     -0.000008388      -0.466215126       0.000003948
Nuclear contribution   :      0.000017855       0.442075001      -0.000011441
                        -----------------------------------------
Total Dipole Moment    :      0.000009468      -0.024140125      -0.000007493
                        -----------------------------------------
Magnitude (a.u.)       :      0.024140128
Magnitude (Debye)      :      0.061359330



--------------------
Rotational spectrum 
--------------------
 
Rotational constants in cm-1:             0.980176             0.286234             0.252782 
Rotational constants in MHz :         29384.945074          8581.074965          7578.207989 

Dipole components along the rotational axes: 
x,y,z [a.u.] :    -0.000009    -0.024140    -0.000007 
x,y,z [Debye]:    -0.000024    -0.061359    -0.000019 

 

Dipole moment calculation done in   0.0 sec 

Maximum memory used throughout the entire PROP-calculation: 4.5 MB

--------------------------------
SUGGESTED CITATIONS FOR THIS RUN
--------------------------------

Below you find a list of papers that are relevant to this ORCA run
We neither can nor want to force you to cite these papers, but we appreciate if you do
You receive ORCA, which is the product of decades of hard work by many enthusiastic individuals, for free
The only thing we kindly ask in return is that you cite our papers,
We deeply appreciate it, if you show your appreciation for ORCA by not just citing the generic ORCA reference.

Please note that relegating all ORCA citations to the supporting information does *not* help us.
SI sections are not indexed - citations you put there will not count into any citation statistics
But we need these citations in order to attract the funding resources that allow us to do what we are doing

Therefore, if you are a happy ORCA user, please consider citing a few of the papers listed below in the main body of your paper

In addition to the list printed below, the program has created the file sp.bibtex that contains the list in bibtex format
You can import this file easily into all common literature databanks and citation aid programs


List of essential papers. We consider these as the minimum necessary citations

  1. Neese,F.
     Software update: the ORCA program system, version 5.0
     WIRES Comput. Molec. Sci., 2022 12(1)e1606
     doi.org/10.1002/wcms.1606

List of papers to cite with high priority. The work reported in these papers was absolutely
necessary for this run to complete.
Our perspective: the developers of density functionals and basis sets usually get cited in chemistry papers
Good! But without the algorithms to do something with them, the functionals or basis sets would not do anything.
Hence, in our opinion, the algorithm design and method developments papers are equally worthy of getting cited

  1. Neese,F.
     An improvement of the resolution of the identity approximation for the formation of the Coulomb matrix
     J. Comp. Chem., 2003 24(14)1740-1747
     doi.org/10.1002/jcc.10318
  2. Neese,F.
     The SHARK Integral Generation and Digestion System
     J. Comp. Chem., 2022  1-16
     doi.org/10.1002/jcc.26942
  3. Caldeweyher,E.; Bannwarth,C.; Grimme,S.
     Extension of the D3 dispersion coefficient model
     J. Chem. Phys., 2017 147 034112
     doi.org/10.1063/1.4993215
  4. Caldeweyher,E.; Ehlert,S.; Hansen,A.; Neugebauer,H.; Spicher,S.; Bannwarth,C.; Grimme,S.
     A generally applicable atomic-charge dependent London dispersion correction
     J. Chem. Phys., 2019 150 154122
     doi.org/10.1063/1.5090222
  5. Caldeweyher,E.; Mewes,J.; Ehlert,S.; Grimme,S.
     Extension and evaluation of the D4 London-dispersion model for periodic systems
     Phys. Chem. Chem. Phys., 2020 22(16)8499-8512
     doi.org/10.1039/D0CP00502A
  6. Wittmann,L.; Gordiy,I.; Friede,M.; Helmich-Paris,B.; Grimme,S.; Hansen,A.; Bursch,M.
     Extension of the D3 and D4 London Dispersion Corrections to the full Actinides Series
     Phys. Chem. Chem. Phys., 2024 26(32)21379-21394
     doi.org/https://doi.org/10.1039/D4CP01514B 

List of suggested additional citations. These are papers that are important in the 'surrounding' of 
of this run, or papers that preceded the highly important papers. If you like your results we are grateful for a citation.

  1. Neese,F.
     The ORCA program system
     WIRES Comput. Molec. Sci., 2012 2(1)73-78
     doi.org/10.1002/wcms.81
  2. Neese,F.
     Software update: the ORCA program system, version 4.0
     WIRES Comput. Molec. Sci., 2018 8(1)1-6
     doi.org/10.1002/wcms.1327
  3. Neese,F.; Wennmohs,F.; Becker,U.; Riplinger,C.
     The ORCA quantum chemistry program package
     J. Chem. Phys., 2020 152 Art. No. L224108
     doi.org/10.1063/5.0004608

List of optional additional citations

  1. Neese,F.
     Approximate second-order SCF convergence for spin unrestricted wavefunctions
     Chem. Phys. Lett., 2000 325(1-3)93-98
     doi.org/10.1016/s0009-2614(00)00662-x

Timings for individual modules:

Sum of individual times          ...        0.746 sec (=   0.012 min)
Startup calculation              ...        0.108 sec (=   0.002 min)  14.4 %
SCF iterations                   ...        0.609 sec (=   0.010 min)  81.7 %
Property calculations            ...        0.029 sec (=   0.000 min)   3.9 %
                             ****ORCA TERMINATED NORMALLY****
TOTAL RUN TIME: 0 days 0 hours 0 minutes 0 seconds 807 msec
