
                                 *****************
                                 * O   R   C   A *
                                 *****************

                                            #,                                       
                                            ###                                      
                                            ####                                     
                                            #####                                    
                                            ######                                   
                                           ########,                                 
                                     ,,################,,,,,                         
                               ,,#################################,,                 
                          ,,##########################################,,             
                       ,#########################################, ''#####,          
                    ,#############################################,,   '####,        
                  ,##################################################,,,,####,       
                ,###########''''           ''''###############################       
              ,#####''   ,,,,##########,,,,          '''####'''          '####       
            ,##' ,,,,###########################,,,                        '##       
           ' ,,###''''                  '''############,,,                           
         ,,##''                                '''############,,,,        ,,,,,,###''
      ,#''                                            '''#######################'''  
     '                                                          ''''####''''         
             ,#######,   #######,   ,#######,      ##                                
            ,#'     '#,  ##    ##  ,#'     '#,    #''#        ,####,   ,####,        
            ##       ##  ##   ,#'  ##            #'  '#       #'       #'  '#        
            ##       ##  #######   ##           ,######,      #####,   #    #        
            '#,     ,#'  ##    ##  '#,     ,#' ,#      #,     #,   #   #,  ,#        
             '#######'   ##     ##  '#######'  #'      '#     '####' # '####'        



                #########################################################
                #                        -***-                          #
                #          Department of theory and spectroscopy        #
                #                                                       #
                #                      Frank Neese                      #
                #                                                       #
                #     Directorship, Architecture, Infrastructure        #
                #                    SHARK, DRIVERS                     #
                #        Core code/Algorithms in most modules           #
                #                                                       #
                #        Max Planck Institute fuer Kohlenforschung      #
                #                Kaiser Wilhelm Platz 1                 #
                #                 D-45470 Muelheim/Ruhr                 #
                #                      Germany                          #
                #                                                       #
                #                  All rights reserved                  #
                #                        -***-                          #
                #########################################################


                         Program Version 6.0.1  -  RELEASE   -


 With contributions from (in alphabetic order):
[Max-Planck-Institut fuer Kohlenforschung]                               
  Daniel Aravena         : Magnetic Suceptibility                        
  Michael Atanasov       : Ab Initio Ligand Field Theory (pilot matlab implementation)
  Alexander A. Auer      : GIAO ZORA, VPT2 properties, NMR spectrum      
  Ute Becker             : All parallelization in ORCA, NUMFREQ, NUMCALC 
  Giovanni Bistoni       : ED, misc. LED, open-shell LED, HFLD           
  Martin Brehm           : Molecular dynamics                            
  Dmytro Bykov           : pre 5.0 version of the SCF Hessian            
  Marcos Casanova-Páez   : Triplet and SCS-CIS(D). UHF-(DLPNO)-IP/EA/STEOM-CCSD. UHF-CVS-IP/STEOM-CCSD   
  Vijay G. Chilkuri      : MRCI spin determinant printing, contributions to CSF-ICE 
  Pauline Colinet        : FMM embedding                                 
  Dipayan Datta          : RHF DLPNO-CCSD density                        
  Achintya Kumar Dutta   : EOM-CC, STEOM-CC                              
  Nicolas Foglia         : Exact transition moments, OPA infrastructure, MCD improvements    
  Dmitry Ganyushin       : Spin-Orbit,Spin-Spin,Magnetic field MRCI      
  Miquel Garcia-Rates    : C-PCM and meta-GGA Hessian, CCSD/C-PCM, Gaussian charge scheme 
  Tiago L. C. Gouveia    : GS-ROHF, GS-ROCIS                             
  Yang Guo               : DLPNO-NEVPT2, F12-NEVPT2, CIM, IAO-localization        
  Andreas Hansen         : Spin unrestricted coupled pair/coupled cluster methods 
  Ingolf Harden          : AUTO-CI MPn and infrastructure                
  Benjamin Helmich-Paris : MC-RPA, TRAH-(SCF,CASSCF), AVAS, COSX integrals, SCF dyn. polar. 
  Lee Huntington         : MR-EOM, pCC                                   
  Robert Izsak           : Overlap fitted RIJCOSX, COSX-SCS-MP3, EOM     
  Riya Kayal             : Wick's Theorem for AUTO-CI, AUTO-CI UHF-CCSDT 
  Emily Kempfer          : AUTO-CI, RHF CISDT and CCSDT                  
  Christian Kollmar      : KDIIS, OOCD, Brueckner-CCSD(T), CCSD density, CASPT2, CASPT2-K, improved NEVPT2 
  Axel Koslowski         : Symmetry handling                             
  Simone Kossmann        : meta-GGA functionals, TD-DFT gradient, OOMP2, (MP2 Hessian; deprecated post 5.0) 
  Lucas Lang             : DCDCAS                                        
  Marvin Lechner         : AUTO-CI (C++ implementation), FIC-MRCC        
  Spencer Leger          : CASSCF response                               
  Dagmar Lenk            : GEPOL surface, SMD, ORCA-2-JSON               
  Dimitrios Liakos       : Extrapolation schemes; Compound Job, initial MDCI parallelization 
  Dimitrios Manganas     : Further ROCIS development; embedding schemes. LFT, Crystal Embedding 
  Dimitrios Pantazis     : SARC Basis sets                               
  Anastasios Papadopoulos: AUTO-CI, single reference methods and gradients 
  Taras Petrenko         : pre 6.0 DFT Hessian and TD-DFT gradient, (ASA, deprecated), ECA, 1-Electron XAS/XES, NRVS 
  Peter Pinski           : DLPNO-MP2, DLPNO-MP2 Gradient                 
  Christoph Reimann      : Effective Core Potentials                     
  Marius Retegan         : Local ZFS, SOC                                
  Christoph Riplinger    : Optimizer, TS searches, QM/MM, DLPNO-CCSD(T), (RO)-DLPNO pert. Triples 
  Michael Roemelt        : Original ROCIS implementation                 
  Masaaki Saitow         : Open-shell DLPNO-CCSD energy and density      
  Barbara Sandhoefer     : DKH picture change effects                    
  Kantharuban Sivalingam : CASSCF convergence/infrastructure, NEVPT2 and variants, FIC-MRCI 
  Bernardo de Souza      : ESD, SOC TD-DFT                               
  Georgi L. Stoychev     : AutoAux, RI-MP2 NMR, DLPNO-MP2 response, X2C  
  Van Anh Tran           : RI-MP2 g-tensors                              
  Willem Van den Heuvel  : Paramagnetic NMR                              
  Zikuan Wang            : NOTCH, Electric field optimization            
  Frank Wennmohs         : Technical directorship and infrastructure     
  Hang Xu                : AUTO-CI-Response properties                   
                                                                         
[FACCTs GmbH]                                                            
  Markus Bursch, Miquel Garcia-Rates, Christoph Riplinger, Bernardo de Souza, Georgi L. Stoychev 
                                                                 
  APM, Basis sets (HGBS, AHGBS, def-TZVP (Ac-Lr), def2-XVPD (La-Lu)), CI-OPT, improved COSX, DLPNO-Multilevel,           
  DOCKER, DRACO, updates on ESD, GOAT, IRC, LR-CPCM, MBIS, meta-GGA TD-DFT gradient, ML-optimized integration grids, 
  MM, NACMEs, nearIR, NEB, NEB-TS, NL-DFT gradient (VV10), 2- and 3-layer-ONIOM, interface openCOSMO-RS, QMMM,   
  Crystal-QMMM, SF, symmetry and pop. for TD-DFT, r2SCAN hybrids, SOLVATOR                                   
                                                                         
[Other institutions]                                                     
  V. Asgeirsson          : NEB                                           
  Christoph Bannwarth    : sTDA-DFT, sTD-DFT, PBEh-3c, B97-3c, D3        
  Sebastian Ehlert       : rSCAN, r2SCAN, r2SCAN-3c, D4, dhf basis sets  
  Marvin Friede          : D4 for Fr, Ra, Ac-Lr                          
  Lars Goerigk           : TD-DFT with DH, B97 family of functionals     
  Stefan Grimme          : VdW corrections, initial TS optimization, DFT functionals, gCP, sTDA/sTD-DF 
  Waldemar Hujo          : DFT-NL                                        
  H. Jonsson             : NEB                                           
  Holger Kruse           : gCP                                           
  Marcel Mueller         : wB97X-3c, vDZP basis set                      
  Hagen Neugebauer       : wr2SCAN                                       
  Tobias Risthaus        : range-separated hybrid DFT                    
  Lukas Wittmann         : regularized MP2, r2SCAN double-hybrids, wr2SCAN        
                                                                         
We gratefully acknowledge several colleagues who have allowed us to      
interface, adapt or use parts of their codes:                            
  Ed Valeev, F. Pavosevic, A. Kumar             : LibInt (2-el integral package), F12 methods 
  Garnet Chan, S. Sharma, J. Yang, R. Olivares  : DMRG                   
  Ulf Ekstrom                                   : XCFun DFT Library      
  Mihaly Kallay                                 : mrcc  (arbitrary order and MRCC methods)
  Frank Weinhold                                : gennbo (NPA and NBO analysis)           
  Simon Mueller                                 : openCOSMO-RS                            
  Christopher J. Cramer and Donald G. Truhlar   : smd solvation model                     
  S Lehtola, MJT Oliveira, MAL Marques          : LibXC Library                           
  Liviu Ungur et al                             : ANISO software                          


 Your calculation uses the libint2 library for the computation of 2-el integrals
 For citations please refer to: http://libint.valeyev.net

 Your ORCA version has been built with support for libXC version: 6.2.2
 For citations please refer to: https://libxc.gitlab.io

 This ORCA versions uses:
   CBLAS   interface :  Fast vector & matrix operations
   LAPACKE interface :  Fast linear algebra routines
   SCALAPACK package :  Parallel linear algebra routines
   Shared memory     :  Shared parallel matrices
   BLAS/LAPACK       :  OpenBLAS 0.3.27  USE64BITINT DYNAMIC_ARCH NO_AFFINITY Zen SINGLE_THREADED
        Core in use  :  Zen
   Copyright (c) 2011-2014, The OpenBLAS Project


Your calculation utilizes the geometrical counterpoise correction gCP
Please cite in your paper:
H.Kruse, S. Grimme J.Chem.Phys., 136, (2012), 154101 
   

Your calculation utilizes the DFT-NL dispersion correction.
Cite in your paper:
Vydrov, O. A.; Van Voorhis, T. J. Chem. Phys. 2010, 133, 244103
Hujo, W.; Grimme, S. J. Chem. Theory Comput. 2011, 7, 3866 
   

================================================================================

----- Orbital basis set information -----
Your calculation utilizes the basis: def2-TZVP
   F. Weigend and R. Ahlrichs, Phys. Chem. Chem. Phys. 7, 3297 (2005).

----- AuxJ basis set information -----
Your calculation utilizes the auxiliary basis: def2/J
   F. Weigend, Phys. Chem. Chem. Phys. 8, 1057 (2006).

================================================================================
                                        WARNINGS
                       Please study these warnings very carefully!
================================================================================

WARNING: Old DensityContainer found on disk!
         Will remove this file - 
         If you want to keep old densities, please start your calculation with a different basename. 


================================================================================
                                       INPUT FILE
================================================================================
NAME = sp.inp
|  1> ! wb97x-v def2-tzvp def2/J RIJCOSX DEFGRID2 scfconv7 GCP(DFT/TZ) printgap
|  2> %output
|  3>     printlevel normal
|  4> end
|  5> * xyz 0 1
|  6> C -1.7826076766766306 0.6808577419492383 0.000916594687375853
|  7> C -0.47696574757912164 -0.09376156803528518 -0.0007706042124634307
|  8> O -0.4232485732951461 -1.315635195652849 0.00018316658510298214
|  9> N 0.6492310802894963 0.6752641099378753 -0.002793567009632693
| 10> C 1.9716763673439774 0.06879722051507474 0.0011709759912664035
| 11> H -1.8669311230842227 1.3001530358295297 0.8999710669323407
| 12> H -1.8505288192632072 1.3394857078684117 -0.8710396433425629
| 13> H -2.607768014422434 -0.029694753736796066 -0.021447213008938457
| 14> H 0.5651865473350334 1.6771702713957635 -1.6297606650560807e-05
| 15> H 2.113313740252268 -0.554893666830697 0.8901039608383968
| 16> H 2.7250809275804615 0.8593629510128402 -0.005284256283635131
| 17> H 2.111478467393023 -0.5673734274749048 -0.8790063674366603
| 18> *
| 19> 
| 20>                          ****END OF INPUT****
================================================================================

                       ****************************
                       * Single Point Calculation *
                       ****************************

---------------------------------
CARTESIAN COORDINATES (ANGSTROEM)
---------------------------------
  C     -1.782608    0.680858    0.000917
  C     -0.476966   -0.093762   -0.000771
  O     -0.423249   -1.315635    0.000183
  N      0.649231    0.675264   -0.002794
  C      1.971676    0.068797    0.001171
  H     -1.866931    1.300153    0.899971
  H     -1.850529    1.339486   -0.871040
  H     -2.607768   -0.029695   -0.021447
  H      0.565187    1.677170   -0.000016
  H      2.113314   -0.554894    0.890104
  H      2.725081    0.859363   -0.005284
  H      2.111478   -0.567373   -0.879006

----------------------------
CARTESIAN COORDINATES (A.U.)
----------------------------
  NO LB      ZA    FRAG     MASS         X           Y           Z
   0 C     6.0000    0    12.011   -3.368640    1.286635    0.001732
   1 C     6.0000    0    12.011   -0.901335   -0.177184   -0.001456
   2 O     8.0000    0    15.999   -0.799824   -2.486190    0.000346
   3 N     7.0000    0    14.007    1.226869    1.276064   -0.005279
   4 C     6.0000    0    12.011    3.725928    0.130008    0.002213
   5 H     1.0000    0     1.008   -3.527989    2.456933    1.700699
   6 H     1.0000    0     1.008   -3.496993    2.531261   -1.646026
   7 H     1.0000    0     1.008   -4.927967   -0.056115   -0.040529
   8 H     1.0000    0     1.008    1.068048    3.169392   -0.000031
   9 H     1.0000    0     1.008    3.993584   -1.048597    1.682053
  10 H     1.0000    0     1.008    5.149657    1.623961   -0.009986
  11 H     1.0000    0     1.008    3.990116   -1.072180   -1.661081

--------------------------------
INTERNAL COORDINATES (ANGSTROEM)
--------------------------------
 C      0   0   0     0.000000000000     0.00000000     0.00000000
 C      1   0   0     1.518136610802     0.00000000     0.00000000
 O      2   1   0     1.223054212355   123.19724721     0.00000000
 N      2   1   3     1.363716935754   114.99269745   180.03096812
 C      4   2   1     1.454881212615   121.03631658   179.73600480
 H      1   2   3     1.094959382215   110.83826342   118.48735167
 H      1   2   3     1.094856958758   111.06414594   238.53980099
 H      1   2   3     1.089162325831   108.58245875   358.64226647
 H      4   2   1     1.005428840402   119.53185153     0.19941394
 H      5   4   2     1.095104250705   110.92726257   299.96345972
 H      5   4   2     1.092087119074   108.98388813   179.78127657
 H      5   4   2     1.094974829129   110.85777751    59.64998380

---------------------------
INTERNAL COORDINATES (A.U.)
---------------------------
 C      0   0   0     0.000000000000     0.00000000     0.00000000
 C      1   0   0     2.868862428296     0.00000000     0.00000000
 O      2   1   0     2.311237508290   123.19724721     0.00000000
 N      2   1   3     2.577051532765   114.99269745   180.03096812
 C      4   2   1     2.749327049230   121.03631658   179.73600480
 H      1   2   3     2.069173360153   110.83826342   118.48735167
 H      1   2   3     2.068979807870   111.06414594   238.53980099
 H      1   2   3     2.058218511205   108.58245875   358.64226647
 H      4   2   1     1.899985155506   119.53185153     0.19941394
 H      5   4   2     2.069447121925   110.92726257   299.96345972
 H      5   4   2     2.063745569432   108.98388813   179.78127657
 H      5   4   2     2.069202550591   110.85777751    59.64998380

---------------------
BASIS SET INFORMATION
---------------------
There are 4 groups of distinct atoms

 Group   1 Type C   : 11s6p2d1f contracted to 5s3p2d1f pattern {62111/411/11/1}
 Group   2 Type O   : 11s6p2d1f contracted to 5s3p2d1f pattern {62111/411/11/1}
 Group   3 Type N   : 11s6p2d1f contracted to 5s3p2d1f pattern {62111/411/11/1}
 Group   4 Type H   : 5s1p contracted to 3s1p pattern {311/1}

Atom   0C    basis set group =>   1
Atom   1C    basis set group =>   1
Atom   2O    basis set group =>   2
Atom   3N    basis set group =>   3
Atom   4C    basis set group =>   1
Atom   5H    basis set group =>   4
Atom   6H    basis set group =>   4
Atom   7H    basis set group =>   4
Atom   8H    basis set group =>   4
Atom   9H    basis set group =>   4
Atom  10H    basis set group =>   4
Atom  11H    basis set group =>   4
---------------------------------
AUXILIARY/J BASIS SET INFORMATION
---------------------------------
There are 4 groups of distinct atoms

 Group   1 Type C   : 12s5p4d2f1g contracted to 6s4p3d1f1g pattern {711111/2111/211/2/1}
 Group   2 Type O   : 12s5p4d2f1g contracted to 6s4p3d1f1g pattern {711111/2111/211/2/1}
 Group   3 Type N   : 12s5p4d2f1g contracted to 6s4p3d1f1g pattern {711111/2111/211/2/1}
 Group   4 Type H   : 5s2p1d contracted to 3s1p1d pattern {311/2/1}

Atom   0C    basis set group =>   1
Atom   1C    basis set group =>   1
Atom   2O    basis set group =>   2
Atom   3N    basis set group =>   3
Atom   4C    basis set group =>   1
Atom   5H    basis set group =>   4
Atom   6H    basis set group =>   4
Atom   7H    basis set group =>   4
Atom   8H    basis set group =>   4
Atom   9H    basis set group =>   4
Atom  10H    basis set group =>   4
Atom  11H    basis set group =>   4

Checking for AutoStart:
The File: sp.gbw exists
Trying to determine its content:
     ... Fine, the file contains calculation information
     ... Fine, the calculation information was read
     ... Fine, the file contains a basis set
     ... Fine, the basis set was read
     ... Fine, the file contains a geometry
     ... Fine, the geometry was read
     ... Fine, the file contains a set of orbitals
     ... Fine, the orbitals can be read
     => possible old guess file was deleted
     => GBW file was renamed to GES file
     => GES file is set as startup file
     => Guess is set to MORead
     ... now leaving AutoStart

------------------------------------------------------------------------------
                             ORCA STARTUP CALCULATIONS
                           -- RI-GTO INTEGRALS CHOSEN --
------------------------------------------------------------------------------
------------------------------------------------------------------------------
                   ___                                                        
                  /   \      - P O W E R E D   B Y -                         
                 /     \                                                     
                 |  |  |   _    _      __       _____    __    __             
                 |  |  |  | |  | |    /  \     |  _  \  |  |  /  |          
                  \  \/   | |  | |   /    \    | | | |  |  | /  /          
                 / \  \   | |__| |  /  /\  \   | |_| |  |  |/  /          
                |  |  |   |  __  | /  /__\  \  |    /   |      \           
                |  |  |   | |  | | |   __   |  |    \   |  |\   \          
                \     /   | |  | | |  |  |  |  | |\  \  |  | \   \       
                 \___/    |_|  |_| |__|  |__|  |_| \__\ |__|  \__/        
                                                                              
                      - O R C A' S   B I G   F R I E N D -                    
                                      &                                       
                       - I N T E G R A L  F E E D E R -                       
                                                                              
 v1 FN, 2020, v2 2021, v3 2022-2024                                           
------------------------------------------------------------------------------


----------------------
SHARK INTEGRAL PACKAGE
----------------------

Number of atoms                             ...     12
Number of basis functions                   ...    197
Number of shells                            ...     83
Maximum angular momentum                    ...      3
Integral batch strategy                     ... SHARK/LIBINT Hybrid
RI-J (if used) integral strategy            ... SPLIT-RIJ (Revised 2003 algorithm where possible)
Printlevel                                  ...      1
Contraction scheme used                     ... SEGMENTED contraction
Prescreening option                         ... SCHWARTZ
   Thresh                                   ... 3.000e-11
   Tcut                                     ... 1.000e-12
   Tpresel                                  ... 1.000e-12 
Coulomb Range Separation                    ... NOT USED
Exchange Range Separation                   ... Long Range
   Mu parameter                             ... 3.000e-01
   Scaling (regular/separated)              ... 1.670e-01 8.330e-01
Multipole approximations                    ... NOT USED
Finite Nucleus Model                        ... NOT USED
CABS basis                                  ... NOT available
Auxiliary Coulomb fitting basis             ... AVAILABLE
   # of basis functions in Aux-J            ...    322
   # of shells in Aux-J                     ...    110
   Maximum angular momentum in Aux-J        ...      4
Auxiliary J/K fitting basis                 ... NOT available
Auxiliary Correlation fitting basis         ... NOT available
Auxiliary 'external' fitting basis          ... NOT available

Checking pre-screening integrals            ... done (  0.0 sec) Dimension = 83
Check shell pair data                       ... done (  0.0 sec)
Shell pair information
Shell pair cut-off parameter TPreSel        ...   1.0e-12
Total number of shell pairs                 ...      3486
Shell pairs after pre-screening             ...      3339
Total number of primitive shell pairs       ...     10284
Primitive shell pairs kept                  ...      7853
          la=0 lb=0:   1008 shell pairs
          la=1 lb=0:    967 shell pairs
          la=1 lb=1:    248 shell pairs
          la=2 lb=0:    444 shell pairs
          la=2 lb=1:    218 shell pairs
          la=2 lb=2:     55 shell pairs
          la=3 lb=0:    224 shell pairs
          la=3 lb=1:    110 shell pairs
          la=3 lb=2:     50 shell pairs
          la=3 lb=3:     15 shell pairs

Calculating one electron integrals          ... done (  0.0 sec)
Calculating RI/J V-Matrix + Cholesky decomp.... done (  0.0 sec)
Calculating Nuclear repulsion               ... done (  0.0 sec) ENN=    180.011615715552 Eh

Diagonalization of the overlap matrix:
Smallest eigenvalue                        ... 3.626e-04
Time for diagonalization                   ...    0.003 sec
Threshold for overlap eigenvalues          ... 1.000e-07
Number of eigenvalues below threshold      ... 0
Time for construction of square roots      ...    0.001 sec
Total time needed                          ...    0.005 sec

-------------------
DFT GRID GENERATION
-------------------

General Integration Accuracy     IntAcc      ... 4.388
Radial Grid Type                 RadialGrid  ... OptM3 with GC (2021)
Angular Grid (max. ang.)         AngularGrid ... 4 (Lebedev-302)
Angular grid pruning method      GridPruning ... 4 (adaptive)
Weight generation scheme         WeightScheme... mBecke (2022)
Basis function cutoff            BFCut       ... 1.0000e-11
Integration weight cutoff        WCut        ... 1.0000e-14
Partially contracted basis set               ... off
Rotationally invariant grid construction     ... off
Angular grids for H and He will be reduced by one unit

Total number of grid points                  ...    52966
Total number of batches                      ...      834
Average number of points per batch           ...       63
Average number of grid points per atom       ...     4414

--------------------
COSX GRID GENERATION
--------------------

GRIDX 1
-------
General Integration Accuracy     IntAcc      ... 3.816
Radial Grid Type                 RadialGrid  ... OptM3 with GC (2021)
Angular Grid (max. ang.)         AngularGrid ... 1 (Lebedev-50)
Angular grid pruning method      GridPruning ... 4 (adaptive)
Weight generation scheme         WeightScheme... mBecke (2022)
Basis function cutoff            BFCut       ... 1.0000e-11
Integration weight cutoff        WCut        ... 1.0000e-14
Partially contracted basis set               ... on
Rotationally invariant grid construction     ... off
Angular grids for H and He will be reduced by one unit

Total number of grid points                  ...     6795
Total number of batches                      ...       59
Average number of points per batch           ...      115
Average number of grid points per atom       ...      566
UseSFitting                                  ... on

GRIDX 2
-------
General Integration Accuracy     IntAcc      ... 4.020
Radial Grid Type                 RadialGrid  ... OptM3 with GC (2021)
Angular Grid (max. ang.)         AngularGrid ... 2 (Lebedev-110)
Angular grid pruning method      GridPruning ... 4 (adaptive)
Weight generation scheme         WeightScheme... mBecke (2022)
Basis function cutoff            BFCut       ... 1.0000e-11
Integration weight cutoff        WCut        ... 1.0000e-14
Partially contracted basis set               ... on
Rotationally invariant grid construction     ... off
Angular grids for H and He will be reduced by one unit

Total number of grid points                  ...    14577
Total number of batches                      ...      119
Average number of points per batch           ...      122
Average number of grid points per atom       ...     1215
UseSFitting                                  ... on

GRIDX 3
-------
General Integration Accuracy     IntAcc      ... 4.338
Radial Grid Type                 RadialGrid  ... OptM3 with GC (2021)
Angular Grid (max. ang.)         AngularGrid ... 3 (Lebedev-194)
Angular grid pruning method      GridPruning ... 4 (adaptive)
Weight generation scheme         WeightScheme... mBecke (2022)
Basis function cutoff            BFCut       ... 1.0000e-11
Integration weight cutoff        WCut        ... 1.0000e-14
Partially contracted basis set               ... on
Rotationally invariant grid construction     ... off
Angular grids for H and He will be reduced by one unit

Total number of grid points                  ...    32009
Total number of batches                      ...      258
Average number of points per batch           ...      124
Average number of grid points per atom       ...     2667
UseSFitting                                  ... on
Initializing property integral containers    ... done (  0.0 sec)

SHARK setup successfully completed in   0.6 seconds

Maximum memory used throughout the entire STARTUP-calculation: 28.7 MB
-------------------------------------------------------------------------------
                                 ORCA GUESS
                   Start orbitals & Density for SCF / CASSCF
-------------------------------------------------------------------------------

------------
SCF SETTINGS
------------
Hamiltonian:
 Density Functional     Method          .... DFT(GTOs)
 Exchange Functional    Exchange        .... WB97X-V
 Correlation Functional Correlation     .... WB97X-V
 Gradients option       PostSCFGGA      .... off
 Hybrid DFT is turned on
   Fraction HF Exchange ScalHFX         ....  0.167000
   Scaling of DF-GGA-X  ScalDFX         ....  0.000000
   Scaling of DF-GGA-C  ScalDFC         ....  1.000000
   Scaling of DF-LDA-C  ScalLDAC        ....  1.000000
   Perturbative correction              ....  0.000000
 Long-range corrected/Screened/Range-Separated Hybrid DFT is turned on
   Amount of maximum screened exact exchange              ....  0.833000
   Range separation parameter mu (erf(mu*r12)/r12)        ....  0.300000
   NL short-range parameter             ....  6.000000
   NL long-range parameter              ....  0.010000
 RI-approximation to the Coulomb term is turned on
   Number of AuxJ basis functions       .... 322
   RIJ-COSX (HFX calculated with COS-X)).... on


General Settings:
 Integral files         IntName         .... sp
 Hartree-Fock type      HFTyp           .... RHF
 Total Charge           Charge          ....    0
 Multiplicity           Mult            ....    1
 Number of Electrons    NEL             ....   40
 Basis Dimension        Dim             ....  197
 Nuclear Repulsion      ENuc            ....    180.0116157156 Eh

Convergence Acceleration:
 AO-DIIS                CNVDIIS         .... on
   Start iteration      DIISMaxIt       ....    12
   Startup error        DIISStart       ....  0.200000
   # of expansion vecs  DIISMaxEq       ....     5
   Bias factor          DIISBfac        ....   1.050
   Max. coefficient     DIISMaxC        ....  10.000
 MO-DIIS                CNVKDIIS        .... off
 Trust-Rad. Augm. Hess. CNVTRAH         .... auto
   Auto Start mean grad. ratio tolernc. ....  1.125000
   Auto Start start iteration           ....     1
   Auto Start num. interpolation iter.  ....    10
   Max. Number of Micro iterations      ....    24
   Max. Number of Macro iterations      .... Maxiter - #DIIS iter
   Number of Davidson start vectors     ....     2
   Converg. threshold    (grad. norm)   ....   1.000e-04
   Grad. Scal. Fac. for Micro threshold ....   0.100
   Minimum threshold for Micro iter.    ....   1.000e-02
   NR start threshold (gradient norm)   ....   1.000e-04
   Initial trust radius                 ....   0.400
   Minimum AH scaling param. (alpha)    ....   1.000
   Maximum AH scaling param. (alpha)    .... 1000.000
   Quad. conv. algorithm                .... NR
   White noise on init. David. guess    .... on
   Maximum white noise                  ....   0.010
   Pseudo random numbers                .... off
   Inactive MOs                         .... canonical
   Orbital update algorithm             .... Taylor
   Preconditioner                       .... Diag
   Full preconditioner red. dimension   ....   250
 SOSCF                  CNVSOSCF        .... on
   Start iteration      SOSCFMaxIt      ....   150
   Startup grad/error   SOSCFStart      ....  0.003300
   Hessian update       SOSCFHessUp     .... L-BFGS
 Level Shifting         CNVShift        .... on
   Level shift para.    LevelShift      ....    0.2500
   Turn off err/grad.   ShiftErr        ....    0.0010
 Zerner damping         CNVZerner       .... off
 Static damping         CNVDamp         .... on
   Fraction old density DampFac         ....    0.7000
   Max. Damping (<1)    DampMax         ....    0.9800
   Min. Damping (>=0)   DampMin         ....    0.0000
   Turn off err/grad.   DampErr         ....    0.1000

SCF Procedure:
 Maximum # iterations   MaxIter         ....   125
 SCF integral mode      SCFMode         .... Direct
   Integral package                     .... SHARK and LIBINT hybrid scheme
 Reset frequency        DirectResetFreq ....    20
 Integral Threshold     Thresh          ....  3.000e-11 Eh
 Primitive CutOff       TCut            ....  1.000e-12 Eh

Convergence Tolerance:
 Convergence Check Mode ConvCheckMode   .... Total+1el-Energy
 Convergence forced     ConvForced      .... 0
 Energy Change          TolE            ....  1.000e-07 Eh
 1-El. energy change                    ....  1.000e-04 Eh
 Orbital Gradient       TolG            ....  1.000e-04
 Orbital Rotation angle TolX            ....  1.000e-04
 DIIS Error             TolErr          ....  1.000e-07

---------------------
INITIAL GUESS: MOREAD
---------------------
Guess MOs are being read from file: sp.ges
Input Geometry matches current geometry (good)
Atom 0: N(Shells)= 11 and 9 - projection required
Input basis set needs projection
NBasis(read)= 140
NBasis(calc)= 197
Basis set overlap was calculated
Using GuessMode=FMatrix for the initial guess
C*T matrix was formed
Effective Fockian was calculated
Effective Fockian was diagonalized
Initial density was built
                      ------------------
                      INITIAL GUESS DONE (   0.0 sec)
                      ------------------
             **** ENERGY FILE WAS UPDATED (sp.en.tmp) ****
Finished Guess after   0.0 sec
Maximum memory used throughout the entire GUESS-calculation: 16.1 MB

-------------------------------------------------------------------------------------------
                                      ORCA LEAN-SCF
                              memory conserving SCF solver
-------------------------------------------------------------------------------------------

----------------------------------------D-I-I-S--------------------------------------------
Iteration    Energy (Eh)           Delta-E    RMSDP     MaxDP     DIISErr   Damp  Time(sec)
-------------------------------------------------------------------------------------------
               ***  Starting incremental Fock matrix formation  ***
    1    -248.6896387552560270     0.00e+00  9.34e-04  2.76e-02  5.94e-02  0.700   4.0
    2    -248.6932294051505039    -3.59e-03  8.30e-04  2.64e-02  4.35e-02  0.700   2.0
                               ***Turning on AO-DIIS***
    3    -248.6959393977841444    -2.71e-03  7.02e-04  2.32e-02  3.13e-02  0.700   2.0
    4    -248.6979366596151237    -2.00e-03  1.77e-03  5.95e-02  2.20e-02  0.000   1.9
                              *** Initializing SOSCF ***
---------------------------------------S-O-S-C-F--------------------------------------
Iteration    Energy (Eh)           Delta-E    RMSDP     MaxDP     MaxGrad    Time(sec)
--------------------------------------------------------------------------------------
    5    -248.7030363019560184    -5.10e-03  9.19e-05  3.18e-03  1.70e-03     2.0
               *** Restarting incremental Fock matrix formation ***
    6    -248.7030617505621706    -2.54e-05  4.72e-05  1.42e-03  5.81e-04     3.9
    7    -248.7030678778559434    -6.13e-06  2.65e-05  7.12e-04  2.05e-04     3.1
    8    -248.7030688859586860    -1.01e-06  4.80e-06  1.84e-04  9.04e-05     3.0
    9    -248.7030690050703186    -1.19e-07  3.27e-06  9.57e-05  6.17e-05     2.7
   10    -248.7030690440293768    -3.90e-08  7.84e-07  2.75e-05  1.67e-05     2.7
                 **** Energy Check signals convergence ****

               *****************************************************
               *                     SUCCESS                       *
               *           SCF CONVERGED AFTER  10 CYCLES          *
               *****************************************************


------------------
NL GRID GENERATION
------------------

General Integration Accuracy     IntAcc      ... 4.004
Radial Grid Type                 RadialGrid  ... OptM3 with GC (2021)
Angular Grid (max. ang.)         AngularGrid ... 2 (Lebedev-110)
Angular grid pruning method      GridPruning ... 4 (adaptive)
Weight generation scheme         WeightScheme... mBecke (2022)
Basis function cutoff            BFCut       ... 1.0000e-10
Integration weight cutoff        WCut        ... 1.0000e-14
Partially contracted basis set               ... off
Rotationally invariant grid construction     ... off
Angular grids for H and He will be reduced by one unit

Total number of grid points                  ...    16263
Total number of batches                      ...      260
Average number of points per batch           ...       62
Average number of grid points per atom       ...     1355
Final grid set up in    0.1 sec

-------------------------------------------------------------------------------
                    post-SCF DFT-NL dispersion correction                      
-------------------------------------------------------------------------------

SCF Energy:     -248.703069044 
NL    Energy:      0.157023446 
SC+NL Energy:   -248.546045598 
NL done in  :              0.8 sec
-------------------------------------------------------------------------------
Recomputing exchange energy using gridx3       ... done (    7.249 sec)
Old exchange energy                            :    -10.722519117 Eh
New exchange energy                            :    -10.722520953 Eh
Exchange energy change after final integration :     -0.000001836 Eh
Total energy after final integration           :   -248.546047434 Eh
             **** ENERGY FILE WAS UPDATED (sp.en.tmp) ****

----------------
TOTAL SCF ENERGY
----------------

Total Energy       :       -248.54604743371971 Eh           -6763.28179 eV

Components:
Nuclear Repulsion  :        180.01161571555232 Eh            4898.36509 eV
Electronic Energy  :       -428.71468475958170 Eh          -11665.91966 eV
One Electron Energy:       -693.05471683708402 Eh          -18858.97762 eV
Two Electron Energy:        264.34003207750231 Eh            7193.05796 eV

Virial components:
Potential Energy   :       -496.10247637207198 Eh          -13499.63469 eV
Kinetic Energy     :        247.55642893835227 Eh            6736.35290 eV
Virial Ratio       :          2.00399754714354

DFT components:
N(Alpha)           :       20.000015000859 electrons
N(Beta)            :       20.000015000859 electrons
N(Total)           :       40.000030001717 electrons
E(X)               :      -22.154340369668 Eh       
E(C)               :       -1.648298000360 Eh       
NL Energy, E(C,NL) :        0.157023446147 Eh       
E(XC)              :      -23.645614923881 Eh       

---------------
SCF CONVERGENCE
---------------

  Last Energy change         ...    3.8959e-08  Tolerance :   1.0000e-07
  Last MAX-Density change    ...    2.7517e-05  Tolerance :   1.0000e-05
  Last RMS-Density change    ...    7.8402e-07  Tolerance :   1.0000e-06
  Last DIIS Error            ...    1.7027e-03  Tolerance :   1.0000e-07
  Last Orbital Gradient      ...    1.6669e-05  Tolerance :   1.0000e-04
  Last Orbital Rotation      ...    2.3185e-05  Tolerance :   1.0000e-04


----------------
ORBITAL ENERGIES
----------------

  NO   OCC          E(Eh)            E(eV) 
   0   2.0000     -19.171057      -521.6710 
   1   2.0000     -14.434817      -392.7913 
   2   2.0000     -10.370766      -282.2029 
   3   2.0000     -10.303532      -280.3733 
   4   2.0000     -10.276718      -279.6437 
   5   2.0000      -1.164119       -31.6773 
   6   2.0000      -1.051842       -28.6221 
   7   2.0000      -0.886598       -24.1256 
   8   2.0000      -0.817175       -22.2365 
   9   2.0000      -0.705062       -19.1857 
  10   2.0000      -0.621677       -16.9167 
  11   2.0000      -0.580437       -15.7945 
  12   2.0000      -0.579869       -15.7790 
  13   2.0000      -0.535397       -14.5689 
  14   2.0000      -0.519988       -14.1496 
  15   2.0000      -0.506701       -13.7880 
  16   2.0000      -0.497482       -13.5372 
  17   2.0000      -0.462796       -12.5933 
  18   2.0000      -0.359689        -9.7876 
  19   2.0000      -0.359255        -9.7758 
  20   0.0000       0.096469         2.6250 
  21   0.0000       0.113268         3.0822 
  22   0.0000       0.136540         3.7154 
  23   0.0000       0.145598         3.9619 
  24   0.0000       0.191106         5.2002 
  25   0.0000       0.191563         5.2127 
  26   0.0000       0.194532         5.2935 
  27   0.0000       0.216636         5.8950 
  28   0.0000       0.222021         6.0415 
  29   0.0000       0.230227         6.2648 
  30   0.0000       0.278164         7.5692 
*Only the first 10 virtual orbitals were printed.

                    ********************************
                    * MULLIKEN POPULATION ANALYSIS *
                    ********************************

-----------------------
MULLIKEN ATOMIC CHARGES
-----------------------
   0 C :   -0.374737
   1 C :    0.301775
   2 O :   -0.384169
   3 N :   -0.310431
   4 C :   -0.221988
   5 H :    0.125695
   6 H :    0.124743
   7 H :    0.141720
   8 H :    0.222108
   9 H :    0.130739
  10 H :    0.113229
  11 H :    0.131317
Sum of atomic charges:    0.0000000

--------------------------------
MULLIKEN REDUCED ORBITAL CHARGES
--------------------------------
  0 C s       :     3.236184  s :     3.236184
      pz      :     1.050029  p :     3.090102
      px      :     0.980898
      py      :     1.059175
      dz2     :     0.005594  d :     0.045392
      dxz     :     0.005684
      dyz     :     0.012876
      dx2y2   :     0.009425
      dxy     :     0.011814
      f0      :     0.000206  f :     0.003059
      f+1     :     0.000063
      f-1     :     0.001040
      f+2     :     0.000003
      f-2     :     0.000214
      f+3     :     0.000756
      f-3     :     0.000778

  1 C s       :     3.073778  s :     3.073778
      pz      :     0.739397  p :     2.354450
      px      :     0.845401
      py      :     0.769652
      dz2     :     0.006206  d :     0.248464
      dxz     :     0.024870
      dyz     :     0.069229
      dx2y2   :     0.044531
      dxy     :     0.103628
      f0      :     0.002703  f :     0.021533
      f+1     :     0.001002
      f-1     :     0.001407
      f+2     :     0.002749
      f-2     :     0.002257
      f+3     :     0.008307
      f-3     :     0.003109

  2 O s       :     3.799806  s :     3.799806
      pz      :     1.428217  p :     4.550810
      px      :     1.790308
      py      :     1.332285
      dz2     :     0.002873  d :     0.031686
      dxz     :     0.000060
      dyz     :     0.011243
      dx2y2   :     0.009512
      dxy     :     0.007997
      f0      :     0.000186  f :     0.001867
      f+1     :     0.000022
      f-1     :     0.000188
      f+2     :     0.000450
      f-2     :     0.000013
      f+3     :     0.000536
      f-3     :     0.000472

  3 N s       :     3.412313  s :     3.412313
      pz      :     1.672473  p :     3.840028
      px      :     1.083868
      py      :     1.083688
      dz2     :     0.004196  d :     0.053844
      dxz     :     0.011411
      dyz     :     0.003168
      dx2y2   :     0.020605
      dxy     :     0.014465
      f0      :     0.000719  f :     0.004246
      f+1     :     0.000700
      f-1     :     0.000679
      f+2     :     0.000079
      f-2     :     0.000442
      f+3     :     0.000825
      f-3     :     0.000802

  4 C s       :     3.219894  s :     3.219894
      pz      :     1.091039  p :     2.920621
      px      :     0.816286
      py      :     1.013297
      dz2     :     0.008202  d :     0.075660
      dxz     :     0.019627
      dyz     :     0.019011
      dx2y2   :     0.011052
      dxy     :     0.017769
      f0      :     0.000841  f :     0.005813
      f+1     :     0.000357
      f-1     :     0.001051
      f+2     :     0.000803
      f-2     :     0.000560
      f+3     :     0.001187
      f-3     :     0.001014

  5 H s       :     0.853256  s :     0.853256
      pz      :     0.009825  p :     0.021049
      px      :     0.004289
      py      :     0.006935

  6 H s       :     0.854249  s :     0.854249
      pz      :     0.009485  p :     0.021008
      px      :     0.004250
      py      :     0.007273

  7 H s       :     0.836708  s :     0.836708
      pz      :     0.004241  p :     0.021572
      px      :     0.009425
      py      :     0.007906

  8 H s       :     0.738836  s :     0.738836
      pz      :     0.013094  p :     0.039057
      px      :     0.005730
      py      :     0.020232

  9 H s       :     0.848506  s :     0.848506
      pz      :     0.009961  p :     0.020754
      px      :     0.003475
      py      :     0.007319

 10 H s       :     0.866213  s :     0.866213
      pz      :     0.004273  p :     0.020558
      px      :     0.008295
      py      :     0.007991

 11 H s       :     0.847915  s :     0.847915
      pz      :     0.009852  p :     0.020768
      px      :     0.003469
      py      :     0.007446


------------------------
MULLIKEN OVERLAP CHARGES
------------------------
B(  0-C ,  1-C ) :   0.6850 B(  0-C ,  2-O ) :  -0.1873 B(  0-C ,  3-N ) :  -0.3231 
B(  0-C ,  5-H ) :   0.7543 B(  0-C ,  6-H ) :   0.7570 B(  0-C ,  7-H ) :   0.8006 
B(  1-C ,  2-O ) :   1.4669 B(  1-C ,  3-N ) :   0.6470 B(  1-C ,  4-C ) :  -0.0671 
B(  1-C ,  5-H ) :  -0.0505 B(  1-C ,  6-H ) :  -0.0553 B(  1-C ,  7-H ) :  -0.0741 
B(  1-C ,  8-H ) :  -0.0629 B(  2-O ,  3-N ) :  -0.2924 B(  3-N ,  4-C ) :   0.5115 
B(  3-N ,  8-H ) :   0.7457 B(  3-N ,  9-H ) :  -0.0893 B(  3-N , 10-H ) :  -0.0664 
B(  3-N , 11-H ) :  -0.0874 B(  4-C ,  8-H ) :  -0.0717 B(  4-C ,  9-H ) :   0.8510 
B(  4-C , 10-H ) :   0.7905 B(  4-C , 11-H ) :   0.8491 B(  5-H ,  6-H ) :  -0.0563 
B(  9-H , 10-H ) :  -0.0555 B(  9-H , 11-H ) :  -0.0722 B( 10-H , 11-H ) :  -0.0551 



                     *******************************
                     * LOEWDIN POPULATION ANALYSIS *
                     *******************************

----------------------
LOEWDIN ATOMIC CHARGES
----------------------
   0 C :   -0.264854
   1 C :   -0.472236
   2 O :    0.054416
   3 N :    0.076110
   4 C :   -0.303179
   5 H :    0.127612
   6 H :    0.126863
   7 H :    0.133361
   8 H :    0.176201
   9 H :    0.116713
  10 H :    0.111967
  11 H :    0.117024

-------------------------------
LOEWDIN REDUCED ORBITAL CHARGES
-------------------------------
  0 C s       :     2.831902  s :     2.831902
      pz      :     1.068784  p :     3.186969
      px      :     1.045862
      py      :     1.072323
      dz2     :     0.034119  d :     0.222980
      dxz     :     0.022069
      dyz     :     0.057973
      dx2y2   :     0.043586
      dxy     :     0.065233
      f0      :     0.001545  f :     0.023003
      f+1     :     0.002984
      f-1     :     0.003876
      f+2     :     0.003363
      f-2     :     0.001565
      f+3     :     0.004946
      f-3     :     0.004724

  1 C s       :     2.752692  s :     2.752692
      pz      :     0.728616  p :     2.688235
      px      :     0.968995
      py      :     0.990624
      dz2     :     0.053074  d :     0.899913
      dxz     :     0.093203
      dyz     :     0.185436
      dx2y2   :     0.221057
      dxy     :     0.347142
      f0      :     0.008302  f :     0.131396
      f+1     :     0.005437
      f-1     :     0.010444
      f+2     :     0.019531
      f-2     :     0.014054
      f+3     :     0.053023
      f-3     :     0.020605

  2 O s       :     3.402200  s :     3.402200
      pz      :     1.346523  p :     4.471421
      px      :     1.644499
      py      :     1.480398
      dz2     :     0.007839  d :     0.066164
      dxz     :     0.000056
      dyz     :     0.014120
      dx2y2   :     0.024929
      dxy     :     0.019220
      f0      :     0.000415  f :     0.005798
      f+1     :     0.000115
      f-1     :     0.000911
      f+2     :     0.000788
      f-2     :     0.000024
      f+3     :     0.001788
      f-3     :     0.001758

  3 N s       :     2.931659  s :     2.931659
      pz      :     1.465874  p :     3.761371
      px      :     1.167197
      py      :     1.128300
      dz2     :     0.014284  d :     0.216394
      dxz     :     0.035828
      dyz     :     0.011852
      dx2y2   :     0.090976
      dxy     :     0.063454
      f0      :     0.001391  f :     0.014465
      f+1     :     0.001840
      f-1     :     0.001679
      f+2     :     0.000465
      f-2     :     0.002186
      f+3     :     0.004535
      f-3     :     0.002370

  4 C s       :     2.836133  s :     2.836133
      pz      :     1.105573  p :     3.097767
      px      :     0.925118
      py      :     1.067076
      dz2     :     0.041989  d :     0.329500
      dxz     :     0.070818
      dyz     :     0.074383
      dx2y2   :     0.053331
      dxy     :     0.088979
      f0      :     0.004714  f :     0.039780
      f+1     :     0.004834
      f-1     :     0.003648
      f+2     :     0.007011
      f-2     :     0.003751
      f+3     :     0.008863
      f-3     :     0.006959

  5 H s       :     0.811081  s :     0.811081
      pz      :     0.028257  p :     0.061307
      px      :     0.012920
      py      :     0.020130

  6 H s       :     0.811859  s :     0.811859
      pz      :     0.027391  p :     0.061278
      px      :     0.012836
      py      :     0.021051

  7 H s       :     0.805136  s :     0.805136
      pz      :     0.012886  p :     0.061503
      px      :     0.025192
      py      :     0.023424

  8 H s       :     0.715659  s :     0.715659
      pz      :     0.036694  p :     0.108140
      px      :     0.016609
      py      :     0.054837

  9 H s       :     0.822627  s :     0.822627
      pz      :     0.029647  p :     0.060660
      px      :     0.010131
      py      :     0.020881

 10 H s       :     0.827883  s :     0.827883
      pz      :     0.013889  p :     0.060150
      px      :     0.021821
      py      :     0.024441

 11 H s       :     0.822283  s :     0.822283
      pz      :     0.029346  p :     0.060692
      px      :     0.010124
      py      :     0.021222


---------------------------------
LOEWDIN BOND ORDERS (THRESH 0.050000)
---------------------------------
B(  0-C ,  1-C ) :   1.2220 B(  0-C ,  2-O ) :   0.1603 B(  0-C ,  3-N ) :   0.1492 
B(  0-C ,  5-H ) :   0.8972 B(  0-C ,  6-H ) :   0.8979 B(  0-C ,  7-H ) :   0.8983 
B(  1-C ,  2-O ) :   2.5861 B(  1-C ,  3-N ) :   1.5868 B(  1-C ,  4-C ) :   0.1856 
B(  1-C ,  5-H ) :   0.0846 B(  1-C ,  6-H ) :   0.0841 B(  1-C ,  7-H ) :   0.0840 
B(  1-C ,  8-H ) :   0.0958 B(  2-O ,  3-N ) :   0.2037 B(  2-O ,  4-C ) :   0.0527 
B(  3-N ,  4-C ) :   1.3232 B(  3-N ,  8-H ) :   0.8801 B(  3-N ,  9-H ) :   0.0566 
B(  3-N , 10-H ) :   0.0647 B(  3-N , 11-H ) :   0.0567 B(  4-C ,  8-H ) :   0.0731 
B(  4-C ,  9-H ) :   0.9239 B(  4-C , 10-H ) :   0.9247 B(  4-C , 11-H ) :   0.9237 


------------------------------------------
LOEWDIN REDUCED ORBITAL POPULATIONS PER MO
-------------------------------------------
THRESHOLD FOR PRINTING IS 0.1%%
                      0         1         2         3         4         5   
                 -19.17106 -14.43482 -10.37077 -10.30353 -10.27672  -1.16412
                   2.00000   2.00000   2.00000   2.00000   2.00000   2.00000
                  --------  --------  --------  --------  --------  --------
 0 C  s               0.0       0.0       0.0       0.0      99.4       1.5
 0 C  px              0.0       0.0       0.1       0.0       0.0       1.7
 0 C  py              0.0       0.0       0.0       0.0       0.0       1.0
 0 C  dz2             0.0       0.0       0.0       0.0       0.0       0.1
 0 C  dxy             0.0       0.0       0.1       0.0       0.0       0.4
 1 C  s               0.0       0.0      98.9       0.0       0.0      21.6
 1 C  px              0.0       0.1       0.0       0.0       0.1       0.8
 1 C  py              0.1       0.0       0.0       0.0       0.0       6.8
 1 C  dz2             0.0       0.0       0.0       0.0       0.0       1.6
 1 C  dx2y2           0.1       0.0       0.0       0.0       0.0       1.7
 1 C  dxy             0.0       0.1       0.0       0.0       0.1       0.1
 1 C  f-1             0.0       0.0       0.0       0.0       0.0       0.1
 1 C  f-3             0.1       0.0       0.0       0.0       0.0       0.8
 2 O  s              99.6       0.0       0.0       0.0       0.0      39.0
 2 O  py              0.0       0.0       0.2       0.0       0.0       5.6
 2 O  dz2             0.0       0.0       0.1       0.0       0.0       0.1
 2 O  dx2y2           0.0       0.0       0.2       0.0       0.0       0.4
 3 N  s               0.0      99.4       0.0       0.0       0.0       7.5
 3 N  px              0.0       0.0       0.1       0.1       0.0       0.9
 3 N  py              0.0       0.0       0.0       0.0       0.0       1.7
 3 N  dz2             0.0       0.0       0.0       0.0       0.0       0.2
 3 N  dxy             0.0       0.0       0.1       0.0       0.0       0.2
 4 C  s               0.0       0.0       0.0      99.5       0.0       1.2
 4 C  px              0.0       0.0       0.0       0.0       0.0       1.7
 4 C  dz2             0.0       0.0       0.0       0.0       0.0       0.1
 4 C  dx2y2           0.0       0.0       0.0       0.0       0.0       0.2
 5 H  s               0.0       0.0       0.0       0.0       0.1       0.2
 6 H  s               0.0       0.0       0.0       0.0       0.1       0.2
 7 H  s               0.0       0.0       0.0       0.0       0.1       0.3
 8 H  s               0.0       0.0       0.0       0.0       0.0       1.2
 8 H  py              0.0       0.1       0.0       0.0       0.0       0.1
 9 H  s               0.0       0.0       0.0       0.1       0.0       0.2
10 H  s               0.0       0.0       0.0       0.1       0.0       0.1
11 H  s               0.0       0.0       0.0       0.1       0.0       0.2

                      6         7         8         9        10        11   
                  -1.05184  -0.88660  -0.81718  -0.70506  -0.62168  -0.58044
                   2.00000   2.00000   2.00000   2.00000   2.00000   2.00000
                  --------  --------  --------  --------  --------  --------
 0 C  s               0.2      26.2      11.4       0.6       1.5       0.1
 0 C  px              0.5       0.7       1.0       1.8      14.7       0.1
 0 C  py              0.2       0.0       0.0       0.1       4.8      16.3
 0 C  dz2             0.0       0.0       0.0       0.0       0.4       0.3
 0 C  dx2y2           0.3       0.1       0.2       0.3       0.2       0.0
 0 C  dxy             0.0       0.1       0.0       0.1       0.6       0.1
 1 C  s               0.7       5.2       0.4       5.1       3.3       1.4
 1 C  px              4.9       7.0       6.5       4.0       7.7       5.3
 1 C  py             14.9       8.1       0.4       2.2       1.5       2.5
 1 C  dz2             0.1       0.1       0.0       0.2       0.1       0.1
 1 C  dx2y2           2.1       0.3       0.4       1.4       0.6       3.3
 1 C  dxy             1.5       0.5       1.5       0.1       0.1       0.2
 1 C  f-1             0.2       0.1       0.0       0.0       0.0       0.0
 2 O  s              11.3       2.1       0.0       4.1       0.6       6.1
 2 O  px              0.2       0.4       0.3       1.3       3.8       4.4
 2 O  py              0.6       0.6       0.0       3.9       1.4      17.5
 2 O  dx2y2           0.0       0.0       0.0       0.1       0.0       0.2
 2 O  dxy             0.0       0.1       0.1       0.1       0.2       0.1
 3 N  s              33.5       0.1       2.5       1.3       1.1       0.1
 3 N  px              0.2      10.7      10.8       7.4       5.7      11.3
 3 N  py              0.0       0.4       1.0      33.7       9.8       1.2
 3 N  dz2             0.2       0.0       0.0       0.0       0.0       0.0
 3 N  dx2y2           0.1       0.0       0.5       0.7       0.1       0.2
 3 N  dxy             0.0       0.2       0.6       0.3       0.1       0.0
 4 C  s               7.9       8.7      21.8       0.9       1.3       0.4
 4 C  px              3.8       0.1       2.0       0.1      17.3       6.5
 4 C  py              1.2       0.1       0.1       6.6       0.1       5.9
 4 C  dz2             0.4       0.0       0.1       0.2       0.1       0.2
 4 C  dx2y2           0.5       0.0       0.2       0.3       0.5       0.1
 4 C  dxy             0.8       0.0       0.1       0.7       0.3       0.2
 4 C  f+3             0.0       0.0       0.0       0.2       0.0       0.0
 4 C  f-3             0.1       0.0       0.0       0.0       0.0       0.0
 5 H  s               0.1       6.6       3.4       0.4       3.0       2.2
 5 H  pz              0.0       0.4       0.2       0.0       0.2       0.2
 5 H  px              0.0       0.0       0.0       0.0       0.1       0.0
 5 H  py              0.0       0.2       0.1       0.0       0.0       0.0
 6 H  s               0.1       6.6       3.4       0.4       3.0       3.6
 6 H  pz              0.0       0.4       0.2       0.0       0.2       0.2
 6 H  px              0.0       0.0       0.0       0.0       0.1       0.0
 6 H  py              0.0       0.2       0.1       0.0       0.0       0.0
 7 H  s               0.0       5.7       4.3       0.8       2.7       2.4
 7 H  px              0.0       0.4       0.2       0.0       0.0       0.2
 7 H  py              0.0       0.2       0.2       0.0       0.3       0.0
 8 H  s               7.7       0.0       1.7      15.8       2.6       0.9
 8 H  px              0.0       0.1       0.1       0.2       0.1       0.2
 8 H  py              1.3       0.0       0.3       0.8       0.1       0.0
 9 H  s               1.0       1.9       6.8       1.6       1.1       1.8
 9 H  pz              0.0       0.1       0.5       0.1       0.1       0.1
 9 H  px              0.0       0.0       0.0       0.0       0.2       0.1
 9 H  py              0.0       0.1       0.2       0.0       0.0       0.0
10 H  s               1.3       2.2       7.8       0.1       6.3       0.2
10 H  px              0.1       0.1       0.3       0.0       0.0       0.1
10 H  py              0.0       0.1       0.5       0.0       0.3       0.1
11 H  s               1.0       1.9       6.8       1.6       1.1       2.6
11 H  pz              0.0       0.1       0.5       0.1       0.1       0.1
11 H  px              0.0       0.0       0.0       0.0       0.2       0.0
11 H  py              0.0       0.1       0.2       0.0       0.0       0.0

                     12        13        14        15        16        17   
                  -0.57987  -0.53540  -0.51999  -0.50670  -0.49748  -0.46280
                   2.00000   2.00000   2.00000   2.00000   2.00000   2.00000
                  --------  --------  --------  --------  --------  --------
 0 C  pz             15.4      26.5       0.0       0.0       0.0      11.3
 0 C  px              0.0       0.0       0.4      20.6       6.9       0.0
 0 C  py              0.1       0.0      17.1       0.6       9.6       0.0
 0 C  dz2             0.0       0.0       0.4       0.1       0.3       0.0
 0 C  dxz             0.2       0.0       0.0       0.0       0.0       0.8
 0 C  dyz             0.1       0.9       0.0       0.0       0.0       1.9
 0 C  dx2y2           0.0       0.0       0.3       0.0       0.6       0.0
 0 C  dxy             0.0       0.0       0.3       0.7       0.8       0.0
 0 C  f+2             0.0       0.1       0.0       0.0       0.0       0.1
 0 C  f+3             0.0       0.0       0.0       0.0       0.1       0.0
 1 C  s               0.0       0.0       0.5       0.4       0.1       0.0
 1 C  pz             18.2       2.2       0.0       0.0       0.0      15.9
 1 C  px              0.0       0.0       2.1       5.5       2.9       0.0
 1 C  py              0.0       0.0       3.2       6.3       3.4       0.0
 1 C  dz2             0.0       0.0       0.2       0.1       0.0       0.0
 1 C  dxz             0.0       1.4       0.0       0.0       0.0       1.0
 1 C  dyz             0.1       0.0       0.0       0.0       0.0       2.5
 1 C  dx2y2           0.0       0.0       0.4       0.1       0.3       0.0
 1 C  dxy             0.0       0.0       0.5       0.3       0.4       0.0
 1 C  f0              0.3       0.0       0.0       0.0       0.0       0.1
 1 C  f+2             0.0       0.0       0.0       0.0       0.0       0.4
 1 C  f-2             0.0       0.2       0.0       0.0       0.0       0.1
 1 C  f+3             0.0       0.0       0.0       0.7       0.2       0.0
 2 O  s               0.0       0.0       1.7       3.6       1.9       0.0
 2 O  pz              8.3       1.1       0.0       0.0       0.0      32.5
 2 O  px              0.0       0.0       1.4       2.5       0.6       0.0
 2 O  py              0.1       0.0      13.0      20.1      10.9       0.0
 2 O  dyz             0.3       0.0       0.0       0.0       0.0       0.4
 2 O  dx2y2           0.0       0.0       0.2       0.1       0.1       0.0
 3 N  s               0.0       0.0       0.2       0.0       0.1       0.0
 3 N  pz             19.2       3.0       0.0       0.0       0.0       4.2
 3 N  px              0.1       0.0       0.1       4.9       3.7       0.0
 3 N  py              0.0       0.0       0.3       4.6       2.1       0.0
 3 N  dxz             0.0       0.8       0.0       0.0       0.0       0.9
 3 N  dyz             0.2       0.0       0.0       0.0       0.0       0.0
 3 N  dx2y2           0.0       0.0       0.2       2.1       0.6       0.0
 3 N  dxy             0.0       0.0       0.7       0.2       0.7       0.0
 3 N  f+3             0.0       0.0       0.1       0.0       0.0       0.0
 4 C  s               0.0       0.0       0.0       0.1       0.0       0.0
 4 C  pz             17.5      26.7       0.0       0.0       0.0       7.8
 4 C  px              0.0       0.0       3.5       4.5       6.2       0.0
 4 C  py              0.0       0.0      20.5       4.8      13.8       0.0
 4 C  dz2             0.0       0.0       0.5       0.1       0.4       0.0
 4 C  dxz             0.3       0.0       0.0       0.0       0.0       0.5
 4 C  dyz             0.1       0.6       0.0       0.0       0.0       0.6
 4 C  dx2y2           0.0       0.0       0.1       0.1       0.3       0.0
 4 C  dxy             0.0       0.0       0.9       0.0       1.3       0.0
 4 C  f+3             0.0       0.0       0.0       0.0       0.1       0.0
 5 H  s               4.8       9.2       2.8       0.0       1.3       5.9
 5 H  pz              0.0       0.0       0.2       0.0       0.1       0.0
 5 H  px              0.0       0.0       0.0       0.3       0.1       0.0
 5 H  py              0.1       0.3       0.0       0.0       0.0       0.1
 6 H  s               3.6       8.6       3.2       0.1       1.6       5.5
 6 H  pz              0.0       0.0       0.2       0.0       0.1       0.0
 6 H  px              0.0       0.0       0.0       0.3       0.1       0.0
 6 H  py              0.2       0.3       0.0       0.0       0.0       0.1
 7 H  s               0.0       0.0       5.6       8.5       9.7       0.0
 7 H  pz              0.2       0.3       0.0       0.0       0.0       0.2
 7 H  px              0.0       0.0       0.2       0.0       0.1       0.0
 7 H  py              0.0       0.0       0.0       0.2       0.1       0.0
 8 H  s               0.0       0.0       0.4       3.7       1.3       0.0
 8 H  pz              0.3       0.0       0.0       0.0       0.0       0.1
 9 H  s               5.0       8.4       3.1       1.3       2.0       3.3
 9 H  pz              0.0       0.0       0.2       0.1       0.1       0.0
 9 H  px              0.0       0.0       0.1       0.0       0.1       0.0
 9 H  py              0.2       0.3       0.0       0.0       0.0       0.1
10 H  s               0.0       0.0      11.2       0.0      11.9       0.0
10 H  pz              0.2       0.3       0.0       0.0       0.0       0.1
10 H  px              0.0       0.0       0.2       0.1       0.1       0.0
11 H  s               4.0       8.2       3.3       1.4       2.2       3.2
11 H  pz              0.0       0.0       0.2       0.1       0.1       0.0
11 H  px              0.0       0.0       0.1       0.0       0.1       0.0
11 H  py              0.2       0.3       0.0       0.0       0.0       0.1

                     18        19        20        21        22        23   
                  -0.35969  -0.35926   0.09647   0.11327   0.13654   0.14560
                   2.00000   2.00000   0.00000   0.00000   0.00000   0.00000
                  --------  --------  --------  --------  --------  --------
 0 C  s               0.0       0.6       4.1       0.0       3.9       2.9
 0 C  pz              0.1       0.0       0.0       0.9       0.0       0.0
 0 C  px              0.3       3.6       0.4       0.0       1.0       2.1
 0 C  py              0.2       3.6       1.5       0.0       0.8       1.1
 0 C  dz2             0.0       0.0       0.1       0.0       0.0       1.0
 0 C  dxz             0.1       0.0       0.0       3.0       0.0       0.0
 0 C  dyz             0.0       0.0       0.0       6.0       0.0       0.0
 0 C  dx2y2           0.0       0.1       0.2       0.0       0.0       0.1
 0 C  dxy             0.0       0.0       0.1       0.0       0.1       0.9
 0 C  f0              0.0       0.0       0.0       0.1       0.0       0.0
 0 C  f+2             0.0       0.0       0.0       0.2       0.0       0.0
 0 C  f-2             0.0       0.0       0.0       0.1       0.0       0.0
 1 C  s               0.0       0.2       1.4       0.0       0.0       4.1
 1 C  pz              0.0       0.0       0.0      35.6       0.0       0.0
 1 C  px              0.1       1.4       0.1       0.0       0.3       0.7
 1 C  py              0.0       0.2       0.6       0.0       0.5       0.4
 1 C  dz2             0.0       0.0       1.2       0.0       0.0       2.4
 1 C  dxz             2.0       0.1       0.0       1.4       0.0       0.0
 1 C  dyz             6.2       0.4       0.0       1.8       0.0       0.0
 1 C  dx2y2           0.0       0.2       0.3       0.0       0.3       0.1
 1 C  dxy             0.8      11.1       0.0       0.0       0.0       0.5
 1 C  f0              0.0       0.0       0.0       0.9       0.0       0.0
 1 C  f+2             0.6       0.0       0.0       0.4       0.0       0.0
 1 C  f-2             0.4       0.0       0.0       0.1       0.0       0.0
 1 C  f+3             0.1       1.4       0.1       0.0       0.1       0.1
 2 O  s               0.0       0.0       0.3       0.0       0.0       0.4
 2 O  pz             23.7       1.7       0.0      19.3       0.0       0.0
 2 O  px              4.5      62.7       0.1       0.0       0.8       0.2
 2 O  py              0.0       0.0       0.2       0.0       0.0       0.1
 2 O  dyz             0.0       0.0       0.0       2.5       0.0       0.0
 2 O  dxy             0.0       0.2       0.0       0.0       0.0       0.1
 2 O  f+2             0.0       0.0       0.0       0.1       0.0       0.0
 3 N  s               0.1       0.7       3.3       0.0       0.2       1.0
 3 N  pz             43.6       3.1       0.0       6.5       0.0       0.0
 3 N  px              0.1       2.1       0.0       0.0       0.1       0.3
 3 N  py              0.1       1.5       3.8       0.0       0.2       2.9
 3 N  dz2             0.0       0.1       0.0       0.0       0.2       1.3
 3 N  dxz             0.1       0.0       0.0       2.3       0.0       0.0
 3 N  dyz             0.3       0.0       0.0       1.3       0.0       0.0
 3 N  dx2y2           0.0       0.0       0.4       0.0       0.4       0.2
 3 N  dxy             0.0       0.0       0.0       0.0       0.3       0.5
 3 N  f-2             0.0       0.0       0.0       0.1       0.0       0.0
 4 C  s               0.0       0.0       1.5       0.0       8.8       2.3
 4 C  pz              2.9       0.2       0.0       0.3       0.0       0.0
 4 C  px              0.0       0.5       1.6       0.0       4.7       0.6
 4 C  py              0.0       0.2       2.0       0.0       0.1       4.5
 4 C  dz2             0.0       0.0       0.1       0.0       0.0       0.5
 4 C  dxz             2.6       0.2       0.0       0.6       0.0       0.0
 4 C  dyz             2.3       0.2       0.0       1.7       0.0       0.0
 4 C  dx2y2           0.0       0.2       0.1       0.0       0.0       0.0
 4 C  dxy             0.0       0.0       1.5       0.0       0.0       1.7
 4 C  f0              0.2       0.0       0.0       0.0       0.0       0.0
 4 C  f-1             0.0       0.0       0.0       0.0       0.1       0.1
 4 C  f+2             0.2       0.0       0.0       0.0       0.0       0.0
 5 H  s               0.1       0.5      10.0       5.5       7.2       8.2
 5 H  pz              0.0       0.0       0.8       0.2       0.7       0.9
 5 H  py              0.0       0.0       0.2       0.4       0.3       0.1
 6 H  s               0.0       0.6      10.3       5.0       7.3       7.5
 6 H  pz              0.0       0.0       0.8       0.1       0.7       0.8
 6 H  py              0.0       0.0       0.3       0.4       0.3       0.1
 7 H  s               0.0       0.2       3.3       0.0       6.4       2.9
 7 H  px              0.0       0.1       0.1       0.0       0.4       0.1
 7 H  py              0.0       0.0       0.4       0.0       0.5       0.1
 8 H  s               0.0       0.4      34.7       0.0       0.2      17.7
 8 H  pz              1.3       0.1       0.0       0.5       0.0       0.0
 8 H  px              0.0       0.1       0.0       0.0       0.2       0.2
 8 H  py              0.0       0.0       3.5       0.0       0.0       2.5
 9 H  s               3.4       0.2       1.4       1.0      12.5      11.0
 9 H  pz              0.0       0.0       0.1       0.0       1.1       1.0
 9 H  px              0.0       0.0       0.1       0.0       0.0       0.2
 9 H  py              0.0       0.0       0.1       0.1       0.5       0.1
10 H  s               0.0       0.0       5.9       0.0      21.7       1.0
10 H  px              0.0       0.0       0.1       0.0       1.1       0.0
10 H  py              0.0       0.0       0.7       0.0       1.6       0.0
11 H  s               3.0       0.5       1.3       1.0      12.5      10.7
11 H  pz              0.0       0.0       0.1       0.0       1.1       1.0
11 H  px              0.0       0.0       0.1       0.0       0.0       0.2
11 H  py              0.0       0.0       0.1       0.1       0.6       0.1

                     24        25        26        27        28        29   
                   0.19111   0.19156   0.19453   0.21664   0.22202   0.23023
                   0.00000   0.00000   0.00000   0.00000   0.00000   0.00000
                  --------  --------  --------  --------  --------  --------
 0 C  s               0.1       0.7       0.3       0.1       0.0       0.9
 0 C  pz              8.6       1.6       0.2       0.0       5.2       0.0
 0 C  px              0.4       4.0       6.0      16.7       0.1      16.8
 0 C  py              0.5       0.9       7.5       0.6       0.0      26.9
 0 C  dz2             0.0       0.0       5.7       0.4       0.0       5.7
 0 C  dxz             0.7       0.1       0.0       0.0       0.9       0.0
 0 C  dyz             2.6       0.5       0.0       0.0       0.1       0.0
 0 C  dx2y2           0.0       0.1       0.1       2.6       0.0       1.2
 0 C  dxy             0.1       0.1       2.8       5.1       0.0       4.4
 1 C  s               0.3       1.6       0.2       1.8       0.0       7.7
 1 C  pz              4.3       0.8       0.1       0.0       4.8       0.0
 1 C  px              0.2       1.3       0.1       2.0       0.0       1.0
 1 C  py              0.0       0.0       0.6       0.9       0.0       2.0
 1 C  dz2             0.2       1.1       0.3       0.8       0.0       0.7
 1 C  dxz             1.1       0.2       0.0       0.0       0.1       0.0
 1 C  dx2y2           0.1       0.1       1.9       0.5       0.0       0.0
 1 C  dxy             0.0       0.0       0.5       0.1       0.0       0.0
 1 C  f0              0.2       0.0       0.0       0.0       0.3       0.0
 1 C  f+3             0.0       0.0       0.1       0.0       0.0       0.0
 2 O  s               0.0       0.1       0.1       0.0       0.0       1.5
 2 O  pz              1.0       0.2       0.0       0.0       1.9       0.0
 2 O  px              0.1       0.3       0.2       0.7       0.0       0.0
 2 O  py              0.0       0.0       0.8       0.1       0.0       0.7
 2 O  dyz             0.1       0.0       0.0       0.0       0.4       0.0
 2 O  dx2y2           0.0       0.0       0.0       0.0       0.0       0.1
 2 O  dxy             0.0       0.0       0.0       0.0       0.0       0.1
 3 N  s               0.5       2.3       0.2       0.6       0.0       0.0
 3 N  pz              1.2       0.2       0.0       0.0       4.4       0.0
 3 N  px              0.1       0.6       0.4       1.6       0.0       0.3
 3 N  py              0.1       0.3       0.1       2.2       0.0       0.9
 3 N  dz2             0.0       0.0       0.2       0.0       0.0       0.1
 3 N  dxz             0.9       0.2       0.0       0.0       0.0       0.0
 3 N  dyz             0.0       0.0       0.0       0.0       0.2       0.0
 3 N  dx2y2           0.1       0.3       0.3       0.2       0.0       0.6
 3 N  dxy             0.0       0.1       0.1       0.0       0.0       0.3
 4 C  s               0.1       0.6       0.0       0.4       0.0       0.0
 4 C  pz              4.4       0.8       0.1       0.0       9.3       0.0
 4 C  px              2.9      14.6       0.9      19.0       0.0       3.5
 4 C  py              1.4       7.1       0.5      11.8       0.0       2.0
 4 C  dz2             1.4       6.5       0.2       0.9       0.0       0.3
 4 C  dxz             0.0       0.0       0.0       0.0       0.6       0.0
 4 C  dyz             2.9       0.6       0.1       0.0       3.6       0.0
 4 C  dx2y2           0.2       0.8       0.2       4.5       0.0       0.1
 4 C  dxy             0.0       0.1       0.1       3.0       0.0       1.7
 5 H  s              11.0       8.7       7.7       0.1       8.3       1.1
 5 H  pz              0.2       0.5       1.0       0.0       0.3       0.2
 5 H  px              0.0       0.0       0.4       0.5       0.0       0.4
 5 H  py              0.8       0.6       0.0       0.0       0.4       0.2
 6 H  s              24.5       0.4       3.5       0.0       8.1       0.9
 6 H  pz              1.0       0.0       0.7       0.0       0.2       0.2
 6 H  px              0.0       0.0       0.3       0.5       0.0       0.4
 6 H  py              1.4       0.0       0.1       0.0       0.4       0.1
 7 H  s               0.1       3.0      47.6       1.0       0.0       1.3
 7 H  pz              0.7       0.1       0.0       0.0       0.2       0.0
 7 H  px              0.0       0.1       3.4       0.1       0.0       0.0
 7 H  py              0.0       0.2       1.3       0.5       0.0       0.6
 8 H  s               0.5       2.6       0.0       4.1       0.0       4.3
 8 H  pz              0.0       0.0       0.0       0.0       0.1       0.0
 8 H  px              0.0       0.0       0.1       0.1       0.0       0.0
 8 H  py              0.1       0.4       0.0       0.3       0.0       0.3
 9 H  s              12.8       0.5       0.3       2.0      22.4       1.4
 9 H  pz              0.9       0.4       0.1       0.0       0.8       0.2
 9 H  px              0.0       0.0       0.0       0.8       0.0       0.3
 9 H  py              0.4       0.4       0.0       0.0       1.4       0.0
10 H  s               3.3      19.8       0.1       9.2       0.0       4.7
10 H  pz              0.3       0.1       0.0       0.0       0.9       0.0
10 H  px              0.4       2.1       0.0       0.0       0.0       0.4
10 H  py              0.0       0.2       0.1       1.4       0.0       0.3
11 H  s               3.5       9.3       1.8       1.4      21.6       1.9
11 H  pz              0.0       1.2       0.2       0.0       0.7       0.2
11 H  px              0.0       0.0       0.0       0.8       0.0       0.3
11 H  py              0.7       0.0       0.0       0.0       1.5       0.0

                     30        31        32        33        34        35   
                   0.27816   0.28404   0.29020   0.31595   0.34306   0.35721
                   0.00000   0.00000   0.00000   0.00000   0.00000   0.00000
                  --------  --------  --------  --------  --------  --------
 0 C  s               1.6       0.0       0.1       0.0       1.6       1.5
 0 C  pz              0.0      10.3       0.0      45.1       0.0       0.0
 0 C  px              0.7       0.0       8.5       0.0       1.5       6.8
 0 C  py              2.9       0.0      15.3       0.1       0.2      14.4
 0 C  dz2             1.6       0.0       1.4       0.0       0.1       4.8
 0 C  dxz             0.0       0.9       0.0       2.9       0.0       0.0
 0 C  dyz             0.0       2.7       0.0       6.2       0.0       0.0
 0 C  dx2y2           0.8       0.0       3.0       0.0       5.2       0.2
 0 C  dxy             3.0       0.0       3.1       0.0       0.3       0.1
 0 C  f+1             0.0       0.0       0.0       0.0       0.0       0.1
 0 C  f-2             0.0       0.0       0.0       0.1       0.0       0.0
 1 C  s               7.3       0.1       8.7       0.0       4.4      14.3
 1 C  pz              0.0       9.8       0.0       8.6       0.1       0.0
 1 C  px              0.7       0.0       1.0       0.0       7.4       2.9
 1 C  py             32.3       0.0       1.4       0.0      15.3       0.2
 1 C  dz2             2.1       0.1       6.5       0.0       2.2       4.6
 1 C  dxz             0.0       0.8       0.0       0.4       0.0       0.0
 1 C  dyz             0.0       0.2       0.0       0.0       0.0       0.0
 1 C  dx2y2           2.0       0.0       0.2       0.0       2.6       0.2
 1 C  dxy             0.1       0.0       0.5       0.0       0.1       0.0
 1 C  f-1             0.2       0.0       0.0       0.0       0.2       0.0
 1 C  f-2             0.0       0.0       0.0       0.2       0.0       0.0
 1 C  f+3             0.0       0.0       0.2       0.0       0.1       0.1
 1 C  f-3             0.3       0.0       0.0       0.0       0.1       0.1
 2 O  s               5.8       0.0       0.0       0.0       0.5       0.2
 2 O  pz              0.0       0.4       0.0       1.3       0.0       0.0
 2 O  px              0.1       0.0       0.1       0.0       6.1       1.6
 2 O  py              5.7       0.0       1.1       0.0       1.4       0.1
 2 O  dz2             0.0       0.0       0.0       0.0       0.1       0.6
 2 O  dxz             0.0       0.0       0.0       0.2       0.0       0.0
 2 O  dyz             0.0       0.1       0.0       0.3       0.0       0.0
 2 O  dx2y2           0.1       0.0       0.3       0.0       0.1       0.0
[...]
 3 N  dyz             0.0       0.5       0.0       0.0       0.1       0.0
 3 N  dx2y2          65.2       0.0       3.4       0.3       0.0       0.0
 3 N  dxy             0.8       0.0       7.5      12.2       0.0       0.0
 3 N  f0              0.0       0.9       0.0       0.0       0.0       0.0
 3 N  f-1             1.0       0.0       1.0       1.8       0.0       0.0
 3 N  f+2             0.0       3.1       0.0       0.0       0.4       0.0
 3 N  f-2             0.0       2.1       0.0       0.0       0.6       0.0
 3 N  f+3             0.5       0.0       2.7       0.9       0.0       0.4
 3 N  f-3             1.1       0.0      30.5      15.5       0.0       1.0
 4 C  s               0.5       0.0       1.2       0.4       0.0       0.0
 4 C  px              0.3       0.0       0.7       0.4       0.0       0.0
 4 C  py              1.1       0.0       0.2       0.1       0.0       0.0
 4 C  dz2             0.1       0.0       0.8       0.2       0.0       0.0
 4 C  dx2y2           0.2       0.0       1.2       0.4       0.0       0.1
 4 C  dxy             0.2       0.0       1.3       0.3       0.0       0.0
 4 C  f+1             0.4       0.0       0.1       0.3       0.0       0.0
 4 C  f-1             0.6       0.0       0.1       0.1       0.0       0.0
 4 C  f-2             0.0       0.1       0.0       0.0       0.0       0.0
 4 C  f+3             0.0       0.0       0.3       0.1       0.0       0.0
 4 C  f-3             1.0       0.0       1.0       0.0       0.0       0.0
 8 H  s               0.4       0.0       7.9       3.9       0.0       0.0
 8 H  py              0.6       0.0       0.7       0.6       0.0       0.0
 9 H  s               0.2       0.0       0.0       0.0       0.0       0.0
10 H  s               0.1       0.0       0.1       0.0       0.0       0.0
11 H  s               0.2       0.0       0.0       0.0       0.0       0.0

                    186       187       188       189       190       191   
                   6.51965   6.65979   6.81682   6.94332   7.18853   7.20071
                   0.00000   0.00000   0.00000   0.00000   0.00000   0.00000
                  --------  --------  --------  --------  --------  --------
 0 C  s               0.0       0.2       0.3       0.0       0.0       0.1
 0 C  pz              0.1       0.0       0.0       0.0       0.0       0.0
 0 C  px              0.0       0.0       0.1       0.0       0.1       0.0
 0 C  py              0.0       0.3       0.0       0.0       0.0       0.0
 0 C  dx2y2           0.0       0.1       0.6       0.0       0.1       0.0
 0 C  dxy             0.0       0.1       0.2       0.0       0.1       0.0
 0 C  f+3             0.0       0.3       0.6       0.0       0.0       0.0
 1 C  s               0.0       0.4       0.3       0.0       0.5       3.2
 1 C  pz              0.0       0.0       0.0       1.4       0.0       0.0
 1 C  px              0.0       0.2       0.1       0.0       1.4       0.4
 1 C  py              0.0       0.3       0.1       0.0       0.2       1.8
 1 C  dz2             0.0       0.2       0.0       0.0       0.0       0.2
 1 C  dxz             0.6       0.0       0.0       0.0       0.0       0.0
 1 C  dyz             0.0       0.0       0.0       2.5       0.0       0.0
 1 C  dx2y2           0.0       1.1       0.9       0.0       0.0       0.3
 1 C  dxy             0.0       0.7       3.7       0.0       3.9       0.3
 1 C  f0              0.0       0.0       0.0       0.1       0.0       0.0
 1 C  f+1             0.0       0.1       0.2       0.0       0.1       0.0
 1 C  f-1             0.0       0.0       0.1       0.0       0.0       0.4
 1 C  f+2             0.1       0.0       0.0       0.2       0.0       0.0
 1 C  f-2             0.1       0.0       0.0       0.0       0.0       0.0
 1 C  f+3             0.0       1.8      15.0       0.0       1.1       0.1
 1 C  f-3             0.0       0.1       0.2       0.0       0.0       2.1
 2 O  s               0.0       0.1       0.2       0.0       0.2       1.7
 2 O  pz              0.0       0.0       0.0       1.9       0.0       0.0
 2 O  px              0.0       0.2       1.5       0.0       3.3       0.3
 2 O  py              0.0       0.0       0.1       0.0       0.2       2.7
 2 O  dz2             0.0      55.9       9.5       0.0       2.2      16.1
 2 O  dxz            94.4       0.0       0.0       0.2       0.0       0.0
 2 O  dyz             0.6       0.0       0.0      73.1       0.0       0.0
 2 O  dx2y2           0.0      25.2       0.3       0.0       2.2      52.4
 2 O  dxy             0.0       2.2      29.4       0.0      58.0       2.4
 2 O  f0              0.1       0.0       0.0       7.4       0.0       0.0
 2 O  f+1             0.0       0.3       1.1       0.0       1.3       0.1
 2 O  f-1             0.0       3.2       0.2       0.0       0.5       5.3
 2 O  f+2             0.1       0.0       0.0      12.7       0.0       0.0
 2 O  f-2             3.0       0.0       0.0       0.1       0.0       0.0
 2 O  f+3             0.0       3.9      21.1       0.0      21.8       1.7
 2 O  f-3             0.0       0.2       3.3       0.0       0.0       7.2
 3 N  s               0.0       0.3       0.6       0.0       0.6       0.1
 3 N  pz              0.1       0.0       0.0       0.0       0.0       0.0
 3 N  px              0.0       0.3       0.1       0.0       0.1       0.0
 3 N  py              0.0       0.4       0.8       0.0       0.0       0.1
 3 N  dxz             0.1       0.0       0.0       0.1       0.0       0.0
 3 N  dyz             0.4       0.0       0.0       0.1       0.0       0.0
 3 N  dx2y2           0.0       0.6       1.3       0.0       0.7       0.0
 3 N  dxy             0.0       0.0       0.7       0.0       0.1       0.2
 3 N  f+3             0.0       0.4       6.2       0.0       0.2       0.1
 3 N  f-3             0.0       0.1       0.2       0.0       0.4       0.2
 4 C  px              0.0       0.1       0.0       0.0       0.0       0.0
 7 H  s               0.0       0.0       0.1       0.0       0.0       0.0
 8 H  s               0.0       0.1       0.2       0.0       0.0       0.1

                    192       193       194       195       196   
                  22.41442  22.46597  23.39595  32.41686  43.95512
                   0.00000   0.00000   0.00000   0.00000   0.00000
                  --------  --------  --------  --------  --------
 0 C  s              96.8       1.8       0.0       0.0       0.0
 1 C  s               0.0       0.3      95.8       0.0       0.0
 1 C  px              0.1       0.0       0.3       0.0       0.0
 1 C  py              0.0       0.0       0.1       0.0       0.0
 1 C  dz2             0.0       0.0       0.1       0.0       0.0
 2 O  s               0.0       0.0       0.9       0.0      99.9
 2 O  py              0.0       0.0       0.6       0.0       0.0
 3 N  s               0.1       0.2       0.5      99.6       0.0
 3 N  px              0.0       0.2       0.4       0.0       0.0
 3 N  py              0.0       0.0       0.2       0.1       0.0
 3 N  dxy             0.0       0.1       0.2       0.0       0.0
 4 C  s               1.7      96.1       0.3       0.1       0.0
 5 H  s               0.2       0.0       0.0       0.0       0.0
 6 H  s               0.2       0.0       0.0       0.0       0.0
 7 H  s               0.2       0.0       0.0       0.0       0.0
 9 H  s               0.0       0.2       0.0       0.0       0.0
10 H  s               0.0       0.2       0.0       0.0       0.0
11 H  s               0.0       0.2       0.0       0.0       0.0


                      *****************************
                      * MAYER POPULATION ANALYSIS *
                      *****************************

  NA   - Mulliken gross atomic population
  ZA   - Total nuclear charge
  QA   - Mulliken gross atomic charge
  VA   - Mayer's total valence
  BVA  - Mayer's bonded valence
  FA   - Mayer's free valence

  ATOM       NA         ZA         QA         VA         BVA        FA
  0 C      6.3747     6.0000    -0.3747     3.8072     3.8072     0.0000
  1 C      5.6982     6.0000     0.3018     4.2208     4.2208     0.0000
  2 O      8.3842     8.0000    -0.3842     2.1409     2.1409     0.0000
  3 N      7.3104     7.0000    -0.3104     3.0187     3.0187    -0.0000
  4 C      6.2220     6.0000    -0.2220     3.9148     3.9148     0.0000
  5 H      0.8743     1.0000     0.1257     0.9725     0.9725     0.0000
  6 H      0.8753     1.0000     0.1247     0.9728     0.9728     0.0000
  7 H      0.8583     1.0000     0.1417     0.9968     0.9968    -0.0000
  8 H      0.7779     1.0000     0.2221     0.9514     0.9514    -0.0000
  9 H      0.8693     1.0000     0.1307     0.9680     0.9680     0.0000
 10 H      0.8868     1.0000     0.1132     0.9650     0.9650     0.0000
 11 H      0.8687     1.0000     0.1313     0.9681     0.9681     0.0000

  Mayer bond orders larger than 0.100000
B(  0-C ,  1-C ) :   0.9608 B(  0-C ,  5-H ) :   0.9602 B(  0-C ,  6-H ) :   0.9618 
B(  0-C ,  7-H ) :   0.9845 B(  1-C ,  2-O ) :   2.0569 B(  1-C ,  3-N ) :   1.2003 
B(  3-N ,  4-C ) :   0.9321 B(  3-N ,  8-H ) :   0.9273 B(  4-C ,  9-H ) :   0.9790 
B(  4-C , 10-H ) :   0.9699 B(  4-C , 11-H ) :   0.9786 

-------
TIMINGS
-------

Total SCF time: 0 days 0 hours 0 min 35 sec 

Total time                  ....      35.543 sec
Sum of individual times     ....      34.708 sec  ( 97.6%)

SCF preparation             ....       0.047 sec  (  0.1%)
Fock matrix formation       ....      34.432 sec  ( 96.9%)
  Startup                   ....       0.002 sec  (  0.0% of F)
  Split-RI-J                ....       1.208 sec  (  3.5% of F)
  Chain of spheres X        ....      29.933 sec  ( 86.9% of F)
  XC integration            ....       4.089 sec  ( 11.9% of F)
    Basis function eval.    ....       1.103 sec  ( 27.0% of XC)
    Density eval.           ....       0.798 sec  ( 19.5% of XC)
    XC-Functional eval.     ....       1.106 sec  ( 27.0% of XC)
    XC-Potential eval.      ....       1.007 sec  ( 24.6% of XC)
Diagonalization             ....       0.000 sec  (  0.0%)
Density matrix formation    ....       0.008 sec  (  0.0%)
Total Energy calculation    ....       0.002 sec  (  0.0%)
Population analysis         ....       0.082 sec  (  0.2%)
Orbital Transformation      ....       0.019 sec  (  0.1%)
Orbital Orthonormalization  ....       0.000 sec  (  0.0%)
DIIS solution               ....       0.037 sec  (  0.1%)
  MO trafo                  ....       0.000 sec  (  0.0 % of DIIS)
  Orb grad                  ....       0.000 sec  (  0.0 % of DIIS)
  Energy W gradient         ....       0.000 sec  (  0.0 % of DIIS)
  DIIS error                ....       0.004 sec  ( 10.0 % of DIIS)
  DIIS work                 ....       0.024 sec  ( 64.1 % of DIIS)
  Form Q                    ....       0.000 sec  (  0.0 % of DIIS)
  Form QpQm                 ....       0.000 sec  (  0.0 % of DIIS)
  Exp/Cayley                ....       0.000 sec  (  0.0 % of DIIS)
  Orb update                ....       0.000 sec  (  0.0 % of DIIS)
  Wake-sleep                ....       0.000 sec  (  0.9 % of DIIS)
SOSCF solution              ....       0.018 sec  (  0.0%)
  MO trafo                  ....       0.009 sec  ( 52.2 % of SOSCF)
  Orb grad                  ....       0.000 sec  (  0.9 % of SOSCF)
  Rot update                ....       0.001 sec  (  4.2 % of SOSCF)
  Step                      ....       0.008 sec  ( 42.5 % of SOSCF)
Grid generation             ....       0.063 sec  (  0.2%)
Finished LeanSCF after  35.5 sec

Maximum memory used throughout the entire LEANSCF-calculation: 22.3 MB
------------------   -----------------
gCP correction             0.007798257
------------------   -----------------

-------------------------   --------------------
FINAL SINGLE POINT ENERGY      -248.538249176720
-------------------------   --------------------


------------------------------------------------------------------------------
                              ORCA PROPERTY CALCULATIONS
------------------------------------------------------------------------------

GBWName                                 ... sp.gbw
Number of atoms                         ...     12
Number of basis functions               ...    197
Max core memory                         ...   1024 MB

Electric properties:
Dipole moment                           ... YES
Quadrupole moment                       ...  NO
Static polarizability (Dipole/Dipole)   ...  NO
Static polarizability (Dipole/Quad.)    ...  NO
Static polarizability (Quad./Quad.)     ...  NO
Static polarizability (Velocity)        ...  NO

Atomic electric properties:
Dipole moment                           ...  NO
Quadrupole moment                       ...  NO
Static polarizability                   ...  NO

Choice of electric origin               ... Center of mass
Position of electric origin             ...     0.001645     0.008891    -0.000181

General magnetic properties:
Magnetizability                         ...  NO

EPR properties:
g-Tensor (aka g-matrix)                 ...  NO
Zero-Field splitting spin-orbit         ...  NO
Zero-field splitting spin-spin          ...  NO
Hyperfine couplings                     ...  NO (   0 nuclei)
Quadrupole couplings                    ...  NO (   0 nuclei)
Contact density                         ...  NO (   0 nuclei)

NMR properties:
Chemical shifts                         ...  NO (   0 nuclei)
Spin-rotation constants                 ...  NO (   0 nuclei)
Spin-spin couplings                     ...  NO (   0 nuclei,    0 pairs)

Choice of magnetic origin               ... GIAO
Position of magnetic origin             ...     0.000000     0.000000     0.000000

Properties with geometric perturbations:
SCF Hessian                             ...  NO
IR spectrum                             ...  NO
VCD spectrum                            ...  NO
X-ray spectroscopy properties:
SCF XES/XAS/RIXS spectra                ...  NO


-------------
DIPOLE MOMENT
-------------

Method             : SCF
Type of density    : Electron Density
Multiplicity       :   1
Irrep              :   0
Energy             :  -248.5460474337197070 Eh
Relativity type    : 
Basis              : AO
                                X                 Y                 Z
Electronic contribution:     -0.790048407      -2.201332879      -0.009783478
Nuclear contribution   :      1.107851768       3.728685434       0.013077749
                        -----------------------------------------
Total Dipole Moment    :      0.317803361       1.527352555       0.003294271
                        -----------------------------------------
Magnitude (a.u.)       :      1.560069119
Magnitude (Debye)      :      3.965380566



--------------------
Rotational spectrum 
--------------------
 
Rotational constants in cm-1:             0.332667             0.129508             0.096593 
Rotational constants in MHz :          9973.099627          3882.562241          2895.789603 

Dipole components along the rotational axes: 
x,y,z [a.u.] :     0.292723     1.532356     0.003915 
x,y,z [Debye]:     0.744043     3.894938     0.009951 

 

Dipole moment calculation done in   0.0 sec 

Maximum memory used throughout the entire PROP-calculation: 13.4 MB

--------------------------------
SUGGESTED CITATIONS FOR THIS RUN
--------------------------------

Below you find a list of papers that are relevant to this ORCA run
We neither can nor want to force you to cite these papers, but we appreciate if you do
You receive ORCA, which is the product of decades of hard work by many enthusiastic individuals, for free
The only thing we kindly ask in return is that you cite our papers,
We deeply appreciate it, if you show your appreciation for ORCA by not just citing the generic ORCA reference.

Please note that relegating all ORCA citations to the supporting information does *not* help us.
SI sections are not indexed - citations you put there will not count into any citation statistics
But we need these citations in order to attract the funding resources that allow us to do what we are doing

Therefore, if you are a happy ORCA user, please consider citing a few of the papers listed below in the main body of your paper

In addition to the list printed below, the program has created the file sp.bibtex that contains the list in bibtex format
You can import this file easily into all common literature databanks and citation aid programs


List of essential papers. We consider these as the minimum necessary citations

  1. Neese,F.
     Software update: the ORCA program system, version 5.0
     WIRES Comput. Molec. Sci., 2022 12(1)e1606
     doi.org/10.1002/wcms.1606

List of papers to cite with high priority. The work reported in these papers was absolutely
necessary for this run to complete.
Our perspective: the developers of density functionals and basis sets usually get cited in chemistry papers
Good! But without the algorithms to do something with them, the functionals or basis sets would not do anything.
Hence, in our opinion, the algorithm design and method developments papers are equally worthy of getting cited

  1. Neese,F.
     An improvement of the resolution of the identity approximation for the formation of the Coulomb matrix
     J. Comp. Chem., 2003 24(14)1740-1747
     doi.org/10.1002/jcc.10318
  2. Neese,F.; Wennmohs,F.; Hansen,A.; Becker,U.
     Efficient, approximate and parallel Hartree-Fock and hybrid DFT calculations. A 'chain-of-spheres' algorithm for the Hartree-Fock exchange
     Chem. Phys., 2009 356(1-3)98-109
     doi.org/10.1016/j.chemphys.2008.10.036
  3. Helmich-Paris,B.; de Souza,B.; Neese,F.; Izsák,R.
     An improved chain of spheres for exchange algorithm
     J. Chem. Phys., 2021 155 104109
     doi.org/doi: 10.1063/5.0058766.
  4. Neese,F.
     The SHARK Integral Generation and Digestion System
     J. Comp. Chem., 2022  1-16
     doi.org/10.1002/jcc.26942

List of suggested additional citations. These are papers that are important in the 'surrounding' of 
of this run, or papers that preceded the highly important papers. If you like your results we are grateful for a citation.

  1. Izsak,R.; Neese,F.
     An overlap fitted chain of spheres exchange method
     J. Chem. Phys., 2011 135 144105
     doi.org/10.1063/1.3646921
  2. Izsak,R.; Hansen,A.; Neese,F.
     The resolution of identity and chain of spheres approximations for the LPNO-CCSD singles Fock term
     Molec. Phys., 2012 110 2413-2417
     doi.org/10.1080/00268976.2012.687466
  3. Neese,F.
     The ORCA program system
     WIRES Comput. Molec. Sci., 2012 2(1)73-78
     doi.org/10.1002/wcms.81
  4. Izsak,R.; Neese,F.; Klopper,W.
     Robust fitting techniques in the chain of spheres approximation to the Fock exchange: The role of the complementary space
     J. Chem. Phys., 2013 139 
     doi.org/10.1063/1.4819264
  5. Neese,F.
     Software update: the ORCA program system, version 4.0
     WIRES Comput. Molec. Sci., 2018 8(1)1-6
     doi.org/10.1002/wcms.1327
  6. Neese,F.; Wennmohs,F.; Becker,U.; Riplinger,C.
     The ORCA quantum chemistry program package
     J. Chem. Phys., 2020 152 Art. No. L224108
     doi.org/10.1063/5.0004608

List of optional additional citations

  1. Neese,F.
     Approximate second-order SCF convergence for spin unrestricted wavefunctions
     Chem. Phys. Lett., 2000 325(1-3)93-98
     doi.org/10.1016/s0009-2614(00)00662-x

Timings for individual modules:

Sum of individual times          ...       36.295 sec (=   0.605 min)
Startup calculation              ...        0.643 sec (=   0.011 min)   1.8 %
SCF iterations                   ...       35.616 sec (=   0.594 min)  98.1 %
Property calculations            ...        0.037 sec (=   0.001 min)   0.1 %
                             ****ORCA TERMINATED NORMALLY****
TOTAL RUN TIME: 0 days 0 hours 0 minutes 36 seconds 345 msec
