
                                 *****************
                                 * O   R   C   A *
                                 *****************

                                            #,                                       
                                            ###                                      
                                            ####                                     
                                            #####                                    
                                            ######                                   
                                           ########,                                 
                                     ,,################,,,,,                         
                               ,,#################################,,                 
                          ,,##########################################,,             
                       ,#########################################, ''#####,          
                    ,#############################################,,   '####,        
                  ,##################################################,,,,####,       
                ,###########''''           ''''###############################       
              ,#####''   ,,,,##########,,,,          '''####'''          '####       
            ,##' ,,,,###########################,,,                        '##       
           ' ,,###''''                  '''############,,,                           
         ,,##''                                '''############,,,,        ,,,,,,###''
      ,#''                                            '''#######################'''  
     '                                                          ''''####''''         
             ,#######,   #######,   ,#######,      ##                                
            ,#'     '#,  ##    ##  ,#'     '#,    #''#        ,####,   ,####,        
            ##       ##  ##   ,#'  ##            #'  '#       #'       #'  '#        
            ##       ##  #######   ##           ,######,      #####,   #    #        
            '#,     ,#'  ##    ##  '#,     ,#' ,#      #,     #,   #   #,  ,#        
             '#######'   ##     ##  '#######'  #'      '#     '####' # '####'        



                #########################################################
                #                        -***-                          #
                #          Department of theory and spectroscopy        #
                #                                                       #
                #                      Frank Neese                      #
                #                                                       #
                #     Directorship, Architecture, Infrastructure        #
                #                    SHARK, DRIVERS                     #
                #        Core code/Algorithms in most modules           #
                #                                                       #
                #        Max Planck Institute fuer Kohlenforschung      #
                #                Kaiser Wilhelm Platz 1                 #
                #                 D-45470 Muelheim/Ruhr                 #
                #                      Germany                          #
                #                                                       #
                #                  All rights reserved                  #
                #                        -***-                          #
                #########################################################


                         Program Version 6.0.1  -  RELEASE   -


 With contributions from (in alphabetic order):
[Max-Planck-Institut fuer Kohlenforschung]                               
  Daniel Aravena         : Magnetic Suceptibility                        
  Michael Atanasov       : Ab Initio Ligand Field Theory (pilot matlab implementation)
  Alexander A. Auer      : GIAO ZORA, VPT2 properties, NMR spectrum      
  Ute Becker             : All parallelization in ORCA, NUMFREQ, NUMCALC 
  Giovanni Bistoni       : ED, misc. LED, open-shell LED, HFLD           
  Martin Brehm           : Molecular dynamics                            
  Dmytro Bykov           : pre 5.0 version of the SCF Hessian            
  Marcos Casanova-Páez   : Triplet and SCS-CIS(D). UHF-(DLPNO)-IP/EA/STEOM-CCSD. UHF-CVS-IP/STEOM-CCSD   
  Vijay G. Chilkuri      : MRCI spin determinant printing, contributions to CSF-ICE 
  Pauline Colinet        : FMM embedding                                 
  Dipayan Datta          : RHF DLPNO-CCSD density                        
  Achintya Kumar Dutta   : EOM-CC, STEOM-CC                              
  Nicolas Foglia         : Exact transition moments, OPA infrastructure, MCD improvements    
  Dmitry Ganyushin       : Spin-Orbit,Spin-Spin,Magnetic field MRCI      
  Miquel Garcia-Rates    : C-PCM and meta-GGA Hessian, CCSD/C-PCM, Gaussian charge scheme 
  Tiago L. C. Gouveia    : GS-ROHF, GS-ROCIS                             
  Yang Guo               : DLPNO-NEVPT2, F12-NEVPT2, CIM, IAO-localization        
  Andreas Hansen         : Spin unrestricted coupled pair/coupled cluster methods 
  Ingolf Harden          : AUTO-CI MPn and infrastructure                
  Benjamin Helmich-Paris : MC-RPA, TRAH-(SCF,CASSCF), AVAS, COSX integrals, SCF dyn. polar. 
  Lee Huntington         : MR-EOM, pCC                                   
  Robert Izsak           : Overlap fitted RIJCOSX, COSX-SCS-MP3, EOM     
  Riya Kayal             : Wick's Theorem for AUTO-CI, AUTO-CI UHF-CCSDT 
  Emily Kempfer          : AUTO-CI, RHF CISDT and CCSDT                  
  Christian Kollmar      : KDIIS, OOCD, Brueckner-CCSD(T), CCSD density, CASPT2, CASPT2-K, improved NEVPT2 
  Axel Koslowski         : Symmetry handling                             
  Simone Kossmann        : meta-GGA functionals, TD-DFT gradient, OOMP2, (MP2 Hessian; deprecated post 5.0) 
  Lucas Lang             : DCDCAS                                        
  Marvin Lechner         : AUTO-CI (C++ implementation), FIC-MRCC        
  Spencer Leger          : CASSCF response                               
  Dagmar Lenk            : GEPOL surface, SMD, ORCA-2-JSON               
  Dimitrios Liakos       : Extrapolation schemes; Compound Job, initial MDCI parallelization 
  Dimitrios Manganas     : Further ROCIS development; embedding schemes. LFT, Crystal Embedding 
  Dimitrios Pantazis     : SARC Basis sets                               
  Anastasios Papadopoulos: AUTO-CI, single reference methods and gradients 
  Taras Petrenko         : pre 6.0 DFT Hessian and TD-DFT gradient, (ASA, deprecated), ECA, 1-Electron XAS/XES, NRVS 
  Peter Pinski           : DLPNO-MP2, DLPNO-MP2 Gradient                 
  Christoph Reimann      : Effective Core Potentials                     
  Marius Retegan         : Local ZFS, SOC                                
  Christoph Riplinger    : Optimizer, TS searches, QM/MM, DLPNO-CCSD(T), (RO)-DLPNO pert. Triples 
  Michael Roemelt        : Original ROCIS implementation                 
  Masaaki Saitow         : Open-shell DLPNO-CCSD energy and density      
  Barbara Sandhoefer     : DKH picture change effects                    
  Kantharuban Sivalingam : CASSCF convergence/infrastructure, NEVPT2 and variants, FIC-MRCI 
  Bernardo de Souza      : ESD, SOC TD-DFT                               
  Georgi L. Stoychev     : AutoAux, RI-MP2 NMR, DLPNO-MP2 response, X2C  
  Van Anh Tran           : RI-MP2 g-tensors                              
  Willem Van den Heuvel  : Paramagnetic NMR                              
  Zikuan Wang            : NOTCH, Electric field optimization            
  Frank Wennmohs         : Technical directorship and infrastructure     
  Hang Xu                : AUTO-CI-Response properties                   
                                                                         
[FACCTs GmbH]                                                            
  Markus Bursch, Miquel Garcia-Rates, Christoph Riplinger, Bernardo de Souza, Georgi L. Stoychev 
                                                                 
  APM, Basis sets (HGBS, AHGBS, def-TZVP (Ac-Lr), def2-XVPD (La-Lu)), CI-OPT, improved COSX, DLPNO-Multilevel,           
  DOCKER, DRACO, updates on ESD, GOAT, IRC, LR-CPCM, MBIS, meta-GGA TD-DFT gradient, ML-optimized integration grids, 
  MM, NACMEs, nearIR, NEB, NEB-TS, NL-DFT gradient (VV10), 2- and 3-layer-ONIOM, interface openCOSMO-RS, QMMM,   
  Crystal-QMMM, SF, symmetry and pop. for TD-DFT, r2SCAN hybrids, SOLVATOR                                   
                                                                         
[Other institutions]                                                     
  V. Asgeirsson          : NEB                                           
  Christoph Bannwarth    : sTDA-DFT, sTD-DFT, PBEh-3c, B97-3c, D3        
  Sebastian Ehlert       : rSCAN, r2SCAN, r2SCAN-3c, D4, dhf basis sets  
  Marvin Friede          : D4 for Fr, Ra, Ac-Lr                          
  Lars Goerigk           : TD-DFT with DH, B97 family of functionals     
  Stefan Grimme          : VdW corrections, initial TS optimization, DFT functionals, gCP, sTDA/sTD-DF 
  Waldemar Hujo          : DFT-NL                                        
  H. Jonsson             : NEB                                           
  Holger Kruse           : gCP                                           
  Marcel Mueller         : wB97X-3c, vDZP basis set                      
  Hagen Neugebauer       : wr2SCAN                                       
  Tobias Risthaus        : range-separated hybrid DFT                    
  Lukas Wittmann         : regularized MP2, r2SCAN double-hybrids, wr2SCAN        
                                                                         
We gratefully acknowledge several colleagues who have allowed us to      
interface, adapt or use parts of their codes:                            
  Ed Valeev, F. Pavosevic, A. Kumar             : LibInt (2-el integral package), F12 methods 
  Garnet Chan, S. Sharma, J. Yang, R. Olivares  : DMRG                   
  Ulf Ekstrom                                   : XCFun DFT Library      
  Mihaly Kallay                                 : mrcc  (arbitrary order and MRCC methods)
  Frank Weinhold                                : gennbo (NPA and NBO analysis)           
  Simon Mueller                                 : openCOSMO-RS                            
  Christopher J. Cramer and Donald G. Truhlar   : smd solvation model                     
  S Lehtola, MJT Oliveira, MAL Marques          : LibXC Library                           
  Liviu Ungur et al                             : ANISO software                          


 Your calculation uses the libint2 library for the computation of 2-el integrals
 For citations please refer to: http://libint.valeyev.net

 Your ORCA version has been built with support for libXC version: 6.2.2
 For citations please refer to: https://libxc.gitlab.io

 This ORCA versions uses:
   CBLAS   interface :  Fast vector & matrix operations
   LAPACKE interface :  Fast linear algebra routines
   SCALAPACK package :  Parallel linear algebra routines
   Shared memory     :  Shared parallel matrices
   BLAS/LAPACK       :  OpenBLAS 0.3.27  USE64BITINT DYNAMIC_ARCH NO_AFFINITY Zen SINGLE_THREADED
        Core in use  :  Zen
   Copyright (c) 2011-2014, The OpenBLAS Project


Your calculation utilizes the geometrical counterpoise correction gCP
Please cite in your paper:
H.Kruse, S. Grimme J.Chem.Phys., 136, (2012), 154101 
   

Your calculation utilizes the DFT-NL dispersion correction.
Cite in your paper:
Vydrov, O. A.; Van Voorhis, T. J. Chem. Phys. 2010, 133, 244103
Hujo, W.; Grimme, S. J. Chem. Theory Comput. 2011, 7, 3866 
   

================================================================================

----- Orbital basis set information -----
Your calculation utilizes the basis: def2-TZVP
   F. Weigend and R. Ahlrichs, Phys. Chem. Chem. Phys. 7, 3297 (2005).

----- AuxJ basis set information -----
Your calculation utilizes the auxiliary basis: def2/J
   F. Weigend, Phys. Chem. Chem. Phys. 8, 1057 (2006).

================================================================================
                                        WARNINGS
                       Please study these warnings very carefully!
================================================================================

WARNING: Old DensityContainer found on disk!
         Will remove this file - 
         If you want to keep old densities, please start your calculation with a different basename. 


================================================================================
                                       INPUT FILE
================================================================================
NAME = sp.inp
|  1> ! wb97x-v def2-tzvp def2/J RIJCOSX DEFGRID2 scfconv7 GCP(DFT/TZ) printgap
|  2> %output
|  3>     printlevel normal
|  4> end
|  5> * xyz 0 1
|  6> C 0.4708662751499158 0.7296498445588064 -3.0150216776093086e-05
|  7> C 0.3964674462231166 -0.7725576274611864 3.5181516688770397e-05
|  8> C -0.8673210620347782 0.042922203021561654 -2.4725000305893638e-05
|  9> H 0.7888422005023802 1.2224630648185233 -0.9126419811026621
| 10> H 0.7887798100856622 1.2225366943184206 0.9125631373190033
| 11> H 0.6642325640886801 -1.294405418558705 -0.912546842821327
| 12> H 0.6642205732864761 -1.2943605866172831 0.9126484034991547
| 13> H -1.4529525108108974 0.07181479018130267 -0.9127124352048128
| 14> H -1.452972505282795 0.07191771250687135 0.9126459994441072
| 15> *
| 16> 
| 17>                          ****END OF INPUT****
================================================================================

                       ****************************
                       * Single Point Calculation *
                       ****************************

---------------------------------
CARTESIAN COORDINATES (ANGSTROEM)
---------------------------------
  C      0.470866    0.729650   -0.000030
  C      0.396467   -0.772558    0.000035
  C     -0.867321    0.042922   -0.000025
  H      0.788842    1.222463   -0.912642
  H      0.788780    1.222537    0.912563
  H      0.664233   -1.294405   -0.912547
  H      0.664221   -1.294361    0.912648
  H     -1.452953    0.071815   -0.912712
  H     -1.452973    0.071918    0.912646

----------------------------
CARTESIAN COORDINATES (A.U.)
----------------------------
  NO LB      ZA    FRAG     MASS         X           Y           Z
   0 C     6.0000    0    12.011    0.889808    1.378838   -0.000057
   1 C     6.0000    0    12.011    0.749215   -1.459922    0.000066
   2 C     6.0000    0    12.011   -1.638999    0.081111   -0.000047
   3 H     1.0000    0     1.008    1.490696    2.310120   -1.724643
   4 H     1.0000    0     1.008    1.490578    2.310260    1.724494
   5 H     1.0000    0     1.008    1.255218   -2.446072   -1.724464
   6 H     1.0000    0     1.008    1.255195   -2.445987    1.724656
   7 H     1.0000    0     1.008   -2.745682    0.135710   -1.724777
   8 H     1.0000    0     1.008   -2.745720    0.135905    1.724651

--------------------------------
INTERNAL COORDINATES (ANGSTROEM)
--------------------------------
 C      0   0   0     0.000000000000     0.00000000     0.00000000
 C      1   0   0     1.504048695690     0.00000000     0.00000000
 C      2   1   0     1.504050780764    60.00255297     0.00000000
 H      1   2   3     1.084819760624   117.92145471   252.18931531
 H      1   2   3     1.084819326347   117.92093913   107.80886002
 H      2   1   3     1.084817600596   117.91826662   107.81278914
 H      2   1   3     1.084819320520   117.92031637   252.18538551
 H      3   2   1     1.084803130410   117.91019162   107.81097981
 H      3   2   1     1.084802380071   117.91020661   252.19064087

---------------------------
INTERNAL COORDINATES (A.U.)
---------------------------
 C      0   0   0     0.000000000000     0.00000000     0.00000000
 C      1   0   0     2.842240126935     0.00000000     0.00000000
 C      2   1   0     2.842244067155    60.00255297     0.00000000
 H      1   2   3     2.050012252245   117.92145471   252.18931531
 H      1   2   3     2.050011431581   117.92093913   107.80886002
 H      2   1   3     2.050008170385   117.91826662   107.81278914
 H      2   1   3     2.050011420569   117.92031637   252.18538551
 H      3   2   1     2.049980825695   117.91019162   107.81097981
 H      3   2   1     2.049979407759   117.91020661   252.19064087

---------------------
BASIS SET INFORMATION
---------------------
There are 2 groups of distinct atoms

 Group   1 Type C   : 11s6p2d1f contracted to 5s3p2d1f pattern {62111/411/11/1}
 Group   2 Type H   : 5s1p contracted to 3s1p pattern {311/1}

Atom   0C    basis set group =>   1
Atom   1C    basis set group =>   1
Atom   2C    basis set group =>   1
Atom   3H    basis set group =>   2
Atom   4H    basis set group =>   2
Atom   5H    basis set group =>   2
Atom   6H    basis set group =>   2
Atom   7H    basis set group =>   2
Atom   8H    basis set group =>   2
---------------------------------
AUXILIARY/J BASIS SET INFORMATION
---------------------------------
There are 2 groups of distinct atoms

 Group   1 Type C   : 12s5p4d2f1g contracted to 6s4p3d1f1g pattern {711111/2111/211/2/1}
 Group   2 Type H   : 5s2p1d contracted to 3s1p1d pattern {311/2/1}

Atom   0C    basis set group =>   1
Atom   1C    basis set group =>   1
Atom   2C    basis set group =>   1
Atom   3H    basis set group =>   2
Atom   4H    basis set group =>   2
Atom   5H    basis set group =>   2
Atom   6H    basis set group =>   2
Atom   7H    basis set group =>   2
Atom   8H    basis set group =>   2

Checking for AutoStart:
The File: sp.gbw exists
Trying to determine its content:
     ... Fine, the file contains calculation information
     ... Fine, the calculation information was read
     ... Fine, the file contains a basis set
     ... Fine, the basis set was read
     ... Fine, the file contains a geometry
     ... Fine, the geometry was read
     ... Fine, the file contains a set of orbitals
     ... Fine, the orbitals can be read
     => possible old guess file was deleted
     => GBW file was renamed to GES file
     => GES file is set as startup file
     => Guess is set to MORead
     ... now leaving AutoStart

------------------------------------------------------------------------------
                             ORCA STARTUP CALCULATIONS
                           -- RI-GTO INTEGRALS CHOSEN --
------------------------------------------------------------------------------
------------------------------------------------------------------------------
                   ___                                                        
                  /   \      - P O W E R E D   B Y -                         
                 /     \                                                     
                 |  |  |   _    _      __       _____    __    __             
                 |  |  |  | |  | |    /  \     |  _  \  |  |  /  |          
                  \  \/   | |  | |   /    \    | | | |  |  | /  /          
                 / \  \   | |__| |  /  /\  \   | |_| |  |  |/  /          
                |  |  |   |  __  | /  /__\  \  |    /   |      \           
                |  |  |   | |  | | |   __   |  |    \   |  |\   \          
                \     /   | |  | | |  |  |  |  | |\  \  |  | \   \       
                 \___/    |_|  |_| |__|  |__|  |_| \__\ |__|  \__/        
                                                                              
                      - O R C A' S   B I G   F R I E N D -                    
                                      &                                       
                       - I N T E G R A L  F E E D E R -                       
                                                                              
 v1 FN, 2020, v2 2021, v3 2022-2024                                           
------------------------------------------------------------------------------


----------------------
SHARK INTEGRAL PACKAGE
----------------------

Number of atoms                             ...      9
Number of basis functions                   ...    129
Number of shells                            ...     57
Maximum angular momentum                    ...      3
Integral batch strategy                     ... SHARK/LIBINT Hybrid
RI-J (if used) integral strategy            ... SPLIT-RIJ (Revised 2003 algorithm where possible)
Printlevel                                  ...      1
Contraction scheme used                     ... SEGMENTED contraction
Prescreening option                         ... SCHWARTZ
   Thresh                                   ... 3.000e-11
   Tcut                                     ... 1.000e-12
   Tpresel                                  ... 1.000e-12 
Coulomb Range Separation                    ... NOT USED
Exchange Range Separation                   ... Long Range
   Mu parameter                             ... 3.000e-01
   Scaling (regular/separated)              ... 1.670e-01 8.330e-01
Multipole approximations                    ... NOT USED
Finite Nucleus Model                        ... NOT USED
CABS basis                                  ... NOT available
Auxiliary Coulomb fitting basis             ... AVAILABLE
   # of basis functions in Aux-J            ...    213
   # of shells in Aux-J                     ...     75
   Maximum angular momentum in Aux-J        ...      4
Auxiliary J/K fitting basis                 ... NOT available
Auxiliary Correlation fitting basis         ... NOT available
Auxiliary 'external' fitting basis          ... NOT available

Checking pre-screening integrals            ... done (  0.0 sec) Dimension = 57
Check shell pair data                       ... done (  0.0 sec)
Shell pair information
Shell pair cut-off parameter TPreSel        ...   1.0e-12
Total number of shell pairs                 ...      1653
Shell pairs after pre-screening             ...      1650
Total number of primitive shell pairs       ...      4740
Primitive shell pairs kept                  ...      4128
          la=0 lb=0:    558 shell pairs
          la=1 lb=0:    495 shell pairs
          la=1 lb=1:    120 shell pairs
          la=2 lb=0:    198 shell pairs
          la=2 lb=1:     90 shell pairs
          la=2 lb=2:     21 shell pairs
          la=3 lb=0:     99 shell pairs
          la=3 lb=1:     45 shell pairs
          la=3 lb=2:     18 shell pairs
          la=3 lb=3:      6 shell pairs

Calculating one electron integrals          ... done (  0.0 sec)
Calculating RI/J V-Matrix + Cholesky decomp.... done (  0.0 sec)
Calculating Nuclear repulsion               ... done (  0.0 sec) ENN=     75.804837992126 Eh

Diagonalization of the overlap matrix:
Smallest eigenvalue                        ... 4.059e-04
Time for diagonalization                   ...    0.001 sec
Threshold for overlap eigenvalues          ... 1.000e-07
Number of eigenvalues below threshold      ... 0
Time for construction of square roots      ...    0.000 sec
Total time needed                          ...    0.002 sec

-------------------
DFT GRID GENERATION
-------------------

General Integration Accuracy     IntAcc      ... 4.388
Radial Grid Type                 RadialGrid  ... OptM3 with GC (2021)
Angular Grid (max. ang.)         AngularGrid ... 4 (Lebedev-302)
Angular grid pruning method      GridPruning ... 4 (adaptive)
Weight generation scheme         WeightScheme... mBecke (2022)
Basis function cutoff            BFCut       ... 1.0000e-11
Integration weight cutoff        WCut        ... 1.0000e-14
Partially contracted basis set               ... off
Rotationally invariant grid construction     ... off
Angular grids for H and He will be reduced by one unit

Total number of grid points                  ...    37630
Total number of batches                      ...      594
Average number of points per batch           ...       63
Average number of grid points per atom       ...     4181

--------------------
COSX GRID GENERATION
--------------------

GRIDX 1
-------
General Integration Accuracy     IntAcc      ... 3.816
Radial Grid Type                 RadialGrid  ... OptM3 with GC (2021)
Angular Grid (max. ang.)         AngularGrid ... 1 (Lebedev-50)
Angular grid pruning method      GridPruning ... 4 (adaptive)
Weight generation scheme         WeightScheme... mBecke (2022)
Basis function cutoff            BFCut       ... 1.0000e-11
Integration weight cutoff        WCut        ... 1.0000e-14
Partially contracted basis set               ... on
Rotationally invariant grid construction     ... off
Angular grids for H and He will be reduced by one unit

Total number of grid points                  ...     4867
Total number of batches                      ...       45
Average number of points per batch           ...      108
Average number of grid points per atom       ...      541
UseSFitting                                  ... on

GRIDX 2
-------
General Integration Accuracy     IntAcc      ... 4.020
Radial Grid Type                 RadialGrid  ... OptM3 with GC (2021)
Angular Grid (max. ang.)         AngularGrid ... 2 (Lebedev-110)
Angular grid pruning method      GridPruning ... 4 (adaptive)
Weight generation scheme         WeightScheme... mBecke (2022)
Basis function cutoff            BFCut       ... 1.0000e-11
Integration weight cutoff        WCut        ... 1.0000e-14
Partially contracted basis set               ... on
Rotationally invariant grid construction     ... off
Angular grids for H and He will be reduced by one unit

Total number of grid points                  ...    10177
Total number of batches                      ...       84
Average number of points per batch           ...      121
Average number of grid points per atom       ...     1131
UseSFitting                                  ... on

GRIDX 3
-------
General Integration Accuracy     IntAcc      ... 4.338
Radial Grid Type                 RadialGrid  ... OptM3 with GC (2021)
Angular Grid (max. ang.)         AngularGrid ... 3 (Lebedev-194)
Angular grid pruning method      GridPruning ... 4 (adaptive)
Weight generation scheme         WeightScheme... mBecke (2022)
Basis function cutoff            BFCut       ... 1.0000e-11
Integration weight cutoff        WCut        ... 1.0000e-14
Partially contracted basis set               ... on
Rotationally invariant grid construction     ... off
Angular grids for H and He will be reduced by one unit

Total number of grid points                  ...    22386
Total number of batches                      ...      180
Average number of points per batch           ...      124
Average number of grid points per atom       ...     2487
UseSFitting                                  ... on
Initializing property integral containers    ... done (  0.0 sec)

SHARK setup successfully completed in   0.3 seconds

Maximum memory used throughout the entire STARTUP-calculation: 18.4 MB
-------------------------------------------------------------------------------
                                 ORCA GUESS
                   Start orbitals & Density for SCF / CASSCF
-------------------------------------------------------------------------------

------------
SCF SETTINGS
------------
Hamiltonian:
 Density Functional     Method          .... DFT(GTOs)
 Exchange Functional    Exchange        .... WB97X-V
 Correlation Functional Correlation     .... WB97X-V
 Gradients option       PostSCFGGA      .... off
 Hybrid DFT is turned on
   Fraction HF Exchange ScalHFX         ....  0.167000
   Scaling of DF-GGA-X  ScalDFX         ....  0.000000
   Scaling of DF-GGA-C  ScalDFC         ....  1.000000
   Scaling of DF-LDA-C  ScalLDAC        ....  1.000000
   Perturbative correction              ....  0.000000
 Long-range corrected/Screened/Range-Separated Hybrid DFT is turned on
   Amount of maximum screened exact exchange              ....  0.833000
   Range separation parameter mu (erf(mu*r12)/r12)        ....  0.300000
   NL short-range parameter             ....  6.000000
   NL long-range parameter              ....  0.010000
 RI-approximation to the Coulomb term is turned on
   Number of AuxJ basis functions       .... 213
   RIJ-COSX (HFX calculated with COS-X)).... on


General Settings:
 Integral files         IntName         .... sp
 Hartree-Fock type      HFTyp           .... RHF
 Total Charge           Charge          ....    0
 Multiplicity           Mult            ....    1
 Number of Electrons    NEL             ....   24
 Basis Dimension        Dim             ....  129
 Nuclear Repulsion      ENuc            ....     75.8048379921 Eh

Convergence Acceleration:
 AO-DIIS                CNVDIIS         .... on
   Start iteration      DIISMaxIt       ....    12
   Startup error        DIISStart       ....  0.200000
   # of expansion vecs  DIISMaxEq       ....     5
   Bias factor          DIISBfac        ....   1.050
   Max. coefficient     DIISMaxC        ....  10.000
 MO-DIIS                CNVKDIIS        .... off
 Trust-Rad. Augm. Hess. CNVTRAH         .... auto
   Auto Start mean grad. ratio tolernc. ....  1.125000
   Auto Start start iteration           ....     1
   Auto Start num. interpolation iter.  ....    10
   Max. Number of Micro iterations      ....    24
   Max. Number of Macro iterations      .... Maxiter - #DIIS iter
   Number of Davidson start vectors     ....     2
   Converg. threshold    (grad. norm)   ....   1.000e-04
   Grad. Scal. Fac. for Micro threshold ....   0.100
   Minimum threshold for Micro iter.    ....   1.000e-02
   NR start threshold (gradient norm)   ....   1.000e-04
   Initial trust radius                 ....   0.400
   Minimum AH scaling param. (alpha)    ....   1.000
   Maximum AH scaling param. (alpha)    .... 1000.000
   Quad. conv. algorithm                .... NR
   White noise on init. David. guess    .... on
   Maximum white noise                  ....   0.010
   Pseudo random numbers                .... off
   Inactive MOs                         .... canonical
   Orbital update algorithm             .... Taylor
   Preconditioner                       .... Diag
   Full preconditioner red. dimension   ....   250
 SOSCF                  CNVSOSCF        .... on
   Start iteration      SOSCFMaxIt      ....   150
   Startup grad/error   SOSCFStart      ....  0.003300
   Hessian update       SOSCFHessUp     .... L-BFGS
 Level Shifting         CNVShift        .... on
   Level shift para.    LevelShift      ....    0.2500
   Turn off err/grad.   ShiftErr        ....    0.0010
 Zerner damping         CNVZerner       .... off
 Static damping         CNVDamp         .... on
   Fraction old density DampFac         ....    0.7000
   Max. Damping (<1)    DampMax         ....    0.9800
   Min. Damping (>=0)   DampMin         ....    0.0000
   Turn off err/grad.   DampErr         ....    0.1000

SCF Procedure:
 Maximum # iterations   MaxIter         ....   125
 SCF integral mode      SCFMode         .... Direct
   Integral package                     .... SHARK and LIBINT hybrid scheme
 Reset frequency        DirectResetFreq ....    20
 Integral Threshold     Thresh          ....  3.000e-11 Eh
 Primitive CutOff       TCut            ....  1.000e-12 Eh

Convergence Tolerance:
 Convergence Check Mode ConvCheckMode   .... Total+1el-Energy
 Convergence forced     ConvForced      .... 0
 Energy Change          TolE            ....  1.000e-07 Eh
 1-El. energy change                    ....  1.000e-04 Eh
 Orbital Gradient       TolG            ....  1.000e-04
 Orbital Rotation angle TolX            ....  1.000e-04
 DIIS Error             TolErr          ....  1.000e-07

---------------------
INITIAL GUESS: MOREAD
---------------------
Guess MOs are being read from file: sp.ges
Input Geometry matches current geometry (good)
Atom 0: N(Shells)= 11 and 9 - projection required
Input basis set needs projection
NBasis(read)= 87
NBasis(calc)= 129
Basis set overlap was calculated
Using GuessMode=FMatrix for the initial guess
C*T matrix was formed
Effective Fockian was calculated
Effective Fockian was diagonalized
Initial density was built
                      ------------------
                      INITIAL GUESS DONE (   0.0 sec)
                      ------------------
             **** ENERGY FILE WAS UPDATED (sp.en.tmp) ****
Finished Guess after   0.0 sec
Maximum memory used throughout the entire GUESS-calculation: 10.9 MB

-------------------------------------------------------------------------------------------
                                      ORCA LEAN-SCF
                              memory conserving SCF solver
-------------------------------------------------------------------------------------------

----------------------------------------D-I-I-S--------------------------------------------
Iteration    Energy (Eh)           Delta-E    RMSDP     MaxDP     DIISErr   Damp  Time(sec)
-------------------------------------------------------------------------------------------
               ***  Starting incremental Fock matrix formation  ***
    1    -117.9923613071694746     0.00e+00  7.76e-04  1.29e-02  3.25e-02  0.700   1.5
    2    -117.9940098590070505    -1.65e-03  6.52e-04  9.74e-03  2.29e-02  0.700   0.8
                               ***Turning on AO-DIIS***
    3    -117.9952445516670565    -1.23e-03  5.44e-04  7.12e-03  1.64e-02  0.700   0.8
    4    -117.9961482053100639    -9.04e-04  1.37e-03  1.66e-02  1.15e-02  0.000   0.8
                              *** Initializing SOSCF ***
---------------------------------------S-O-S-C-F--------------------------------------
Iteration    Energy (Eh)           Delta-E    RMSDP     MaxDP     MaxGrad    Time(sec)
--------------------------------------------------------------------------------------
    5    -117.9984227349564350    -2.27e-03  8.35e-05  1.43e-03  4.96e-04     0.8
               *** Restarting incremental Fock matrix formation ***
    6    -117.9984192324303507     3.50e-06  3.66e-05  6.59e-04  1.59e-04     1.5
    7    -117.9984197315658463    -4.99e-07  1.31e-05  2.35e-04  5.56e-05     1.2
    8    -117.9984197686341219    -3.71e-08  1.08e-06  1.86e-05  1.54e-05     1.2
                 **** Energy Check signals convergence ****

               *****************************************************
               *                     SUCCESS                       *
               *           SCF CONVERGED AFTER   8 CYCLES          *
               *****************************************************


------------------
NL GRID GENERATION
------------------

General Integration Accuracy     IntAcc      ... 4.004
Radial Grid Type                 RadialGrid  ... OptM3 with GC (2021)
Angular Grid (max. ang.)         AngularGrid ... 2 (Lebedev-110)
Angular grid pruning method      GridPruning ... 4 (adaptive)
Weight generation scheme         WeightScheme... mBecke (2022)
Basis function cutoff            BFCut       ... 1.0000e-10
Integration weight cutoff        WCut        ... 1.0000e-14
Partially contracted basis set               ... off
Rotationally invariant grid construction     ... off
Angular grids for H and He will be reduced by one unit

Total number of grid points                  ...    11230
Total number of batches                      ...      180
Average number of points per batch           ...       62
Average number of grid points per atom       ...     1248
Final grid set up in    0.0 sec

-------------------------------------------------------------------------------
                    post-SCF DFT-NL dispersion correction                      
-------------------------------------------------------------------------------

SCF Energy:     -117.998419769 
NL    Energy:      0.094210948 
SC+NL Energy:   -117.904208821 
NL done in  :              0.4 sec
-------------------------------------------------------------------------------
Recomputing exchange energy using gridx3       ... done (    2.594 sec)
Old exchange energy                            :     -6.060756752 Eh
New exchange energy                            :     -6.060767937 Eh
Exchange energy change after final integration :     -0.000011185 Eh
Total energy after final integration           :   -117.904220006 Eh
             **** ENERGY FILE WAS UPDATED (sp.en.tmp) ****

----------------
TOTAL SCF ENERGY
----------------

Total Energy       :       -117.90422000607053 Eh           -3208.33694 eV

Components:
Nuclear Repulsion  :         75.80483799212588 Eh            2062.75451 eV
Electronic Energy  :       -193.80325776076000 Eh           -5273.65475 eV
One Electron Energy:       -306.92204772890125 Eh           -8351.77351 eV
Two Electron Energy:        113.11878996814123 Eh            3078.11876 eV

Virial components:
Potential Energy   :       -235.25293304821872 Eh           -6401.55776 eV
Kinetic Energy     :        117.34871304214818 Eh            3193.22082 eV
Virial Ratio       :          2.00473381385719

DFT components:
N(Alpha)           :       12.000011658937 electrons
N(Beta)            :       12.000011658937 electrons
N(Total)           :       24.000023317875 electrons
E(X)               :      -11.598725555286 Eh       
E(C)               :       -0.946879632486 Eh       
NL Energy, E(C,NL) :        0.094210947716 Eh       
E(XC)              :      -12.451394240056 Eh       

---------------
SCF CONVERGENCE
---------------

  Last Energy change         ...    3.7068e-08  Tolerance :   1.0000e-07
  Last MAX-Density change    ...    1.8594e-05  Tolerance :   1.0000e-05
  Last RMS-Density change    ...    1.0831e-06  Tolerance :   1.0000e-06
  Last DIIS Error            ...    4.9633e-04  Tolerance :   1.0000e-07
  Last Orbital Gradient      ...    1.5357e-05  Tolerance :   1.0000e-04
  Last Orbital Rotation      ...    1.2496e-05  Tolerance :   1.0000e-04


----------------
ORBITAL ENERGIES
----------------

  NO   OCC          E(Eh)            E(eV) 
   0   2.0000     -10.269628      -279.4508 
   1   2.0000     -10.269284      -279.4414 
   2   2.0000     -10.269276      -279.4412 
   3   2.0000      -0.986378       -26.8407 
   4   2.0000      -0.723001       -19.6739 
   5   2.0000      -0.722988       -19.6735 
   6   2.0000      -0.612368       -16.6634 
   7   2.0000      -0.576133       -15.6774 
   8   2.0000      -0.469088       -12.7645 
   9   2.0000      -0.469075       -12.7642 
  10   2.0000      -0.399549       -10.8723 
  11   2.0000      -0.399536       -10.8719 
  12   0.0000       0.131364         3.5746 
  13   0.0000       0.145801         3.9674 
  14   0.0000       0.156576         4.2606 
  15   0.0000       0.156585         4.2609 
  16   0.0000       0.216346         5.8871 
  17   0.0000       0.234525         6.3818 
  18   0.0000       0.234532         6.3819 
  19   0.0000       0.241732         6.5779 
  20   0.0000       0.271072         7.3762 
  21   0.0000       0.271091         7.3768 
  22   0.0000       0.322050         8.7634 
*Only the first 10 virtual orbitals were printed.

                    ********************************
                    * MULLIKEN POPULATION ANALYSIS *
                    ********************************

-----------------------
MULLIKEN ATOMIC CHARGES
-----------------------
   0 C :   -0.211978
   1 C :   -0.211583
   2 C :   -0.211048
   3 H :    0.105833
   4 H :    0.105832
   5 H :    0.105775
   6 H :    0.105779
   7 H :    0.105696
   8 H :    0.105694
Sum of atomic charges:    0.0000000

--------------------------------
MULLIKEN REDUCED ORBITAL CHARGES
--------------------------------
  0 C s       :     3.217129  s :     3.217129
      pz      :     1.035583  p :     2.923191
      px      :     0.991795
      py      :     0.895813
      dz2     :     0.006678  d :     0.064472
      dxz     :     0.009171
      dyz     :     0.012646
      dx2y2   :     0.015712
      dxy     :     0.020265
      f0      :     0.000635  f :     0.007185
      f+1     :     0.000400
      f-1     :     0.001042
      f+2     :     0.000811
      f-2     :     0.000675
      f+3     :     0.002328
      f-3     :     0.001294

  1 C s       :     3.217006  s :     3.217006
      pz      :     1.035388  p :     2.922925
      px      :     1.011640
      py      :     0.875897
      dz2     :     0.006677  d :     0.064467
      dxz     :     0.008460
      dyz     :     0.013370
      dx2y2   :     0.016877
      dxy     :     0.019083
      f0      :     0.000636  f :     0.007185
      f+1     :     0.000267
      f-1     :     0.001175
      f+2     :     0.000776
      f-2     :     0.000710
      f+3     :     0.002328
      f-3     :     0.001293

  2 C s       :     3.216428  s :     3.216428
      pz      :     1.035471  p :     2.922983
      px      :     0.827751
      py      :     1.059761
      dz2     :     0.006686  d :     0.064455
      dxz     :     0.015084
      dyz     :     0.006735
      dx2y2   :     0.021369
      dxy     :     0.014582
      f0      :     0.000636  f :     0.007183
      f+1     :     0.001493
      f-1     :    -0.000054
      f+2     :     0.000642
      f-2     :     0.000844
      f+3     :     0.002328
      f-3     :     0.001293

  3 H s       :     0.871987  s :     0.871987
      pz      :     0.010251  p :     0.022180
      px      :     0.005680
      py      :     0.006250

  4 H s       :     0.871987  s :     0.871987
      pz      :     0.010251  p :     0.022180
      px      :     0.005679
      py      :     0.006250

  5 H s       :     0.872045  s :     0.872045
      pz      :     0.010250  p :     0.022180
      px      :     0.005561
      py      :     0.006368

  6 H s       :     0.872041  s :     0.872041
      pz      :     0.010251  p :     0.022180
      px      :     0.005561
      py      :     0.006368

  7 H s       :     0.872123  s :     0.872123
      pz      :     0.010254  p :     0.022181
      px      :     0.006651
      py      :     0.005276

  8 H s       :     0.872125  s :     0.872125
      pz      :     0.010253  p :     0.022181
      px      :     0.006651
      py      :     0.005276


------------------------
MULLIKEN OVERLAP CHARGES
------------------------
B(  0-C ,  1-C ) :   0.5086 B(  0-C ,  2-C ) :   0.5080 B(  0-C ,  3-H ) :   0.8365 
B(  0-C ,  4-H ) :   0.8365 B(  0-C ,  5-H ) :  -0.0510 B(  0-C ,  6-H ) :  -0.0510 
B(  0-C ,  7-H ) :  -0.0511 B(  0-C ,  8-H ) :  -0.0511 B(  1-C ,  2-C ) :   0.5079 
B(  1-C ,  3-H ) :  -0.0511 B(  1-C ,  4-H ) :  -0.0511 B(  1-C ,  5-H ) :   0.8364 
B(  1-C ,  6-H ) :   0.8364 B(  1-C ,  7-H ) :  -0.0512 B(  1-C ,  8-H ) :  -0.0512 
B(  2-C ,  3-H ) :  -0.0512 B(  2-C ,  4-H ) :  -0.0512 B(  2-C ,  5-H ) :  -0.0511 
B(  2-C ,  6-H ) :  -0.0511 B(  2-C ,  7-H ) :   0.8365 B(  2-C ,  8-H ) :   0.8365 
B(  3-H ,  4-H ) :  -0.0509 B(  5-H ,  6-H ) :  -0.0509 B(  7-H ,  8-H ) :  -0.0509 



                     *******************************
                     * LOEWDIN POPULATION ANALYSIS *
                     *******************************

----------------------
LOEWDIN ATOMIC CHARGES
----------------------
   0 C :   -0.246713
   1 C :   -0.246702
   2 C :   -0.246695
   3 H :    0.123355
   4 H :    0.123356
   5 H :    0.123358
   6 H :    0.123356
   7 H :    0.123342
   8 H :    0.123343

-------------------------------
LOEWDIN REDUCED ORBITAL CHARGES
-------------------------------
  0 C s       :     2.775754  s :     2.775754
      pz      :     1.030319  p :     3.071623
      px      :     1.037735
      py      :     1.003569
      dz2     :     0.042567  d :     0.356818
      dxz     :     0.055288
      dyz     :     0.095289
      dx2y2   :     0.070512
      dxy     :     0.093162
      f0      :     0.005066  f :     0.042518
      f+1     :     0.002665
      f-1     :     0.004581
      f+2     :     0.005235
      f-2     :     0.003077
      f+3     :     0.015310
      f-3     :     0.006583

  1 C s       :     2.775741  s :     2.775741
      pz      :     1.030302  p :     3.071594
      px      :     1.044827
      py      :     0.996465
      dz2     :     0.042567  d :     0.356845
      dxz     :     0.047003
      dyz     :     0.103585
      dx2y2   :     0.076358
      dxy     :     0.087332
      f0      :     0.005067  f :     0.042523
      f+1     :     0.002268
      f-1     :     0.004978
      f+2     :     0.004680
      f-2     :     0.003634
      f+3     :     0.015313
      f-3     :     0.006584

  2 C s       :     2.775749  s :     2.775749
      pz      :     1.030303  p :     3.071625
      px      :     0.979357
      py      :     1.061966
      dz2     :     0.042582  d :     0.356801
      dxz     :     0.123543
      dyz     :     0.027017
      dx2y2   :     0.098644
      dxy     :     0.065015
      f0      :     0.005069  f :     0.042520
      f+1     :     0.005935
      f-1     :     0.001310
      f+2     :     0.002553
      f-2     :     0.005758
      f+3     :     0.015310
      f-3     :     0.006584

  3 H s       :     0.815173  s :     0.815173
      pz      :     0.029141  p :     0.061472
      px      :     0.015916
      py      :     0.016414

  4 H s       :     0.815172  s :     0.815172
      pz      :     0.029141  p :     0.061472
      px      :     0.015915
      py      :     0.016415

  5 H s       :     0.815172  s :     0.815172
      pz      :     0.029140  p :     0.061470
      px      :     0.015812
      py      :     0.016518

  6 H s       :     0.815174  s :     0.815174
      pz      :     0.029141  p :     0.061470
      px      :     0.015812
      py      :     0.016517

  7 H s       :     0.815182  s :     0.815182
      pz      :     0.029145  p :     0.061476
      px      :     0.016763
      py      :     0.015567

  8 H s       :     0.815181  s :     0.815181
      pz      :     0.029144  p :     0.061476
      px      :     0.016764
      py      :     0.015567


---------------------------------
LOEWDIN BOND ORDERS (THRESH 0.050000)
---------------------------------
B(  0-C ,  1-C ) :   1.2908 B(  0-C ,  2-C ) :   1.2907 B(  0-C ,  3-H ) :   0.8827 
B(  0-C ,  4-H ) :   0.8827 B(  0-C ,  5-H ) :   0.0677 B(  0-C ,  6-H ) :   0.0677 
B(  0-C ,  7-H ) :   0.0677 B(  0-C ,  8-H ) :   0.0677 B(  1-C ,  2-C ) :   1.2908 
B(  1-C ,  3-H ) :   0.0677 B(  1-C ,  4-H ) :   0.0677 B(  1-C ,  5-H ) :   0.8827 
B(  1-C ,  6-H ) :   0.8827 B(  1-C ,  7-H ) :   0.0677 B(  1-C ,  8-H ) :   0.0677 
B(  2-C ,  3-H ) :   0.0676 B(  2-C ,  4-H ) :   0.0677 B(  2-C ,  5-H ) :   0.0677 
B(  2-C ,  6-H ) :   0.0677 B(  2-C ,  7-H ) :   0.8827 B(  2-C ,  8-H ) :   0.8827 


------------------------------------------
LOEWDIN REDUCED ORBITAL POPULATIONS PER MO
-------------------------------------------
THRESHOLD FOR PRINTING IS 0.1%%
                      0         1         2         3         4         5   
                 -10.26963 -10.26928 -10.26928  -0.98638  -0.72300  -0.72299
                   2.00000   2.00000   2.00000   2.00000   2.00000   2.00000
                  --------  --------  --------  --------  --------  --------
 0 C  s              33.4      43.0      22.8      18.8      18.6       0.7
 0 C  px              0.0       0.0       0.0       2.1       1.7       7.7
 0 C  py              0.1       0.0       0.0       5.1       9.3       1.1
 0 C  dz2             0.1       0.0       0.0       0.6       0.7       0.0
 0 C  dx2y2           0.0       0.0       0.1       0.1       0.1       1.9
 0 C  dxy             0.0       0.0       0.0       0.6       0.0       0.4
 0 C  f-1             0.0       0.0       0.0       0.1       0.0       0.0
 0 C  f-3             0.0       0.0       0.0       0.0       0.0       0.1
 1 C  s              31.6       1.0      66.6      18.8       8.2      11.0
 1 C  px              0.0       0.0       0.0       1.5       1.0       8.2
 1 C  py              0.1       0.0       0.0       5.8       8.7       1.9
 1 C  dz2             0.1       0.0       0.0       0.6       0.3       0.4
 1 C  dx2y2           0.0       0.1       0.0       0.2       1.1       0.5
 1 C  dxy             0.0       0.1       0.0       0.5       0.3       0.5
 1 C  f-1             0.0       0.0       0.0       0.1       0.0       0.0
 2 C  s              34.0      55.3       9.8      18.8       2.1      17.2
 2 C  px              0.1       0.0       0.0       7.3       1.5       9.6
 2 C  py              0.0       0.0       0.0       0.0       7.4       1.3
 2 C  dz2             0.1       0.0       0.0       0.6       0.1       0.7
 2 C  dx2y2           0.1       0.0       0.0       0.7       0.0       0.0
 2 C  dxy             0.0       0.0       0.2       0.0       2.1       0.3
 2 C  f+1             0.0       0.0       0.0       0.2       0.0       0.1
 3 H  s               0.0       0.0       0.0       2.7      10.7       0.4
 3 H  pz              0.0       0.0       0.0       0.1       0.8       0.0
 4 H  s               0.0       0.0       0.0       2.7      10.7       0.4
 4 H  pz              0.0       0.0       0.0       0.1       0.8       0.0
 5 H  s               0.0       0.0       0.0       2.7       4.8       6.4
 5 H  pz              0.0       0.0       0.0       0.1       0.4       0.5
 5 H  py              0.0       0.0       0.0       0.1       0.0       0.1
 6 H  s               0.0       0.0       0.0       2.7       4.8       6.4
 6 H  pz              0.0       0.0       0.0       0.1       0.4       0.5
 6 H  py              0.0       0.0       0.0       0.1       0.0       0.1
 7 H  s               0.0       0.0       0.0       2.7       1.2       9.9
 7 H  pz              0.0       0.0       0.0       0.1       0.1       0.7
 7 H  px              0.0       0.0       0.0       0.1       0.0       0.1
 8 H  s               0.0       0.0       0.0       2.7       1.2       9.9
 8 H  pz              0.0       0.0       0.0       0.1       0.1       0.7
 8 H  px              0.0       0.0       0.0       0.1       0.0       0.1

                      6         7         8         9        10        11   
                  -0.61237  -0.57613  -0.46909  -0.46908  -0.39955  -0.39954
                   2.00000   2.00000   2.00000   2.00000   2.00000   2.00000
                  --------  --------  --------  --------  --------  --------
 0 C  s               0.0       1.5       0.0       0.0       0.0       0.0
 0 C  pz             22.3       0.0      11.6      17.6       0.0       0.0
 0 C  px              0.0       6.0       0.0       0.0       0.9      33.4
 0 C  py              0.0      14.3       0.0       0.0      16.1       4.2
 0 C  dz2             0.0       0.4       0.0       0.0       0.2       0.1
 0 C  dxz             0.1       0.0       2.5       0.2       0.0       0.0
 0 C  dyz             0.2       0.0       0.7       4.0       0.0       0.0
 0 C  dx2y2           0.0       0.0       0.0       0.0       0.2       1.0
 0 C  dxy             0.0       0.2       0.0       0.0       3.0       0.3
 0 C  f0              0.1       0.0       0.1       0.1       0.0       0.0
 0 C  f+2             0.0       0.0       0.2       0.1       0.0       0.0
 0 C  f+3             0.0       0.1       0.0       0.0       0.5       0.2
 0 C  f-3             0.0       0.0       0.0       0.0       0.1       0.1
 1 C  s               0.0       1.5       0.0       0.0       0.0       0.0
 1 C  pz             22.3       0.0       3.7      25.5       0.0       0.0
 1 C  px              0.0       4.2       0.0       0.0      36.1       1.2
 1 C  py              0.0      16.0       0.0       0.0       8.2       9.1
 1 C  dz2             0.0       0.4       0.0       0.0       0.0       0.3
 1 C  dxz             0.0       0.0       1.8       0.5       0.0       0.0
 1 C  dyz             0.2       0.0       0.1       4.9       0.0       0.0
 1 C  dx2y2           0.0       0.1       0.0       0.0       0.5       1.2
 1 C  dxy             0.0       0.2       0.0       0.0       0.1       2.6
 1 C  f0              0.1       0.0       0.0       0.2       0.0       0.0
 1 C  f+2             0.0       0.0       0.2       0.0       0.0       0.0
 1 C  f+3             0.0       0.1       0.0       0.0       0.0       0.7
 1 C  f-3             0.0       0.0       0.0       0.0       0.2       0.0
 2 C  s               0.0       1.5       0.0       0.0       0.0       0.0
 2 C  pz             22.3       0.0      28.5       0.7       0.0       0.0
 2 C  px              0.0      20.2       0.0       0.0       6.1       4.1
 2 C  py              0.0       0.0       0.0       0.0      14.5      29.8
 2 C  dz2             0.0       0.4       0.0       0.0       0.2       0.1
 2 C  dxz             0.2       0.0       5.9       0.1       0.0       0.0
 2 C  dyz             0.0       0.0       0.0       1.3       0.0       0.0
 2 C  dx2y2           0.0       0.3       0.0       0.0       2.7       1.0
 2 C  dxy             0.0       0.0       0.0       0.0       0.1       0.6
 2 C  f0              0.1       0.0       0.2       0.0       0.0       0.0
 2 C  f+2             0.1       0.0       0.0       0.0       0.0       0.0
 2 C  f-2             0.0       0.0       0.0       0.3       0.0       0.0
 2 C  f+3             0.0       0.1       0.0       0.0       0.5       0.2
 2 C  f-3             0.0       0.0       0.0       0.0       0.0       0.2
 3 H  s               5.1       5.1       5.8       8.7       1.8       0.5
 3 H  pz              0.1       0.3       0.0       0.0       0.1       0.0
 3 H  px              0.1       0.0       0.0       0.1       0.0       0.5
 3 H  py              0.1       0.0       0.1       0.1       0.2       0.1
 4 H  s               5.1       5.1       5.8       8.7       1.8       0.5
 4 H  pz              0.1       0.3       0.0       0.0       0.1       0.0
 4 H  px              0.1       0.0       0.0       0.1       0.0       0.5
 4 H  py              0.1       0.0       0.1       0.1       0.2       0.1
 5 H  s               5.1       5.1       1.8      12.7       0.0       2.3
 5 H  pz              0.1       0.3       0.0       0.0       0.0       0.1
 5 H  px              0.0       0.0       0.0       0.1       0.6       0.0
 5 H  py              0.2       0.0       0.0       0.2       0.1       0.1
 6 H  s               5.1       5.1       1.8      12.7       0.0       2.3
 6 H  pz              0.1       0.3       0.0       0.0       0.0       0.1
 6 H  px              0.0       0.0       0.0       0.1       0.6       0.0
 6 H  py              0.2       0.0       0.0       0.2       0.1       0.1
 7 H  s               5.1       5.1      14.1       0.4       1.6       0.7
 7 H  pz              0.1       0.3       0.0       0.0       0.1       0.0
 7 H  px              0.2       0.0       0.3       0.0       0.0       0.0
 7 H  py              0.0       0.0       0.0       0.0       0.2       0.5
 8 H  s               5.1       5.1      14.1       0.4       1.6       0.7
 8 H  pz              0.1       0.3       0.0       0.0       0.1       0.0
 8 H  px              0.2       0.0       0.3       0.0       0.0       0.0
 8 H  py              0.0       0.0       0.0       0.0       0.2       0.5

                     12        13        14        15        16        17   
                   0.13136   0.14580   0.15658   0.15659   0.21635   0.23453
                   0.00000   0.00000   0.00000   0.00000   0.00000   0.00000
                  --------  --------  --------  --------  --------  --------
 0 C  s               4.5       0.0       6.6       1.2       0.0       0.0
 0 C  pz              0.0       7.0       0.0       0.0       0.0       8.3
 0 C  px              0.4       0.0       0.5       8.8      14.2       0.0
 0 C  py              1.1       0.0       9.0       0.4       5.9       0.0
 0 C  dz2             3.5       0.0       0.1       0.0       0.0       0.0
 0 C  dxz             0.0       1.5       0.0       0.0       0.0       0.3
 0 C  dyz             0.0       3.5       0.0       0.0       0.0       0.0
 0 C  dx2y2           0.0       0.0       1.2       2.5       8.8       0.0
 0 C  dxy             0.2       0.0       0.2       1.2       1.8       0.0
 0 C  f-1             0.0       0.0       0.1       0.0       0.0       0.0
 0 C  f-3             0.0       0.0       0.0       0.1       0.0       0.0
 1 C  s               4.5       0.0       4.9       2.8       0.0       0.0
 1 C  pz              0.0       7.0       0.0       0.0       0.0       5.7
 1 C  px              0.3       0.0       0.4       8.8      16.0       0.0
 1 C  py              1.2       0.0       9.0       0.5       4.2       0.0
 1 C  dz2             3.5       0.0       0.1       0.0       0.0       0.0
 1 C  dxz             0.0       1.0       0.0       0.0       0.0       0.8
 1 C  dyz             0.0       3.9       0.0       0.0       0.0       0.1
 1 C  dx2y2           0.1       0.0       2.1       1.0       7.0       0.0
 1 C  dxy             0.2       0.0       0.0       2.0       3.6       0.0
 1 C  f-1             0.0       0.0       0.1       0.0       0.0       0.0
 1 C  f-3             0.0       0.0       0.0       0.1       0.0       0.0
 2 C  s               4.5       0.0       0.1       7.6       0.0       0.0
 2 C  pz              0.0       7.0       0.0       0.0       0.0       0.2
 2 C  px              1.5       0.0       0.3       9.3       0.0       0.0
 2 C  py              0.0       0.0       8.8       0.3      20.1       0.0
 2 C  dz2             3.5       0.0       0.0       0.1       0.0       0.0
 2 C  dxz             0.0       5.0       0.0       0.0       0.0       0.0
 2 C  dyz             0.0       0.0       0.0       0.0       0.0       2.1
 2 C  dx2y2           0.2       0.0       0.1       0.8       0.1       0.0
 2 C  dxy             0.0       0.0       4.1       0.1      10.4       0.0
 2 C  f+1             0.0       0.0       0.0       0.2       0.0       0.0
 2 C  f-2             0.0       0.0       0.0       0.0       0.0       0.1
 2 C  f-3             0.0       0.0       0.1       0.0       0.0       0.0
 3 H  s              10.3       9.6      12.9       2.3       0.0      22.0
 3 H  pz              1.4       0.3       1.0       0.2       0.0       0.5
 3 H  px              0.0       0.2       0.1       0.2       0.9       0.5
 3 H  py              0.0       0.5       0.6       0.0       0.4       0.9
 4 H  s              10.3       9.6      12.9       2.3       0.0      22.0
 4 H  pz              1.4       0.3       1.0       0.2       0.0       0.5
 4 H  px              0.0       0.2       0.1       0.2       0.9       0.5
 4 H  py              0.0       0.5       0.6       0.0       0.4       0.9
 5 H  s              10.3       9.6       9.7       5.6       0.0      15.2
 5 H  pz              1.4       0.3       0.7       0.4       0.0       0.4
 5 H  px              0.0       0.2       0.0       0.2       1.0       0.3
 5 H  py              0.0       0.6       0.5       0.1       0.3       0.6
 6 H  s              10.3       9.6       9.7       5.6       0.0      15.2
 6 H  pz              1.4       0.3       0.7       0.4       0.0       0.4
 6 H  px              0.0       0.2       0.0       0.2       1.0       0.3
 6 H  py              0.0       0.6       0.5       0.1       0.3       0.6
 7 H  s              10.3       9.6       0.2      15.0       0.0       0.6
 7 H  pz              1.4       0.3       0.0       1.1       0.0       0.0
 7 H  px              0.1       0.7       0.0       0.8       0.0       0.0
 7 H  py              0.0       0.0       0.1       0.0       1.3       0.0
 8 H  s              10.3       9.6       0.2      15.0       0.0       0.6
 8 H  pz              1.4       0.3       0.0       1.1       0.0       0.0
 8 H  px              0.1       0.7       0.0       0.8       0.0       0.0
 8 H  py              0.0       0.0       0.1       0.0       1.3       0.0

                     18        19        20        21        22        23   
                   0.23453   0.24173   0.27107   0.27109   0.32205   0.32207
                   0.00000   0.00000   0.00000   0.00000   0.00000   0.00000
                  --------  --------  --------  --------  --------  --------
 0 C  s               0.0       1.4       0.1       0.1       0.0       0.0
 0 C  pz              1.2       0.0       0.0       0.0       0.0       0.0
 0 C  px              0.0       6.8      14.3       4.7       2.6      21.8
 0 C  py              0.0      16.4       3.4      10.5      22.4       6.1
 0 C  dz2             0.0       5.1       2.4       3.5       2.1       3.8
 0 C  dxz             1.2       0.0       0.0       0.0       0.0       0.0
 0 C  dyz             0.7       0.0       0.0       0.0       0.0       0.0
 0 C  dx2y2           0.0       0.0       1.9       2.3       0.8       0.1
 0 C  dxy             0.0       0.1       1.3       0.0       0.0       0.7
 0 C  f+1             0.0       0.0       0.0       0.0       0.1       0.0
 0 C  f-1             0.0       0.0       0.0       0.0       0.0       0.1
 0 C  f-3             0.0       0.0       0.1       0.1       0.0       0.0
 1 C  s               0.0       1.4       0.0       0.2       0.0       0.0
 1 C  pz              3.8       0.0       0.0       0.0       0.0       0.0
 1 C  px              0.0       4.8      18.1       2.0       8.3      15.2
 1 C  py              0.0      18.4       3.1       9.7      14.7      14.7
 1 C  dz2             0.0       5.1       0.7       5.1       0.9       5.0
 1 C  dxz             0.9       0.0       0.0       0.0       0.0       0.0
 1 C  dyz             0.4       0.0       0.0       0.0       0.0       0.0
 1 C  dx2y2           0.0       0.0       2.3       1.1       0.8       0.0
 1 C  dxy             0.0       0.0       2.0       0.0       0.1       0.7
 1 C  f+1             0.0       0.0       0.0       0.0       0.1       0.0
 1 C  f-1             0.0       0.0       0.0       0.0       0.0       0.1
 1 C  f-3             0.0       0.0       0.2       0.0       0.0       0.0
 2 C  s               0.0       1.4       0.2       0.0       0.0       0.0
 2 C  pz              9.3       0.0       0.0       0.0       0.0       0.0
 2 C  px              0.0      23.2      10.0       0.2      30.7       0.8
 2 C  py              0.0       0.1       0.5      22.3       0.6      20.8
 2 C  dz2             0.0       5.1       5.7       0.2       5.8       0.1
 2 C  dx2y2           0.0       0.1       0.6       0.0       0.6       0.0
 2 C  dxy             0.0       0.0       0.1       4.8       0.0       1.0
 2 C  f+1             0.0       0.0       0.0       0.0       0.2       0.0
 2 C  f+3             0.0       0.0       0.1       0.0       0.1       0.0
 2 C  f-3             0.0       0.0       0.0       0.2       0.0       0.0
 3 H  s               3.2       1.3       3.6       5.4       0.6       1.1
 3 H  pz              0.1       0.1       0.7       1.1       0.2       0.4
 3 H  px              0.0       0.1       0.1       0.0       0.0       0.2
 3 H  py              0.2       0.3       0.0       0.1       0.2       0.1
 4 H  s               3.2       1.3       3.6       5.4       0.6       1.1
 4 H  pz              0.1       0.1       0.7       1.1       0.2       0.4
 4 H  px              0.0       0.1       0.1       0.0       0.0       0.2
 4 H  py              0.2       0.3       0.0       0.1       0.2       0.1
 5 H  s              10.0       1.3       1.1       7.8       0.3       1.5
 5 H  pz              0.2       0.1       0.2       1.6       0.1       0.5
 5 H  px              0.1       0.1       0.1       0.0       0.0       0.1
 5 H  py              0.6       0.3       0.0       0.1       0.1       0.2
 6 H  s              10.0       1.3       1.1       7.8       0.3       1.5
 6 H  pz              0.2       0.1       0.2       1.6       0.1       0.5
 6 H  px              0.1       0.1       0.1       0.0       0.0       0.1
 6 H  py              0.6       0.3       0.0       0.1       0.1       0.2
 7 H  s              24.6       1.3       8.7       0.2       1.8       0.0
 7 H  pz              0.6       0.1       1.8       0.0       0.6       0.0
 7 H  px              1.5       0.4       0.0       0.0       0.3       0.0
 7 H  py              0.0       0.0       0.0       0.1       0.0       0.1
 8 H  s              24.6       1.3       8.7       0.2       1.8       0.0
 8 H  pz              0.6       0.1       1.8       0.0       0.6       0.0
 8 H  px              1.5       0.4       0.0       0.0       0.3       0.0
 8 H  py              0.0       0.0       0.0       0.1       0.0       0.1

                     24        25        26        27        28        29   
                   0.37421   0.38603   0.40587   0.40589   0.47284   0.48405
                   0.00000   0.00000   0.00000   0.00000   0.00000   0.00000
                  --------  --------  --------  --------  --------  --------
 0 C  s               0.0      21.1       0.0       0.0       0.0       0.0
 0 C  pz             12.4       0.0       0.1      38.3       0.0      14.9
 0 C  px              0.0       0.2       0.0       0.0      22.5       0.0
 0 C  py              0.0       0.5       0.0       0.0       9.4       0.0
 0 C  dxz             2.6       0.0      14.2       0.1       0.0       0.9
 0 C  dyz             6.2       0.0       5.7       0.6       0.0       2.1
 0 C  dx2y2           0.0       1.4       0.0       0.0       0.8       0.0
 0 C  dxy             0.0       6.8       0.0       0.0       0.2       0.0
 0 C  f0              0.0       0.0       0.0       0.1       0.0       0.7
 0 C  f-1             0.0       0.2       0.0       0.0       0.0       0.0
 0 C  f-2             0.1       0.0       0.0       0.2       0.0       0.0
 0 C  f-3             0.0       0.0       0.0       0.0       0.3       0.0
 1 C  s               0.0      21.1       0.0       0.0       0.0       0.0
 1 C  pz             12.4       0.0      30.3       8.2       0.0      15.0
 1 C  px              0.0       0.1       0.0       0.0      25.3       0.0
 1 C  py              0.0       0.5       0.0       0.0       6.6       0.0
 1 C  dxz             1.8       0.0       2.4      13.5       0.0       0.6
 1 C  dyz             6.9       0.0       2.3       2.3       0.0       2.4
 1 C  dx2y2           0.0       2.8       0.0       0.0       0.7       0.0
 1 C  dxy             0.0       5.4       0.0       0.0       0.3       0.0
 1 C  f0              0.0       0.0       0.1       0.0       0.0       0.7
 1 C  f+1             0.0       0.1       0.0       0.0       0.1       0.0
 1 C  f-1             0.0       0.2       0.0       0.0       0.0       0.0
 1 C  f+2             0.1       0.0       0.1       0.0       0.0       0.0
 1 C  f-2             0.1       0.0       0.1       0.1       0.0       0.0
 1 C  f-3             0.0       0.0       0.0       0.0       0.3       0.0
 2 C  s               0.0      21.1       0.0       0.0       0.0       0.0
 2 C  pz             12.3       0.0      27.3      11.1       0.0      14.9
 2 C  px              0.0       0.7       0.0       0.0       0.1       0.0
 2 C  py              0.0       0.0       0.0       0.0      31.8       0.0
 2 C  dxz             8.7       0.0       0.6       0.1       0.0       3.0
 2 C  dyz             0.0       0.0       5.6      14.3       0.0       0.0
 2 C  dx2y2           0.0       8.2       0.0       0.0       0.0       0.0
 2 C  dxy             0.0       0.1       0.0       0.0       1.0       0.0
 2 C  f0              0.0       0.0       0.1       0.0       0.0       0.7
 2 C  f+1             0.0       0.3       0.0       0.0       0.0       0.0
 2 C  f-1             0.0       0.0       0.0       0.0       0.1       0.0
 2 C  f+2             0.2       0.0       0.1       0.0       0.0       0.0
 2 C  f-3             0.0       0.0       0.0       0.0       0.3       0.0
 3 H  s               5.3       1.2       0.0       1.8       0.0       6.5
 3 H  pz              0.0       0.1       0.0       0.3       0.0       0.8
 3 H  px              0.2       0.0       1.0       0.0       0.0       0.0
 3 H  py              0.5       0.1       0.4       0.1       0.0       0.0
 4 H  s               5.3       1.2       0.0       1.8       0.0       6.5
 4 H  pz              0.0       0.1       0.0       0.3       0.0       0.8
 4 H  px              0.2       0.0       1.0       0.0       0.0       0.0
 4 H  py              0.5       0.1       0.4       0.1       0.0       0.0
 5 H  s               5.3       1.2       1.4       0.4       0.0       6.5
 5 H  pz              0.0       0.1       0.2       0.1       0.0       0.8
 5 H  px              0.1       0.0       0.1       1.0       0.0       0.0
 5 H  py              0.5       0.1       0.3       0.1       0.0       0.0
 6 H  s               5.3       1.2       1.4       0.4       0.0       6.5
 6 H  pz              0.0       0.1       0.2       0.1       0.0       0.8
 6 H  px              0.1       0.0       0.1       1.0       0.0       0.0
 6 H  py              0.5       0.1       0.3       0.1       0.0       0.0
 7 H  s               5.3       1.2       1.3       0.5       0.0       6.5
 7 H  pz              0.0       0.1       0.2       0.1       0.0       0.8
 7 H  px              0.7       0.1       0.1       0.0       0.0       0.0
 7 H  py              0.0       0.0       0.4       1.0       0.0       0.0
 8 H  s               5.3       1.2       1.3       0.5       0.0       6.5
 8 H  pz              0.0       0.1       0.2       0.1       0.0       0.8
 8 H  px              0.7       0.1       0.1       0.0       0.0       0.0
 8 H  py              0.0       0.0       0.4       1.0       0.0       0.0

                     30        31        32        33        34        35   
                   0.51363   0.51365   0.54084   0.55792   0.55795   0.61460
                   0.00000   0.00000   0.00000   0.00000   0.00000   0.00000
                  --------  --------  --------  --------  --------  --------
 0 C  s              30.5       0.0       4.2       6.5      12.1       0.0
 0 C  pz              0.0       0.0       0.0       0.0       0.0      15.3
 0 C  px              1.2       5.8       1.3      11.9       0.6       0.0
 0 C  py              3.3       2.2       3.1       1.3      16.2       0.0
 0 C  dz2             0.8       0.0       4.4       1.1       2.0       0.0
 0 C  dxz             0.0       0.0       0.0       0.0       0.0       3.5
 0 C  dyz             0.0       0.0       0.0       0.0       0.0       1.8
 0 C  dx2y2           0.2       3.8       0.6       1.5       2.9       0.0
 0 C  dxy             0.7       0.8       2.8       2.5       0.4       0.0
 0 C  f+1             0.4       0.2       0.1       0.0       0.0       0.0
 0 C  f-1             0.9       0.1       0.3       0.0       0.0       0.0
 0 C  f+2             0.0       0.0       0.0       0.0       0.0       0.6
 0 C  f-2             0.0       0.0       0.0       0.0       0.0       0.7
 0 C  f+3             0.1       0.0       0.1       0.1       0.1       0.0
 0 C  f-3             0.0       1.5       0.0       0.0       0.0       0.0
 1 C  s               8.2      22.3       4.3       3.0      15.6       0.0
 1 C  pz              0.0       0.0       0.0       0.0       0.0      12.0
 1 C  px              2.8       4.5       0.9      10.5       0.9       0.0
 1 C  py              4.3       0.9       3.5       0.4      18.2       0.0
 1 C  dz2             0.2       0.6       4.4       0.5       2.5       0.0
 1 C  dxz             0.0       0.0       0.0       0.0       0.0       3.8
 1 C  dyz             0.0       0.0       0.0       0.0       0.0       1.3
 1 C  dx2y2           3.1       0.3       1.1       1.6       2.5       0.0
 1 C  dxy             0.5       1.6       2.2       2.9       0.5       0.0
 1 C  f+1             0.0       0.4       0.1       0.0       0.0       0.0
 1 C  f-1             0.5       0.6       0.3       0.0       0.0       0.0
 1 C  f+2             0.0       0.0       0.0       0.0       0.0       1.0
 1 C  f-2             0.0       0.0       0.0       0.0       0.0       0.2
 1 C  f+3             0.1       0.0       0.1       0.0       0.2       0.0
 1 C  f-3             1.0       0.5       0.0       0.1       0.0       0.0
 2 C  s               7.0      23.5       4.3      18.4       0.2       0.0
 2 C  pz              0.0       0.0       0.0       0.0       0.0       0.2
 2 C  px              1.3       3.2       4.5      20.9       0.1       0.0
 2 C  py              5.9       2.1       0.0       0.0       8.9       0.0
 2 C  dz2             0.2       0.6       4.5       3.0       0.0       0.0
 2 C  dyz             0.0       0.0       0.0       0.0       0.0       4.3
 2 C  dx2y2           0.4       0.5       3.3       2.6       0.0       0.0
 2 C  dxy             3.4       1.2       0.0       0.0       4.8       0.0
 2 C  f+1             0.3       1.0       0.4       0.0       0.0       0.0
 2 C  f-1             0.1       0.1       0.0       0.0       0.1       0.0
 2 C  f-2             0.0       0.0       0.0       0.0       0.0       0.8
 2 C  f+3             0.0       0.2       0.1       0.2       0.0       0.0
 2 C  f-3             1.2       0.3       0.0       0.0       0.0       0.0
 3 H  s               4.2       0.0       6.4       0.6       1.0      10.5
 3 H  pz              1.4       0.0       1.4       0.6       1.1       2.7
 3 H  px              0.3       0.2       0.1       0.2       0.0       0.7
 3 H  py              0.9       0.1       0.3       0.0       0.2       1.2
 4 H  s               4.2       0.0       6.4       0.6       1.0      10.5
 4 H  pz              1.4       0.0       1.4       0.6       1.1       2.7
 4 H  px              0.3       0.2       0.1       0.2       0.0       0.7
 4 H  py              0.9       0.1       0.3       0.0       0.2       1.2
 5 H  s               1.1       3.1       6.4       0.3       1.3       8.3
 5 H  pz              0.4       1.0       1.4       0.3       1.4       2.1
 5 H  px              0.0       0.5       0.1       0.2       0.0       0.5
 5 H  py              0.5       0.5       0.3       0.0       0.1       1.0
 6 H  s               1.1       3.1       6.4       0.3       1.3       8.3
 6 H  pz              0.4       1.0       1.4       0.3       1.4       2.1
 6 H  px              0.0       0.5       0.1       0.2       0.0       0.5
 6 H  py              0.5       0.5       0.3       0.0       0.1       1.0
 7 H  s               1.0       3.2       6.4       1.6       0.0       0.1
 7 H  pz              0.3       1.0       1.4       1.6       0.0       0.0
 7 H  px              0.3       0.9       0.4       0.1       0.0       0.0
 7 H  py              0.2       0.1       0.0       0.0       0.3       0.1
 8 H  s               1.0       3.2       6.4       1.6       0.0       0.1
 8 H  pz              0.3       1.0       1.4       1.6       0.0       0.0
 8 H  px              0.3       0.9       0.4       0.1       0.0       0.0
 8 H  py              0.2       0.1       0.0       0.0       0.3       0.1

                     36        37        38        39        40        41   
                   0.61462   0.63590   0.63591   0.87160   0.92892   0.98107
                   0.00000   0.00000   0.00000   0.00000   0.00000   0.00000
                  --------  --------  --------  --------  --------  --------
 0 C  s               0.0       1.7      13.5       1.7       5.3       0.0
 0 C  pz              3.1       0.0       0.0       0.0       0.0      16.7
 0 C  px              0.0       0.2       2.7       0.5       2.3       0.0
 0 C  py              0.0       1.5       4.3       1.3       5.5       0.0
 0 C  dz2             0.0       0.7       5.2       7.4       5.8       0.0
 0 C  dxz             1.2       0.0       0.0       0.0       0.0       2.3
 0 C  dyz             3.4       0.0       0.0       0.0       0.0       1.6
 0 C  dx2y2           0.0       0.9       1.4       1.3       1.9       0.0
 0 C  dxy             0.0       1.3       2.1       6.5       9.3       0.0
 0 C  f0              0.0       0.0       0.0       0.0       0.0       0.4
 0 C  f+1             0.0       0.0       0.5       0.9       0.0       0.0
 0 C  f-1             0.0       0.3       0.7       2.3       0.0       0.0
 0 C  f+2             0.3       0.0       0.0       0.0       0.0       0.0
 0 C  f-2             0.6       0.0       0.0       0.0       0.0       0.0
 0 C  f+3             0.0       0.0       0.6       0.0       0.2       0.0
 0 C  f-3             0.0       0.6       0.0       0.0       0.0       0.0
 1 C  s               0.0       6.4       8.9       1.7       5.3       0.0
 1 C  pz              6.3       0.0       0.0       0.0       0.0      11.5
 1 C  px              0.0       0.2       2.1       0.4       1.6       0.0
 1 C  py              0.0       3.6       2.8       1.4       6.2       0.0
 1 C  dz2             0.0       2.5       3.4       7.4       5.8       0.0
 1 C  dxz             0.8       0.0       0.0       0.0       0.0       9.1
 1 C  dyz             4.0       0.0       0.0       0.0       0.0       3.1
 1 C  dx2y2           0.0       0.1       2.5       2.6       3.8       0.0
 1 C  dxy             0.0       2.6       0.5       5.1       7.4       0.0
 1 C  f0              0.0       0.0       0.0       0.0       0.0       0.3
 1 C  f+1             0.0       0.0       0.5       0.7       0.0       0.0
 1 C  f-1             0.0       0.7       0.4       2.5       0.0       0.0
 1 C  f-2             1.0       0.0       0.0       0.0       0.0       0.0
 1 C  f+3             0.0       0.4       0.3       0.0       0.2       0.0
 1 C  f-3             0.0       0.3       0.4       0.0       0.0       0.0
 2 C  s               0.0      14.8       0.5       1.7       5.3       0.0
 2 C  pz             18.1       0.0       0.0       0.0       0.0       0.5
 2 C  px              0.0       7.6       0.2       1.8       7.8       0.0
 2 C  py              0.0       0.0       0.9       0.0       0.0       0.0
 2 C  dz2             0.0       5.7       0.2       7.4       5.8       0.0
 2 C  dxz             5.5       0.0       0.0       0.0       0.0       0.1
 2 C  dyz             0.0       0.0       0.0       0.0       0.0      29.7
 2 C  dx2y2           0.0       3.5       0.2       7.7      11.1       0.0
 2 C  dxy             0.0       0.2       1.8       0.1       0.1       0.0
 2 C  f+1             0.0       1.4       0.0       3.2       0.0       0.0
 2 C  f-1             0.0       0.0       0.2       0.0       0.0       0.0
 2 C  f+2             1.3       0.0       0.0       0.0       0.0       0.0
 2 C  f-2             0.0       0.0       0.0       0.0       0.0       0.1
 2 C  f+3             0.0       0.6       0.1       0.0       0.2       0.0
 2 C  f-3             0.0       0.1       0.6       0.0       0.0       0.0
 3 H  s               2.1       1.3      10.2       2.9       0.3       1.8
 3 H  pz              0.5       0.2       1.7       1.6       0.2       0.1
 3 H  px              0.0       0.0       0.2       0.3       0.3       0.1
 3 H  py              0.4       0.0       0.4       0.8       0.7       2.6
 4 H  s               2.1       1.3      10.2       2.9       0.3       1.8
 4 H  pz              0.5       0.2       1.7       1.6       0.2       0.1
 4 H  px              0.0       0.0       0.2       0.3       0.3       0.1
 4 H  py              0.4       0.0       0.4       0.8       0.7       2.6
 5 H  s               4.3       4.8       6.7       2.9       0.3       1.2
 5 H  pz              1.1       0.8       1.1       1.6       0.2       0.1
 5 H  px              0.0       0.0       0.1       0.2       0.2       0.3
[...]
 2 C  f-3             0.0       0.0       1.9       3.8       0.0       0.0
 3 H  s               0.8       1.8       0.0       0.0       2.9       5.3
 3 H  pz              0.5       1.2       0.0       0.0       0.4       1.5
 3 H  px              0.1       0.1       0.1       0.0       0.1       0.3
 3 H  py              0.1       0.4       0.0       0.0       0.3       0.9
 4 H  s               0.8       1.8       0.0       0.0       2.9       5.3
 4 H  pz              0.5       1.2       0.0       0.0       0.4       1.5
 4 H  px              0.1       0.1       0.1       0.0       0.1       0.3
 4 H  py              0.1       0.4       0.0       0.0       0.3       0.9
 5 H  s               0.5       2.1       0.0       0.0       2.9       2.4
 5 H  pz              0.3       1.3       0.0       0.0       0.4       0.7
 5 H  py              0.0       0.4       0.0       0.0       0.3       0.6
 6 H  s               0.5       2.1       0.0       0.0       2.9       2.4
 6 H  pz              0.3       1.3       0.0       0.0       0.4       0.7
 6 H  py              0.0       0.4       0.0       0.0       0.3       0.6
 7 H  s               2.6       0.0       0.0       0.0       2.9       0.6
 7 H  pz              1.7       0.0       0.0       0.0       0.4       0.2
 7 H  px              0.6       0.0       0.0       0.0       0.4       0.1
 8 H  s               2.6       0.0       0.0       0.0       2.9       0.6
 8 H  pz              1.7       0.0       0.0       0.0       0.4       0.2
 8 H  px              0.6       0.0       0.0       0.0       0.4       0.1

                    120       121       122       123       124       125   
                   4.54128   4.63902   4.63908   4.89571   4.89576   5.02247
                   0.00000   0.00000   0.00000   0.00000   0.00000   0.00000
                  --------  --------  --------  --------  --------  --------
 0 C  s               0.0       2.4       0.5      12.0       3.6       0.0
 0 C  pz              0.1       0.0       0.0       0.0       0.0       0.0
 0 C  px              0.0       4.8       2.9       0.3       0.4       6.1
 0 C  py              0.0      15.9       1.9       0.6       0.3       2.6
 0 C  dz2             0.0       9.1       1.9       0.4       0.1       0.0
 0 C  dxz             2.0       0.0       0.0       0.0       0.0       0.0
 0 C  dyz             0.1       0.0       0.0       0.0       0.0       0.0
 0 C  dx2y2           0.0       1.3       1.3       4.2       2.5      12.1
 0 C  dxy             0.0       0.9       1.3       3.9       4.3       2.5
 0 C  f0              0.6       0.0       0.0       0.0       0.0       0.0
 0 C  f+1             0.0       1.0       0.4       6.2       1.2       0.8
 0 C  f-1             0.0       3.0       0.5      13.0       4.6       0.3
 0 C  f+2             3.7       0.0       0.0       0.0       0.0       0.0
 0 C  f-2             0.5       0.0       0.0       0.0       0.0       0.0
 0 C  f+3             0.0       2.5       0.2       0.1       0.0       0.2
 0 C  f-3             0.0       0.2       2.3       0.0       0.0       8.9
 1 C  s               0.0       2.0       1.0      11.4       4.2       0.0
 1 C  pz              1.6       0.0       0.0       0.0       0.0       0.0
 1 C  px              0.0       2.2       3.5       0.2       0.4       6.9
 1 C  py              0.0      14.6       5.2       0.7       0.3       1.8
 1 C  dz2             0.0       7.4       3.7       0.4       0.1       0.0
 1 C  dxz             5.4       0.0       0.0       0.0       0.0       0.0
 1 C  dyz             9.2       0.0       0.0       0.0       0.0       0.0
 1 C  dx2y2           0.0       2.1       0.5       5.7       1.3       9.6
 1 C  dxy             0.0       0.3       2.1       2.3       5.6       4.9
 1 C  f0              8.9       0.0       0.0       0.0       0.0       0.0
 1 C  f+1             0.0       0.5       0.5       4.3       0.9       0.8
 1 C  f-1             0.0       2.8       1.1      13.8       5.8       0.2
 1 C  f+2             2.2       0.0       0.0       0.0       0.0       0.0
 1 C  f+3             0.0       1.4       1.3       0.1       0.0       0.2
 1 C  f-3             0.0       1.2       1.3       0.0       0.0       8.9
 2 C  s               0.0       0.0       2.9       0.0      15.6       0.0
 2 C  pz              2.6       0.0       0.0       0.0       0.0       0.0
 2 C  px              0.0       0.2      24.7       0.0       1.0       0.0
 2 C  py              0.0       0.5       0.1       0.6       0.0       8.7
 2 C  dz2             0.0       0.1      11.0       0.0       0.5       0.0
 2 C  dxz            22.2       0.0       0.0       0.0       0.0       0.0
 2 C  dyz             0.3       0.0       0.0       0.0       0.0       0.0
 2 C  dx2y2           0.0       0.1       2.0       0.1       8.6       0.1
 2 C  dxy             0.0       2.7       0.1       6.1       0.1      14.4
 2 C  f0             14.3       0.0       0.0       0.0       0.0       0.0
 2 C  f+1             0.0       0.0       4.9       0.0      24.7       0.0
 2 C  f-1             0.0       0.0       0.0       0.1       0.1       1.1
 2 C  f+2             0.7       0.0       0.0       0.0       0.0       0.0
 2 C  f-2             0.3       0.0       0.0       0.0       0.0       0.0
 2 C  f+3             0.0       0.1       2.6       0.0       0.2       0.2
 2 C  f-3             0.0       2.4       0.2       0.0       0.0       8.9
 3 H  s               0.2       4.1       0.9       3.2       0.9       0.0
 3 H  pz              0.1       0.6       0.1       0.2       0.1       0.0
 3 H  px              0.2       0.1       0.0       0.0       0.0       0.0
 3 H  py              0.0       0.2       0.1       0.1       0.0       0.0
 4 H  s               0.2       4.1       0.9       3.2       0.9       0.0
 4 H  pz              0.1       0.6       0.1       0.2       0.1       0.0
 4 H  px              0.2       0.1       0.0       0.0       0.0       0.0
 4 H  py              0.0       0.2       0.1       0.1       0.0       0.0
 5 H  s               3.1       3.3       1.7       3.0       1.1       0.0
 5 H  pz              0.9       0.5       0.2       0.2       0.1       0.0
 5 H  px              0.3       0.1       0.0       0.0       0.0       0.0
 5 H  py              0.4       0.1       0.1       0.1       0.0       0.0
 6 H  s               3.1       3.3       1.7       3.0       1.1       0.0
 6 H  pz              0.9       0.5       0.2       0.2       0.1       0.0
 6 H  px              0.3       0.1       0.0       0.0       0.0       0.0
 6 H  py              0.4       0.1       0.1       0.1       0.0       0.0
 7 H  s               5.0       0.0       4.9       0.0       4.1       0.0
 7 H  pz              1.4       0.0       0.7       0.0       0.2       0.0
 7 H  px              1.1       0.0       0.3       0.0       0.2       0.0
 8 H  s               5.0       0.0       4.9       0.0       4.1       0.0
 8 H  pz              1.4       0.0       0.7       0.0       0.2       0.0
 8 H  px              1.1       0.0       0.3       0.0       0.2       0.0

                    126       127       128   
                  22.42026  22.50755  22.50764
                   0.00000   0.00000   0.00000
                  --------  --------  --------
 0 C  s              32.9      43.1      22.9
 1 C  s              32.9       0.7      65.2
 1 C  py              0.1       0.0       0.0
 2 C  s              32.9      55.1      10.8
 2 C  px              0.1       0.0       0.0
 3 H  s               0.1       0.1       0.1
 4 H  s               0.1       0.1       0.1
 5 H  s               0.1       0.0       0.2
 6 H  s               0.1       0.0       0.2
 7 H  s               0.1       0.1       0.0
 8 H  s               0.1       0.1       0.0


                      *****************************
                      * MAYER POPULATION ANALYSIS *
                      *****************************

  NA   - Mulliken gross atomic population
  ZA   - Total nuclear charge
  QA   - Mulliken gross atomic charge
  VA   - Mayer's total valence
  BVA  - Mayer's bonded valence
  FA   - Mayer's free valence

  ATOM       NA         ZA         QA         VA         BVA        FA
  0 C      6.2120     6.0000    -0.2120     3.8833     3.8833     0.0000
  1 C      6.2116     6.0000    -0.2116     3.8831     3.8831     0.0000
  2 C      6.2110     6.0000    -0.2110     3.8828     3.8828    -0.0000
  3 H      0.8942     1.0000     0.1058     0.9770     0.9770     0.0000
  4 H      0.8942     1.0000     0.1058     0.9770     0.9770     0.0000
  5 H      0.8942     1.0000     0.1058     0.9770     0.9770     0.0000
  6 H      0.8942     1.0000     0.1058     0.9770     0.9770     0.0000
  7 H      0.8943     1.0000     0.1057     0.9771     0.9771     0.0000
  8 H      0.8943     1.0000     0.1057     0.9771     0.9771    -0.0000

  Mayer bond orders larger than 0.100000
B(  0-C ,  1-C ) :   0.9692 B(  0-C ,  2-C ) :   0.9689 B(  0-C ,  3-H ) :   0.9722 
B(  0-C ,  4-H ) :   0.9722 B(  1-C ,  2-C ) :   0.9688 B(  1-C ,  5-H ) :   0.9722 
B(  1-C ,  6-H ) :   0.9722 B(  2-C ,  7-H ) :   0.9722 B(  2-C ,  8-H ) :   0.9722 


-------
TIMINGS
-------

Total SCF time: 0 days 0 hours 0 min 11 sec 

Total time                  ....      11.507 sec
Sum of individual times     ....      11.136 sec  ( 96.8%)

SCF preparation             ....       0.036 sec  (  0.3%)
Fock matrix formation       ....      10.981 sec  ( 95.4%)
  Startup                   ....       0.001 sec  (  0.0% of F)
  Split-RI-J                ....       0.315 sec  (  2.9% of F)
  Chain of spheres X        ....       9.252 sec  ( 84.3% of F)
  XC integration            ....       1.761 sec  ( 16.0% of F)
    XC Preparation          ....       0.000 sec  (  0.0% of XC)
    Basis function eval.    ....       0.488 sec  ( 27.7% of XC)
    Density eval.           ....       0.303 sec  ( 17.2% of XC)
    XC-Functional eval.     ....       0.520 sec  ( 29.5% of XC)
    XC-Potential eval.      ....       0.411 sec  ( 23.4% of XC)
Diagonalization             ....       0.000 sec  (  0.0%)
Density matrix formation    ....       0.015 sec  (  0.1%)
Total Energy calculation    ....       0.001 sec  (  0.0%)
Population analysis         ....       0.036 sec  (  0.3%)
Orbital Transformation      ....       0.011 sec  (  0.1%)
Orbital Orthonormalization  ....       0.000 sec  (  0.0%)
DIIS solution               ....       0.019 sec  (  0.2%)
  MO trafo                  ....       0.000 sec  (  0.0 % of DIIS)
  Orb grad                  ....       0.000 sec  (  0.0 % of DIIS)
  Energy W gradient         ....       0.000 sec  (  0.0 % of DIIS)
  DIIS error                ....       0.001 sec  (  5.9 % of DIIS)
  DIIS work                 ....       0.009 sec  ( 48.0 % of DIIS)
  Form Q                    ....       0.000 sec  (  0.0 % of DIIS)
  Form QpQm                 ....       0.000 sec  (  0.0 % of DIIS)
  Exp/Cayley                ....       0.000 sec  (  0.0 % of DIIS)
  Orb update                ....       0.000 sec  (  0.0 % of DIIS)
  Wake-sleep                ....       0.000 sec  (  1.0 % of DIIS)
SOSCF solution              ....       0.005 sec  (  0.0%)
  MO trafo                  ....       0.003 sec  ( 59.5 % of SOSCF)
  Orb grad                  ....       0.000 sec  (  1.1 % of SOSCF)
  Rot update                ....       0.000 sec  (  4.3 % of SOSCF)
  Step                      ....       0.002 sec  ( 34.5 % of SOSCF)
Grid generation             ....       0.032 sec  (  0.3%)
Finished LeanSCF after  11.5 sec

Maximum memory used throughout the entire LEANSCF-calculation: 13.5 MB
------------------   -----------------
gCP correction             0.005389716
------------------   -----------------

-------------------------   --------------------
FINAL SINGLE POINT ENERGY      -117.898830290271
-------------------------   --------------------


------------------------------------------------------------------------------
                              ORCA PROPERTY CALCULATIONS
------------------------------------------------------------------------------

GBWName                                 ... sp.gbw
Number of atoms                         ...      9
Number of basis functions               ...    129
Max core memory                         ...   1024 MB

Electric properties:
Dipole moment                           ... YES
Quadrupole moment                       ...  NO
Static polarizability (Dipole/Dipole)   ...  NO
Static polarizability (Dipole/Quad.)    ...  NO
Static polarizability (Quad./Quad.)     ...  NO
Static polarizability (Velocity)        ...  NO

Atomic electric properties:
Dipole moment                           ...  NO
Quadrupole moment                       ...  NO
Static polarizability                   ...  NO

Choice of electric origin               ... Center of mass
Position of electric origin             ...     0.000014     0.000006    -0.000013

General magnetic properties:
Magnetizability                         ...  NO

EPR properties:
g-Tensor (aka g-matrix)                 ...  NO
Zero-Field splitting spin-orbit         ...  NO
Zero-field splitting spin-spin          ...  NO
Hyperfine couplings                     ...  NO (   0 nuclei)
Quadrupole couplings                    ...  NO (   0 nuclei)
Contact density                         ...  NO (   0 nuclei)

NMR properties:
Chemical shifts                         ...  NO (   0 nuclei)
Spin-rotation constants                 ...  NO (   0 nuclei)
Spin-spin couplings                     ...  NO (   0 nuclei,    0 pairs)

Choice of magnetic origin               ... GIAO
Position of magnetic origin             ...     0.000000     0.000000     0.000000

Properties with geometric perturbations:
SCF Hessian                             ...  NO
IR spectrum                             ...  NO
VCD spectrum                            ...  NO
X-ray spectroscopy properties:
SCF XES/XAS/RIXS spectra                ...  NO


-------------
DIPOLE MOMENT
-------------

Method             : SCF
Type of density    : Electron Density
Multiplicity       :   1
Irrep              :   0
Energy             :  -117.9042200060705312 Eh
Relativity type    : 
Basis              : AO
                                X                 Y                 Z
Electronic contribution:      0.000085604      -0.000114861       0.000003548
Nuclear contribution   :      0.000100267      -0.000050276      -0.000003480
                        -----------------------------------------
Total Dipole Moment    :      0.000185871      -0.000165137       0.000000069
                        -----------------------------------------
Magnitude (a.u.)       :      0.000248633
Magnitude (Debye)      :      0.000631974



--------------------
Rotational spectrum 
--------------------
 
Rotational constants in cm-1:             0.673695             0.673650             0.421732 
Rotational constants in MHz :         20196.879904         20195.508210         12643.210869 

Dipole components along the rotational axes: 
x,y,z [a.u.] :    -0.000009    -0.000248     0.000000 
x,y,z [Debye]:    -0.000022    -0.000632     0.000000 

 

Dipole moment calculation done in   0.0 sec 

Maximum memory used throughout the entire PROP-calculation: 7.9 MB

--------------------------------
SUGGESTED CITATIONS FOR THIS RUN
--------------------------------

Below you find a list of papers that are relevant to this ORCA run
We neither can nor want to force you to cite these papers, but we appreciate if you do
You receive ORCA, which is the product of decades of hard work by many enthusiastic individuals, for free
The only thing we kindly ask in return is that you cite our papers,
We deeply appreciate it, if you show your appreciation for ORCA by not just citing the generic ORCA reference.

Please note that relegating all ORCA citations to the supporting information does *not* help us.
SI sections are not indexed - citations you put there will not count into any citation statistics
But we need these citations in order to attract the funding resources that allow us to do what we are doing

Therefore, if you are a happy ORCA user, please consider citing a few of the papers listed below in the main body of your paper

In addition to the list printed below, the program has created the file sp.bibtex that contains the list in bibtex format
You can import this file easily into all common literature databanks and citation aid programs


List of essential papers. We consider these as the minimum necessary citations

  1. Neese,F.
     Software update: the ORCA program system, version 5.0
     WIRES Comput. Molec. Sci., 2022 12(1)e1606
     doi.org/10.1002/wcms.1606

List of papers to cite with high priority. The work reported in these papers was absolutely
necessary for this run to complete.
Our perspective: the developers of density functionals and basis sets usually get cited in chemistry papers
Good! But without the algorithms to do something with them, the functionals or basis sets would not do anything.
Hence, in our opinion, the algorithm design and method developments papers are equally worthy of getting cited

  1. Neese,F.
     An improvement of the resolution of the identity approximation for the formation of the Coulomb matrix
     J. Comp. Chem., 2003 24(14)1740-1747
     doi.org/10.1002/jcc.10318
  2. Neese,F.; Wennmohs,F.; Hansen,A.; Becker,U.
     Efficient, approximate and parallel Hartree-Fock and hybrid DFT calculations. A 'chain-of-spheres' algorithm for the Hartree-Fock exchange
     Chem. Phys., 2009 356(1-3)98-109
     doi.org/10.1016/j.chemphys.2008.10.036
  3. Helmich-Paris,B.; de Souza,B.; Neese,F.; Izsák,R.
     An improved chain of spheres for exchange algorithm
     J. Chem. Phys., 2021 155 104109
     doi.org/doi: 10.1063/5.0058766.
  4. Neese,F.
     The SHARK Integral Generation and Digestion System
     J. Comp. Chem., 2022  1-16
     doi.org/10.1002/jcc.26942

List of suggested additional citations. These are papers that are important in the 'surrounding' of 
of this run, or papers that preceded the highly important papers. If you like your results we are grateful for a citation.

  1. Izsak,R.; Neese,F.
     An overlap fitted chain of spheres exchange method
     J. Chem. Phys., 2011 135 144105
     doi.org/10.1063/1.3646921
  2. Izsak,R.; Hansen,A.; Neese,F.
     The resolution of identity and chain of spheres approximations for the LPNO-CCSD singles Fock term
     Molec. Phys., 2012 110 2413-2417
     doi.org/10.1080/00268976.2012.687466
  3. Neese,F.
     The ORCA program system
     WIRES Comput. Molec. Sci., 2012 2(1)73-78
     doi.org/10.1002/wcms.81
  4. Izsak,R.; Neese,F.; Klopper,W.
     Robust fitting techniques in the chain of spheres approximation to the Fock exchange: The role of the complementary space
     J. Chem. Phys., 2013 139 
     doi.org/10.1063/1.4819264
  5. Neese,F.
     Software update: the ORCA program system, version 4.0
     WIRES Comput. Molec. Sci., 2018 8(1)1-6
     doi.org/10.1002/wcms.1327
  6. Neese,F.; Wennmohs,F.; Becker,U.; Riplinger,C.
     The ORCA quantum chemistry program package
     J. Chem. Phys., 2020 152 Art. No. L224108
     doi.org/10.1063/5.0004608

List of optional additional citations

  1. Neese,F.
     Approximate second-order SCF convergence for spin unrestricted wavefunctions
     Chem. Phys. Lett., 2000 325(1-3)93-98
     doi.org/10.1016/s0009-2614(00)00662-x

Timings for individual modules:

Sum of individual times          ...       11.939 sec (=   0.199 min)
Startup calculation              ...        0.344 sec (=   0.006 min)   2.9 %
SCF iterations                   ...       11.564 sec (=   0.193 min)  96.9 %
Property calculations            ...        0.031 sec (=   0.001 min)   0.3 %
                             ****ORCA TERMINATED NORMALLY****
TOTAL RUN TIME: 0 days 0 hours 0 minutes 11 seconds 978 msec
