      -----------------------------------------------------------      
     |                   =====================                   |     
     |                           x T B                           |     
     |                   =====================                   |     
     |                         S. Grimme                         |     
     |          Mulliken Center for Theoretical Chemistry        |     
     |                    University of Bonn                     |     
      -----------------------------------------------------------      

   * xtb version 6.7.1 (41059b4) compiled by 'michael@archlinux' on 2025-03-24

   xtb is free software: you can redistribute it and/or modify it under
   the terms of the GNU Lesser General Public License as published by
   the Free Software Foundation, either version 3 of the License, or
   (at your option) any later version.
   
   xtb is distributed in the hope that it will be useful,
   but WITHOUT ANY WARRANTY; without even the implied warranty of
   MERCHANTABILITY or FITNESS FOR A PARTICULAR PURPOSE.  See the
   GNU Lesser General Public License for more details.
   
   Cite this work as:
   * C. Bannwarth, E. Caldeweyher, S. Ehlert, A. Hansen, P. Pracht,
     J. Seibert, S. Spicher, S. Grimme, WIREs Comput. Mol. Sci., 2020, 11,
     e01493. DOI: 10.1002/wcms.1493
   
   for GFN2-xTB:
   * C. Bannwarth, S. Ehlert and S. Grimme., J. Chem. Theory Comput., 2019,
     15, 1652-1671. DOI: 10.1021/acs.jctc.8b01176
   for GFN1-xTB:
   * S. Grimme, C. Bannwarth, P. Shushkov, J. Chem. Theory Comput., 2017,
     13, 1989-2009. DOI: 10.1021/acs.jctc.7b00118
   for GFN0-xTB:
   * P. Pracht, E. Caldeweyher, S. Ehlert, S. Grimme, ChemRxiv, 2019, preprint.
     DOI: 10.26434/chemrxiv.8326202.v1
   for GFN-FF:
   * S. Spicher and S. Grimme, Angew. Chem. Int. Ed., 2020, 59, 15665-15673.
     DOI: 10.1002/anie.202004239
   
   for ALPB and GBSA implicit solvation:
   * S. Ehlert, M. Stahn, S. Spicher, S. Grimme, J. Chem. Theory Comput.,
     2021, 17, 4250-4261. DOI: 10.1021/acs.jctc.1c00471
   
   for ddCOSMO and CPCM-X implicit solvation:
   * M. Stahn, S. Ehlert, S. Grimme, J. Phys. Chem. A,
     2023, XX, XXXX-XXXX. DOI: 10.1021/acs.jpca.3c04382
   
   for DFT-D4:
   * E. Caldeweyher, C. Bannwarth and S. Grimme, J. Chem. Phys., 2017,
     147, 034112. DOI: 10.1063/1.4993215
   * E. Caldeweyher, S. Ehlert, A. Hansen, H. Neugebauer, S. Spicher,
     C. Bannwarth and S. Grimme, J. Chem. Phys., 2019, 150, 154122.
     DOI: 10.1063/1.5090222
   * E. Caldeweyher, J.-M. Mewes, S. Ehlert and S. Grimme, Phys. Chem. Chem. Phys.
     2020, 22, 8499-8512. DOI: 10.1039/D0CP00502A
   
   for sTDA-xTB:
   * S. Grimme and C. Bannwarth, J. Chem. Phys., 2016, 145, 054103.
     DOI: 10.1063/1.4959605
   
   in the mass-spec context:
   * V. Asgeirsson, C. Bauer and S. Grimme, Chem. Sci., 2017, 8, 4879.
     DOI: 10.1039/c7sc00601b
   * J. Koopman and S. Grimme, ACS Omega 2019, 4, 12, 15120-15133.
     DOI: 10.1021/acsomega.9b02011
   
   for metadynamics refer to:
   * S. Grimme, J. Chem. Theory Comput., 2019, 155, 2847-2862
     DOI: 10.1021/acs.jctc.9b00143
   
   for SPH calculations refer to:
   * S. Spicher and S. Grimme, J. Chem. Theory Comput., 2021, 17, 1701-1714
     DOI: 10.1021/acs.jctc.0c01306
   
   for ONIOM refer to:
   * C. Plett, A. Katbashev, S. Ehlert, S. Grimme, M. Bursch,
     Phys. Chem. Chem. Phys., 2023, 25, 17860-17868. DOI: 10.1039/D3CP02178E
   
   for DIPRO refer to:
   * J. Kohn, N. Gildemeister, S. Grimme, D. Fazzi, A. Hansen,
     J. Chem. Phys., 2023, just accepted.
   
   for PTB refer to:
   * S. Grimme, M. Mueller, A. Hansen, J. Chem. Phys., 2023, 158, 124111.
     DOI: 10.1063/5.0137838
   
   with help from (in alphabetical order)
   P. Atkinson, C. Bannwarth, F. Bohle, G. Brandenburg, E. Caldeweyher
   M. Checinski, S. Dohm, S. Ehlert, S. Ehrlich, I. Gerasimov, C. Hölzer
   A. Katbashev, J. Kohn, J. Koopman, C. Lavigne, S. Lehtola, F. März, M. Müller,
   F. Musil, H. Neugebauer, J. Pisarek, C. Plett, P. Pracht, F. Pultar,
   J. Seibert, P. Shushkov, S. Spicher, M. Stahn, M. Steiner, T. Strunk,
   J. Stückrath, T. Rose, and J. Unsleber
   
 * started run on 2025/04/09 at 02:52:38.140     
   ID    Z sym.   atoms
    1    6 C      1-3
    2   17 Cl     4
    3    1 H      5-11

           -------------------------------------------------
          |                Calculation Setup                |
           -------------------------------------------------

          program call               : /usr/bin/xtb xtb_rrho.coord --gfn2 --ohess vtight --chrg 0 --enso --norestart -I rrho-xcontrol-inp --parallel 1
          coordinate file            : xtb_rrho.coord
          omp threads                :                     1


           -------------------------------------------------
          |                 G F N 2 - x T B                 |
           -------------------------------------------------

        Reference                      10.1021/acs.jctc.8b01176
      * Hamiltonian:
        H0-scaling (s, p, d)           1.850000    2.230000    2.230000
        zeta-weighting                 0.500000
      * Dispersion:
        s8                             2.700000
        a1                             0.520000
        a2                             5.000000
        s9                             5.000000
      * Repulsion:
        kExp                           1.500000    1.000000
        rExp                           1.000000
      * Coulomb:
        alpha                          2.000000
        third order                    shell-resolved
        anisotropic                    true
        a3                             3.000000
        a5                             4.000000
        cn-shift                       1.200000
        cn-exp                         4.000000
        max-rad                        5.000000


          ...................................................
          :                      SETUP                      :
          :.................................................:
          :  # basis functions                  29          :
          :  # atomic orbitals                  28          :
          :  # shells                           16          :
          :  # electrons                        26          :
          :  max. iterations                   250          :
          :  Hamiltonian                  GFN2-xTB          :
          :  restarted?                      false          :
          :  GBSA solvation                  false          :
          :  PC potential                    false          :
          :  electronic temp.          300.0000000     K    :
          :  accuracy                    1.0000000          :
          :  -> integral cutoff          0.2500000E+02      :
          :  -> integral neglect         0.1000000E-07      :
          :  -> SCF convergence          0.1000000E-05 Eh   :
          :  -> wf. convergence          0.1000000E-03 e    :
          :  Broyden damping             0.4000000          :
          :  net charge                          0          :
          :  unpaired electrons                  0          :
          ...................................................

 iter      E             dE          RMSdq      gap      omega  full diag
   1    -14.6413334 -0.146413E+02  0.372E+00    7.21       0.0  T
   2    -14.6854529 -0.441195E-01  0.219E+00    6.45       1.0  T
   3    -14.6867986 -0.134568E-02  0.110E+00    6.62       1.0  T
   4    -14.6871063 -0.307751E-03  0.152E-01    6.54       1.0  T
   5    -14.6871743 -0.679838E-04  0.745E-02    6.56       1.0  T
   6    -14.6871782 -0.385466E-05  0.266E-02    6.55       1.1  T
   7    -14.6871798 -0.157319E-05  0.195E-02    6.55       1.5  T
   8    -14.6871815 -0.174570E-05  0.110E-02    6.54       2.7  T
   9    -14.6871822 -0.697490E-06  0.170E-03    6.54      17.8  T
  10    -14.6871822 -0.447270E-08  0.382E-04    6.54      78.8  T
  11    -14.6871822 -0.137272E-09  0.726E-05    6.54     415.3  T

   *** convergence criteria satisfied after 11 iterations ***

         #    Occupation            Energy/Eh            Energy/eV
      -------------------------------------------------------------
         1        2.0000           -1.0462167             -28.4690
       ...           ...                  ...                  ...
         7        2.0000           -0.5071312             -13.7997
         8        2.0000           -0.4904890             -13.3469
         9        2.0000           -0.4656577             -12.6712
        10        2.0000           -0.4620709             -12.5736
        11        2.0000           -0.4469034             -12.1609
        12        2.0000           -0.4110046             -11.1840
        13        2.0000           -0.4092186             -11.1354 (HOMO)
        14                         -0.1689773              -4.5981 (LUMO)
        15                          0.0223078               0.6070
        16                          0.0277370               0.7548
        17                          0.0325018               0.8844
        18                          0.0327623               0.8915
       ...                                ...                  ...
        28                          0.2793763               7.6022
      -------------------------------------------------------------
                  HL-Gap            0.2402413 Eh            6.5373 eV
             Fermi-level           -0.2890979 Eh           -7.8668 eV

 SCC (total)                   0 d,  0 h,  0 min,  0.004 sec
 SCC setup                      ...        0 min,  0.000 sec (  1.621%)
 Dispersion                     ...        0 min,  0.000 sec (  0.915%)
 classical contributions        ...        0 min,  0.000 sec (  0.410%)
 integral evaluation            ...        0 min,  0.000 sec ( 14.139%)
 iterations                     ...        0 min,  0.002 sec ( 50.307%)
 molecular gradient             ...        0 min,  0.001 sec ( 30.956%)
 printout                       ...        0 min,  0.000 sec (  1.459%)

         :::::::::::::::::::::::::::::::::::::::::::::::::::::
         ::                     SUMMARY                     ::
         :::::::::::::::::::::::::::::::::::::::::::::::::::::
         :: total energy             -14.542003548766 Eh    ::
         :: gradient norm              0.019217960925 Eh/a0 ::
         :: HOMO-LUMO gap              6.537297822215 eV    ::
         ::.................................................::
         :: SCC energy               -14.687180337487 Eh    ::
         :: -> isotropic ES            0.007340478656 Eh    ::
         :: -> anisotropic ES          0.001460371340 Eh    ::
         :: -> anisotropic XC          0.007877234393 Eh    ::
         :: -> dispersion             -0.005125120021 Eh    ::
         :: repulsion energy           0.145176788720 Eh    ::
         :: add. restraining           0.000000000000 Eh    ::
         :: total charge              -0.000000000000 e     ::
         :::::::::::::::::::::::::::::::::::::::::::::::::::::

      ----------------------------------------------------------- 
     |                   =====================                   |
     |                        A N C O P T                        |
     |                   =====================                   |
     |               Approximate Normal Coordinate               |
     |                Rational Function Optimizer                |
      ----------------------------------------------------------- 

          ...................................................
          :                      SETUP                      :
          :.................................................:
          :   optimization level         verytight          :
          :   max. optcycles                   220          :
          :   ANC micro-cycles                  20          :
          :   degrees of freedom                27          :
          :.................................................:
          :   RF solver                   davidson          :
          :   write xtbopt.log                true          :
          :   linear?                        false          :
          :   energy convergence         0.1000000E-06 Eh   :
          :   grad. convergence          0.2000000E-03 Eh/α :
          :   maximum RF displ.          1.0000000          :
          :   Hlow (freq-cutoff)         0.1000000E-01      :
          :   Hmax (freq-cutoff)         5.0000000          :
          :   S6 in model hess.         20.0000000          :
          ...................................................

generating ANC from exact Hessian ...
Using Lindh-Hessian (1995)
 Shifting diagonal of input Hessian by    3.4909122636853857E-003
 Lowest  eigenvalues of input Hessian
    0.000000    0.000000    0.000000    0.000000    0.000000    0.000000
    0.010000    0.013219    0.014204    0.031456    0.041520    0.051107
    0.055080    0.061085    0.064052    0.078723    0.079677    0.114992
 Highest eigenvalues
    1.009605    1.080697    1.083913    1.161113    1.206705    1.243862


........................................................................
.............................. CYCLE    1 ..............................
........................................................................

 iter      E             dE          RMSdq      gap      omega  full diag
   1    -14.6871822 -0.146872E+02  0.381E-05    6.54       0.0  T
   2    -14.6871822 -0.427569E-11  0.263E-05    6.54    1145.9  T
   3    -14.6871822 -0.998313E-12  0.211E-05    6.54    1426.3  T
     SCC iter.                  ...        0 min,  0.001 sec
     gradient                   ...        0 min,  0.001 sec
 * total energy  :   -14.5420035 Eh     change       -0.8787637E-11 Eh
   gradient norm :     0.0192180 Eh/α   predicted     0.0000000E+00 (-100.00%)
   displ. norm   :     0.0930488 α      lambda       -0.1004450E-02
   maximum displ.:     0.0473314 α      in ANC's #4, #7, #13, ...

........................................................................
.............................. CYCLE    2 ..............................
........................................................................

 iter      E             dE          RMSdq      gap      omega  full diag
   1    -14.6921992 -0.146922E+02  0.151E-01    6.76       0.0  T
   2    -14.6922080 -0.876813E-05  0.927E-02    6.75       1.0  T
   3    -14.6922116 -0.367224E-05  0.309E-02    6.75       1.0  T
   4    -14.6922142 -0.256039E-05  0.225E-02    6.74       1.3  T
   5    -14.6922162 -0.203828E-05  0.138E-02    6.74       2.2  T
   6    -14.6922174 -0.117418E-05  0.279E-03    6.73      10.8  T
   7    -14.6922174 -0.891894E-08  0.117E-03    6.73      25.7  T
   8    -14.6922174 -0.266208E-08  0.507E-04    6.73      59.5  T
   9    -14.6922174 -0.104149E-08  0.153E-04    6.73     196.8  T
     SCC iter.                  ...        0 min,  0.001 sec
     gradient                   ...        0 min,  0.001 sec
 * total energy  :   -14.5426126 Eh     change       -0.6090234E-03 Eh
   gradient norm :     0.0105898 Eh/α   predicted    -0.5065723E-03 ( -16.82%)
   displ. norm   :     0.0267134 α      lambda       -0.2127897E-03
   maximum displ.:     0.0135914 α      in ANC's #18, #21, #11, ...

........................................................................
.............................. CYCLE    3 ..............................
........................................................................

 iter      E             dE          RMSdq      gap      omega  full diag
   1    -14.6943232 -0.146943E+02  0.530E-02    6.87       0.0  T
   2    -14.6943257 -0.253399E-05  0.357E-02    6.87       1.0  T
   3    -14.6943267 -0.963147E-06  0.161E-02    6.87       1.9  T
   4    -14.6943273 -0.674585E-06  0.110E-02    6.87       2.8  T
   5    -14.6943277 -0.415579E-06  0.757E-03    6.86       4.0  T
   6    -14.6943281 -0.348423E-06  0.226E-03    6.86      13.4  T
   7    -14.6943281 -0.160939E-07  0.340E-04    6.86      88.7  T
   8    -14.6943281 -0.231942E-09  0.169E-04    6.86     178.0  T
     SCC iter.                  ...        0 min,  0.001 sec
     gradient                   ...        0 min,  0.001 sec
 * total energy  :   -14.5427397 Eh     change       -0.1271646E-03 Eh
   gradient norm :     0.0044497 Eh/α   predicted    -0.1064706E-03 ( -16.27%)
   displ. norm   :     0.0138678 α      lambda       -0.4224613E-04
   maximum displ.:     0.0074799 α      in ANC's #4, #21, #11, ...

........................................................................
.............................. CYCLE    4 ..............................
........................................................................

 iter      E             dE          RMSdq      gap      omega  full diag
   1    -14.6940110 -0.146940E+02  0.228E-02    6.92       0.0  T
   2    -14.6940114 -0.351440E-06  0.152E-02    6.92       2.0  T
   3    -14.6940116 -0.189534E-06  0.662E-03    6.92       4.6  T
   4    -14.6940117 -0.109821E-06  0.497E-03    6.92       6.1  T
   5    -14.6940118 -0.951723E-07  0.296E-03    6.92      10.2  T
   6    -14.6940118 -0.503560E-07  0.115E-03    6.91      26.1  T
   7    -14.6940118 -0.572503E-08  0.140E-04    6.91     215.9  T
   8    -14.6940118 -0.137064E-10  0.689E-05    6.91     437.3  T
     SCC iter.                  ...        0 min,  0.001 sec
     gradient                   ...        0 min,  0.001 sec
 * total energy  :   -14.5427653 Eh     change       -0.2553336E-04 Eh
   gradient norm :     0.0016483 Eh/α   predicted    -0.2112543E-04 ( -17.26%)
   displ. norm   :     0.0104370 α      lambda       -0.6441737E-05
   maximum displ.:     0.0061722 α      in ANC's #3, #4, #13, ...

........................................................................
.............................. CYCLE    5 ..............................
........................................................................

 iter      E             dE          RMSdq      gap      omega  full diag
   1    -14.6932437 -0.146932E+02  0.166E-02    6.93       0.0  T
   2    -14.6932438 -0.505510E-07  0.968E-03    6.93       3.1  T
   3    -14.6932438 -0.155101E-07  0.180E-03    6.93      16.8  T
   4    -14.6932438 -0.446645E-08  0.120E-03    6.93      25.0  T
   5    -14.6932438 -0.355577E-08  0.763E-04    6.93      39.5  T
   6    -14.6932438 -0.203339E-08  0.523E-04    6.93      57.7  T
     SCC iter.                  ...        0 min,  0.001 sec
     gradient                   ...        0 min,  0.001 sec
 * total energy  :   -14.5427682 Eh     change       -0.2885598E-05 Eh
   gradient norm :     0.0006663 Eh/α   predicted    -0.3220838E-05 (  11.62%)
   displ. norm   :     0.0034979 α      lambda       -0.1026976E-05
   maximum displ.:     0.0026853 α      in ANC's #4, #21, #13, ...

........................................................................
.............................. CYCLE    6 ..............................
........................................................................

 iter      E             dE          RMSdq      gap      omega  full diag
   1    -14.6933871 -0.146934E+02  0.578E-03    6.92       0.0  T
   2    -14.6933871 -0.862635E-08  0.350E-03    6.92       8.6  T
   3    -14.6933871 -0.161175E-08  0.719E-04    6.92      42.0  T
   4    -14.6933871 -0.121168E-08  0.463E-04    6.92      65.1  T
     SCC iter.                  ...        0 min,  0.001 sec
     gradient                   ...        0 min,  0.001 sec
 * total energy  :   -14.5427689 Eh     change       -0.6965585E-06 Eh
   gradient norm :     0.0001146 Eh/α   predicted    -0.5131141E-06 ( -26.34%)
   displ. norm   :     0.0010474 α      lambda       -0.5407728E-07
   maximum displ.:     0.0006311 α      in ANC's #4, #11, #8, ...

........................................................................
.............................. CYCLE    7 ..............................
........................................................................

 iter      E             dE          RMSdq      gap      omega  full diag
   1    -14.6934384 -0.146934E+02  0.142E-03    6.92       0.0  T
   2    -14.6934384 -0.291903E-09  0.834E-04    6.92      36.1  T
   3    -14.6934384 -0.387299E-10  0.103E-04    6.92     293.6  T
     SCC iter.                  ...        0 min,  0.001 sec
     gradient                   ...        0 min,  0.001 sec
 * total energy  :   -14.5427689 Eh     change       -0.2080797E-07 Eh
   gradient norm :     0.0000466 Eh/α   predicted    -0.2554446E-07 (  22.76%)
   displ. norm   :     0.0003921 α      lambda       -0.9720072E-08
   maximum displ.:     0.0002191 α      in ANC's #4, #8, #11, ...

   *** GEOMETRY OPTIMIZATION CONVERGED AFTER 7 ITERATIONS ***

------------------------------------------------------------------------
 total energy gain   :        -0.0007653 Eh       -0.4802 kcal/mol
 total RMSD          :         0.0319964 a0        0.0169 Å
 total power (kW/mol):        -0.2870512 (step) -110.4183 (real)
------------------------------------------------------------------------

 ANCopt (total)                0 d,  0 h,  0 min,  0.018 sec
 optimizer setup                ...        0 min,  0.000 sec (  0.185%)
 model hessian                  ...        0 min,  0.001 sec (  3.402%)
 ANC generation                 ...        0 min,  0.000 sec (  0.562%)
 coordinate transformation      ...        0 min,  0.000 sec (  0.091%)
 single point calculation       ...        0 min,  0.017 sec ( 90.814%)
 optimization log               ...        0 min,  0.000 sec (  1.134%)
 hessian update                 ...        0 min,  0.000 sec (  0.114%)
 rational function              ...        0 min,  0.000 sec (  1.398%)

================
 final structure:
================
$coord
       -4.77527770927534        0.14078128740117        0.00018561667070      C
       -2.11225679311510       -0.95978910650805       -0.00038488631447      C
       -0.14853302977854        1.13481336248519       -0.00031889340382      C
        2.97005220641258       -0.15168295863550       -0.00077353660729      Cl
       -6.16580821060595       -1.37011878711039        0.00004689712067      H
       -5.07820334170024        1.30350113028339        1.66742827615276      H
       -5.07862965333271        1.30419988633351       -1.66649236084762      H
       -1.84594264028671       -2.14426633999564        1.66704533886625      H
       -1.84642426627863       -2.14371238573233       -1.66828509830137      H
       -0.30586238372475        2.31079360469589        1.68385555470242      H
       -0.30618088260099        2.31120464219707       -1.68417601864580      H
$end

 Bond Distances (Angstroems)
 ---------------------------
C1-C2=1.5248         C1-H5=1.0866         C1-H6=1.0875         C1-H7=1.0875         C2-C1=1.5248         C2-C3=1.5194         
C2-H8=1.0915         C2-H9=1.0915         C3-C2=1.5194         C3-Cl4=1.7852        C3-H10=1.0902        C3-H11=1.0902        
Cl4-C3=1.7852        H5-C1=1.0866         H6-C1=1.0875         H7-C1=1.0875         H8-C2=1.0915         H9-C2=1.0915         
H10-C3=1.0902        H11-C3=1.0902        
 C  H  Rav=1.0893 sigma=0.0019  Rmin=1.0866  Rmax=1.0915     7
 C  C  Rav=1.5221 sigma=0.0027  Rmin=1.5194  Rmax=1.5248     2
 Cl C  Rav=1.7852 sigma=0.0000  Rmin=1.7852  Rmax=1.7852     1

 selected bond angles (degree)
 --------------------
H5-C1-C2=110.17                H6-C1-C2=110.64                H6-C1-H5=108.45                H7-C1-C2=110.64                
H7-C1-H5=108.45                H7-C1-H6=108.41                C3-C2-C1=110.70                H8-C2-C1=109.79                
H8-C2-C3=109.31                H9-C2-C1=109.79                H9-C2-C3=109.31                H9-C2-H8=107.91                
Cl4-C3-C2=110.74               H10-C3-C2=111.36               H10-C3-Cl4=106.76              H11-C3-C2=111.36               
H11-C3-Cl4=106.76              H11-C3-H10=109.66              

 selected dihedral angles (degree)
 ---------------------------------
C3-C2-C1-H5=180.00            C3-C2-C1-H6=299.91            C3-C2-C1-H7= 60.08            H8-C2-C1-H5=300.76            
H8-C2-C1-H6= 60.68            H8-C2-C1-H7=180.85            H9-C2-C1-H5= 59.23            H9-C2-C1-H6=179.15            
H9-C2-C1-H7=299.32            Cl4-C3-C2-C1=180.00           Cl4-C3-C2-H8= 58.95           Cl4-C3-C2-H9=301.05           
H10-C3-C2-C1= 61.37           H10-C3-C2-H8=300.31           H10-C3-C2-H9=182.42           H11-C3-C2-C1=298.63           
H11-C3-C2-H8=177.58           H11-C3-C2-H9= 59.68           
           -------------------------------------------------
          |                Final Singlepoint                |
           -------------------------------------------------

          ...................................................
          :                      SETUP                      :
          :.................................................:
          :  # basis functions                  29          :
          :  # atomic orbitals                  28          :
          :  # shells                           16          :
          :  # electrons                        26          :
          :  max. iterations                   250          :
          :  Hamiltonian                  GFN2-xTB          :
          :  restarted?                      false          :
          :  GBSA solvation                  false          :
          :  PC potential                    false          :
          :  electronic temp.          300.0000000     K    :
          :  accuracy                    1.0000000          :
          :  -> integral cutoff          0.2500000E+02      :
          :  -> integral neglect         0.1000000E-07      :
          :  -> SCF convergence          0.1000000E-05 Eh   :
          :  -> wf. convergence          0.1000000E-03 e    :
          :  Broyden damping             0.4000000          :
          :  net charge                          0          :
          :  unpaired electrons                  0          :
          ...................................................

 iter      E             dE          RMSdq      gap      omega  full diag
   1    -14.6934384 -0.146934E+02  0.655E-05    6.92       0.0  T
   2    -14.6934384 -0.598632E-11  0.549E-05    6.92     549.1  T
   3    -14.6934384 -0.134186E-10  0.274E-05    6.92    1098.6  T

   *** convergence criteria satisfied after 3 iterations ***

         #    Occupation            Energy/Eh            Energy/eV
      -------------------------------------------------------------
         1        2.0000           -1.0481313             -28.5211
       ...           ...                  ...                  ...
         7        2.0000           -0.5089912             -13.8504
         8        2.0000           -0.4927823             -13.4093
         9        2.0000           -0.4671457             -12.7117
        10        2.0000           -0.4622943             -12.5797
        11        2.0000           -0.4478609             -12.1869
        12        2.0000           -0.4109201             -11.1817
        13        2.0000           -0.4094146             -11.1407 (HOMO)
        14                         -0.1549403              -4.2161 (LUMO)
        15                          0.0190476               0.5183
        16                          0.0253704               0.6904
        17                          0.0305622               0.8316
        18                          0.0308770               0.8402
       ...                                ...                  ...
        28                          0.2887694               7.8578
      -------------------------------------------------------------
                  HL-Gap            0.2544743 Eh            6.9246 eV
             Fermi-level           -0.2821774 Eh           -7.6784 eV

 SCC (total)                   0 d,  0 h,  0 min,  0.002 sec
 SCC setup                      ...        0 min,  0.000 sec (  5.294%)
 Dispersion                     ...        0 min,  0.000 sec (  0.862%)
 classical contributions        ...        0 min,  0.000 sec (  0.441%)
 integral evaluation            ...        0 min,  0.000 sec ( 20.065%)
 iterations                     ...        0 min,  0.001 sec ( 25.728%)
 molecular gradient             ...        0 min,  0.001 sec ( 45.393%)
 printout                       ...        0 min,  0.000 sec (  1.850%)

         :::::::::::::::::::::::::::::::::::::::::::::::::::::
         ::                     SUMMARY                     ::
         :::::::::::::::::::::::::::::::::::::::::::::::::::::
         :: total energy             -14.542768873136 Eh    ::
         :: gradient norm              0.000046836470 Eh/a0 ::
         :: HOMO-LUMO gap              6.924597844891 eV    ::
         ::.................................................::
         :: SCC energy               -14.693436523915 Eh    ::
         :: -> isotropic ES            0.007085513810 Eh    ::
         :: -> anisotropic ES          0.001543485596 Eh    ::
         :: -> anisotropic XC          0.007541866532 Eh    ::
         :: -> dispersion             -0.005160865937 Eh    ::
         :: repulsion energy           0.150667650779 Eh    ::
         :: add. restraining           0.000000000000 Eh    ::
         :: total charge               0.000000000000 e     ::
         :::::::::::::::::::::::::::::::::::::::::::::::::::::

           ------------------------------------------------- 
          |                Numerical Hessian                |
           ------------------------------------------------- 
step length          :   0.00500
SCC accuracy         :   0.30000
Hessian scale factor :   1.00000
frozen atoms in %    :   0.00000    0
RMS gradient         :   0.00005
estimated CPU  time      0.00 min
estimated wall time      0.00 min

writing file <hessian>, containing the non-mass-weighted Hessian matrix in atomic units (Eₕ/Bohr²).

 projected vibrational frequencies (cm⁻¹)
eigval :       -0.00    -0.00     0.00     0.00     0.00     0.00
eigval :      101.88   225.73   230.71   354.10   736.93   779.89
eigval :      882.90   942.43  1067.81  1084.64  1120.42  1214.02
eigval :     1237.01  1262.74  1333.13  1413.87  1446.00  1490.42
eigval :     1499.39  1501.97  2974.16  2980.22  2989.76  2997.68
eigval :     3037.59  3040.73  3050.01
           -------------------------------------------------
          |                Property Printout                |
           -------------------------------------------------

    * Orbital Energies and Occupations

         #    Occupation            Energy/Eh            Energy/eV
      -------------------------------------------------------------
         1        2.0000           -1.0481313             -28.5211
         2        2.0000           -0.6426865             -17.4884
         3        2.0000           -0.6076832             -16.5359
         4        2.0000           -0.5794890             -15.7687
         5        2.0000           -0.5389966             -14.6668
         6        2.0000           -0.5180504             -14.0969
         7        2.0000           -0.5089910             -13.8503
         8        2.0000           -0.4927820             -13.4093
         9        2.0000           -0.4671455             -12.7117
        10        2.0000           -0.4622941             -12.5797
        11        2.0000           -0.4478607             -12.1869
        12        2.0000           -0.4109199             -11.1817
        13        2.0000           -0.4094144             -11.1407 (HOMO)
        14                         -0.1549397              -4.2161 (LUMO)
        15                          0.0190477               0.5183
        16                          0.0253705               0.6904
        17                          0.0305623               0.8316
        18                          0.0308771               0.8402
        19                          0.0876872               2.3861
        20                          0.1161424               3.1604
        21                          0.1227905               3.3413
        22                          0.1366588               3.7187
        23                          0.1590132               4.3270
        24                          0.1770942               4.8190
       ...                                ...                  ...
        28                          0.2887696               7.8578
      -------------------------------------------------------------
                  HL-Gap            0.2544747 Eh            6.9246 eV
             Fermi-level           -0.2821770 Eh           -7.6784 eV

     #   Z          covCN         q      C6AA      α(0)
     1   6          3.753    -0.109    22.648     6.786
     2   6          3.829    -0.059    21.611     6.615
     3   6          3.716     0.032    20.163     6.415
     4  17          0.917    -0.217   106.002    15.751
     5   1          0.925     0.048     2.341     2.393
     6   1          0.925     0.041     2.441     2.443
     7   1          0.925     0.041     2.441     2.443
     8   1          0.924     0.052     2.300     2.372
     9   1          0.924     0.052     2.300     2.372
    10   1          0.925     0.061     2.191     2.315
    11   1          0.925     0.061     2.191     2.315

 Mol. C6AA /au·bohr⁶  :       1211.155803
 Mol. C8AA /au·bohr⁸  :      31713.461989
 Mol. α(0) /au        :         52.219303


Wiberg/Mayer (AO) data.
largest (>0.10) Wiberg bond orders for each atom

 ---------------------------------------------------------------------------
     #   Z sym  total        # sym  WBO       # sym  WBO       # sym  WBO
 ---------------------------------------------------------------------------
     1   6      3.995 --     2      1.013     6      0.987     7      0.987
                             5      0.985
     2   6      3.993 --     3      1.016     1      1.013     9      0.977
                             8      0.977
     3   6      3.935 --     2      1.016    11      0.979    10      0.979
                             4      0.944
     4  17      0.987 --     3      0.944
     5   1      0.998 --     1      0.985
     6   1      0.998 --     1      0.987
     7   1      0.998 --     1      0.987
     8   1      0.997 --     2      0.977
     9   1      0.997 --     2      0.977
    10   1      0.996 --     3      0.979
    11   1      0.996 --     3      0.979
 ---------------------------------------------------------------------------

Topologies differ in total number of bonds
Writing topology from bond orders to xtbtopo.mol

molecular dipole:
                 x           y           z       tot (Debye)
 q only:       -0.942       0.209       0.000
   full:       -0.903       0.253       0.000       2.384
molecular quadrupole (traceless):
                xx          xy          yy          xz          yz          zz
 q only:       -1.472       0.359       1.091       0.001      -0.000       0.381
  q+dip:       -3.428       0.782       1.498       0.001      -0.000       1.931
   full:       -2.231       0.295       1.221       0.001      -0.000       1.010

           -------------------------------------------------
          |                Geometry Summary                 |
           -------------------------------------------------

      molecular mass/u    :       78.5407305
   center of mass at/Å    :       -0.0000143      -0.0000032      -0.0002306
  moments of inertia/u·Å² :        0.1956339E+02   0.2113567E+03   0.2214412E+03
rotational constants/cm⁻¹ :        0.8616929E+00   0.7975916E-01   0.7612691E-01

 * 10 selected distances

     #   Z          #   Z                                           value/Å
     1   6          2   6                                         1.5248145
     2   6          3   6                                         1.5193536
     3   6          4  17                                         1.7851908 (max)
     1   6          5   1                                         1.0866052 (min)
     1   6          6   1                                         1.0875049
     1   6          7   1                                         1.0875051
     2   6          8   1                                         1.0914700
     2   6          9   1                                         1.0914699
     3   6         10   1                                         1.0901727
     3   6         11   1                                         1.0901725

 * 3 distinct bonds (by element types)

   Z      Z             #   av. dist./Å        max./Å        min./Å
   1 H    6 C           7     1.0892715     1.0914700     1.0866052
   6 C    6 C           2     1.5220840     1.5248145     1.5193536
   6 C   17 Cl          1     1.7851908     1.7851908     1.7851908

           -------------------------------------------------
          |               Frequency Printout                |
           -------------------------------------------------
 projected vibrational frequencies (cm⁻¹)
eigval :       -0.00    -0.00     0.00     0.00     0.00     0.00
eigval :      101.88   225.73   230.71   354.10   736.93   779.89
eigval :      882.90   942.43  1067.81  1084.64  1120.42  1214.02
eigval :     1237.01  1262.74  1333.13  1413.87  1446.00  1490.42
eigval :     1499.39  1501.97  2974.16  2980.22  2989.76  2997.68
eigval :     3037.59  3040.73  3050.01
 reduced masses (amu)
    1:      5.54    2:      8.30    3:      6.60    4:      7.38    5:      3.61    6:      1.70
    7:      2.58    8:      1.08    9:      3.38   10:      4.35   11:      5.13   12:      1.09
   13:      1.17   14:      1.80   15:      1.17   16:      2.96   17:      2.17   18:      1.43
   19:      1.20   20:      1.10   21:      1.43   22:      1.22   23:      1.10   24:      1.09
   25:      1.05   26:      1.06   27:      1.10   28:      1.05   29:      1.10   30:      1.05
   31:      1.10   32:      1.06   33:      1.06
 IR intensities (km·mol⁻¹)
    1:      0.07    2:      1.02    3:      0.31    4:      0.83    5:      0.06    6:      0.67
    7:      1.27    8:      0.05    9:      1.17   10:      1.58   11:      5.09   12:      8.06
   13:      0.92   14:      6.71   15:      0.17   16:      0.21   17:      2.47   18:      0.42
   19:     12.49   20:      0.54   21:      2.98   22:      1.91   23:      0.70   24:      0.40
   25:      5.18   26:      2.92   27:      0.08   28:      3.54   29:     23.68   30:     21.93
   31:     43.02   32:     30.98   33:     23.40
 Raman intensities (Ä⁴*amu⁻¹)
    1:      0.00    2:      0.00    3:      0.00    4:      0.00    5:      0.00    6:      0.00
    7:      0.00    8:      0.00    9:      0.00   10:      0.00   11:      0.00   12:      0.00
   13:      0.00   14:      0.00   15:      0.00   16:      0.00   17:      0.00   18:      0.00
   19:      0.00   20:      0.00   21:      0.00   22:      0.00   23:      0.00   24:      0.00
   25:      0.00   26:      0.00   27:      0.00   28:      0.00   29:      0.00   30:      0.00
Molecule has the following symmetry elements: (sigma) 
It seems to be the Cs point group
   31:      0.00   32:      0.00   33:      0.00
 output can be read by thermo (or use thermo option).
 writing <g98.out> molden fake output.
 recommended (thermochemical) frequency scaling factor: 1.0
           -------------------------------------------------
          |             Thermodynamic Functions             |
           -------------------------------------------------

cs  symmetry found (for desy threshold:  0.10E+00) used in thermo

          ...................................................
          :                      SETUP                      :
          :.................................................:
          :  # frequencies                          27      :
          :  # imaginary freq.                       0      :
          :  linear?                             false      :
          :  only rotor calc.                    false      :
          :  symmetry                               cs      :
          :  rotational number                       1      :
          :  scaling factor                  1.0000000      :
          :  rotor cutoff                    0.0000000 cm⁻¹ :
          :  imag. cutoff                 -100.0000000 cm⁻¹ :
          :.................................................:

    mode    ω/cm⁻¹     T·S(HO)/kcal·mol⁻¹    T·S(FR)/kcal·mol⁻¹   T·S(vib)
   ------------------------------------------------------------------------
       1    101.88    -1.01909 (100.00%)    -0.84537 (  0.00%)    -1.01909
       2    225.73    -0.57025 (100.00%)    -0.60987 (  0.00%)    -0.57025
       3    230.71    -0.55856 (100.00%)    -0.60341 (  0.00%)    -0.55856
   ------------------------------------------------------------------------

   temp. (K)  partition function   enthalpy   heat capacity  entropy
                                   cal/mol     cal/K/mol   cal/K/mol   J/K/mol
 298.15  VIB   7.85                 1612.123     11.486      9.501
         ROT  0.731E+05              888.727      2.981     25.237
         INT  0.574E+06             2500.851     14.467     34.738
         TR   0.213E+26             1481.212      4.968     38.998
         TOT                        3982.0630    19.4347    73.7360   308.5113

       T/K    H(0)-H(T)+PV         H(T)/Eh          T*S/Eh         G(T)/Eh
   ------------------------------------------------------------------------
    298.15    0.634582E-02    0.997418E-01    0.350343E-01    0.647075E-01
   ------------------------------------------------------------------------

         :::::::::::::::::::::::::::::::::::::::::::::::::::::
         ::                  THERMODYNAMIC                  ::
         :::::::::::::::::::::::::::::::::::::::::::::::::::::
         :: total free energy         -14.478061365504 Eh   ::
         ::.................................................::
         :: total energy              -14.542768873140 Eh   ::
         :: zero point energy           0.093396021748 Eh   ::
         :: G(RRHO) w/o ZPVE           -0.028688514112 Eh   ::
         :: G(RRHO) contrib.            0.064707507636 Eh   ::
         :::::::::::::::::::::::::::::::::::::::::::::::::::::

optimized geometry written to: xtbopt.coord


           -------------------------------------------------
          | TOTAL ENERGY              -14.542768873140 Eh   |
          | TOTAL ENTHALPY            -14.443027030123 Eh   |
          | TOTAL FREE ENERGY         -14.478061365504 Eh   |
          | GRADIENT NORM               0.000046834714 Eh/α |
          | HOMO-LUMO GAP               6.924610066795 eV   |
           -------------------------------------------------

------------------------------------------------------------------------
 * finished run on 2025/04/09 at 02:52:38.326     
------------------------------------------------------------------------
 total:
 * wall-time:     0 d,  0 h,  0 min,  0.186 sec
 *  cpu-time:     0 d,  0 h,  0 min,  0.185 sec
 * ratio c/w:     0.990 speedup
 SCF:
 * wall-time:     0 d,  0 h,  0 min,  0.004 sec
 *  cpu-time:     0 d,  0 h,  0 min,  0.004 sec
 * ratio c/w:     0.994 speedup
 ANC optimizer:
 * wall-time:     0 d,  0 h,  0 min,  0.021 sec
 *  cpu-time:     0 d,  0 h,  0 min,  0.021 sec
 * ratio c/w:     0.988 speedup
 analytical hessian:
 * wall-time:     0 d,  0 h,  0 min,  0.158 sec
 *  cpu-time:     0 d,  0 h,  0 min,  0.157 sec
 * ratio c/w:     0.991 speedup

