11
 energy: -416.230112616325 gnorm: 0.013059030689 xtb: 6.7.1 (41059b4)
C           -3.58834973019009       -0.59772891206487       -0.22745321270079
C           -2.14913301215234       -0.66960860529672        0.27201895052054
C           -1.24938030565363        0.18615321788249       -0.59599563496410
I            0.80857536375830        0.12376887565485        0.06558722772906
H           -4.23232091837545       -1.21243518693726        0.39613506017554
H           -3.95543020135276        0.42608734618881       -0.19627921878698
H           -3.65821359442105       -0.95656479892388       -1.25226209195491
H           -1.80633495870043       -1.70657269755623        0.25146223701143
H           -2.10355955933214       -0.32331749924327        1.30700567117917
H           -1.54462005448446        1.23229539424606       -0.56568790695067
H           -1.24564650295198       -0.15888997137041       -1.62713815762103
11
 energy: -416.230488936920 gnorm: 0.004109257286 xtb: 6.7.1 (41059b4)
C           -3.59786687893799       -0.59856530094337       -0.22902579114854
C           -2.15558533431492       -0.67426189636133        0.27630216298478
C           -1.25337018520094        0.18157066485466       -0.59096314902967
I            0.83898080878008        0.14304549030908        0.04852610600280
H           -4.25107399437852       -1.21402670154764        0.39304036846021
H           -3.97189199458998        0.42831336593951       -0.20005146870873
H           -3.67391819085176       -0.95819701656547       -1.25866345368688
H           -1.80377131815731       -1.71024553143260        0.26165145893888
H           -2.10027404988764       -0.33135149564656        1.31389384996927
H           -1.52789709174680        1.23660144141987       -0.56088957371472
H           -1.22774435706025       -0.15969773576784       -1.62642744426067
11
 energy: -416.230516272008 gnorm: 0.002776433663 xtb: 6.7.1 (41059b4)
C           -3.59545198648195       -0.59974123143401       -0.22684770559266
C           -2.14882602499809       -0.67172461894429        0.27486589744158
C           -1.25893380850521        0.18777826668877       -0.60067659993781
I            0.82605129063599        0.12428780879295        0.06943814253760
H           -4.25053797721145       -1.21617643434927        0.39617579095007
H           -3.97512342501026        0.42732777371933       -0.19872023390248
H           -3.67701247917322       -0.96043386627478       -1.25795164468374
H           -1.79447600976985       -1.70784458876056        0.26184991004122
H           -2.09088925267911       -0.32963481719895        1.31357826953004
H           -1.52984097599644        1.24424237798181       -0.56815644572681
H           -1.22937312200359       -0.15489354410637       -1.63616244943433
11
 energy: -416.230538208092 gnorm: 0.000506833461 xtb: 6.7.1 (41059b4)
C           -3.59750627036410       -0.60022948081828       -0.22683825578020
C           -2.15112231589641       -0.67122956839990        0.27360005940664
C           -1.25575776316571        0.18592727143232       -0.59725421663203
I            0.82905446514348        0.13000441653005        0.06256016323479
H           -4.25174630487291       -1.21657598582503        0.39641393625079
H           -3.97588478363516        0.42671580813369       -0.19837511704862
H           -3.67780624757436       -0.96098763652578       -1.25742726616833
H           -1.79775108110327       -1.70742879181902        0.26015394256395
H           -2.09424518774318       -0.32897667853345        1.31206925907230
H           -1.52595510517226        1.24200018116794       -0.56515098533981
H           -1.22569297162488       -0.15603296895205       -1.63235853607778
11
 energy: -416.230538314572 gnorm: 0.000727935963 xtb: 6.7.1 (41059b4)
C           -3.59808529692576       -0.60041635579422       -0.22682869785042
C           -2.15115516759875       -0.67016944115987        0.27221930819123
C           -1.25474150698003        0.18639241280585       -0.59748483359675
I            0.83149053977637        0.12803591773606        0.06556783641321
H           -4.25036551732500       -1.21721217042016        0.39781543040550
H           -3.97751558095569        0.42595542838030       -0.19813846988986
H           -3.67946749788050       -0.96186353080177       -1.25691450890727
H           -1.79781926026761       -1.70631431838047        0.25883003516277
H           -2.09434609228356       -0.32799139357671        1.31065250475228
H           -1.52614831456368        1.24186111143122       -0.56585095187611
H           -1.22626007940755       -0.15509091258061       -1.63247468663158
11
 energy: -416.230538314572 gnorm: 0.000727935963 xtb: 6.7.1 (41059b4)
C           -3.59808529692576       -0.60041635579422       -0.22682869785042
C           -2.15115516759875       -0.67016944115987        0.27221930819123
C           -1.25474150698003        0.18639241280585       -0.59748483359675
I            0.83149053977637        0.12803591773606        0.06556783641321
H           -4.25036551732500       -1.21721217042016        0.39781543040550
H           -3.97751558095569        0.42595542838030       -0.19813846988986
H           -3.67946749788050       -0.96186353080177       -1.25691450890727
H           -1.79781926026761       -1.70631431838047        0.25883003516277
H           -2.09434609228356       -0.32799139357671        1.31065250475228
H           -1.52614831456368        1.24186111143122       -0.56585095187611
H           -1.22626007940755       -0.15509091258061       -1.63247468663158
