      -----------------------------------------------------------      
     |                   =====================                   |     
     |                           x T B                           |     
     |                   =====================                   |     
     |                         S. Grimme                         |     
     |          Mulliken Center for Theoretical Chemistry        |     
     |                    University of Bonn                     |     
      -----------------------------------------------------------      

   * xtb version 6.7.1 (41059b4) compiled by 'michael@archlinux' on 2025-03-24

   xtb is free software: you can redistribute it and/or modify it under
   the terms of the GNU Lesser General Public License as published by
   the Free Software Foundation, either version 3 of the License, or
   (at your option) any later version.
   
   xtb is distributed in the hope that it will be useful,
   but WITHOUT ANY WARRANTY; without even the implied warranty of
   MERCHANTABILITY or FITNESS FOR A PARTICULAR PURPOSE.  See the
   GNU Lesser General Public License for more details.
   
   Cite this work as:
   * C. Bannwarth, E. Caldeweyher, S. Ehlert, A. Hansen, P. Pracht,
     J. Seibert, S. Spicher, S. Grimme, WIREs Comput. Mol. Sci., 2020, 11,
     e01493. DOI: 10.1002/wcms.1493
   
   for GFN2-xTB:
   * C. Bannwarth, S. Ehlert and S. Grimme., J. Chem. Theory Comput., 2019,
     15, 1652-1671. DOI: 10.1021/acs.jctc.8b01176
   for GFN1-xTB:
   * S. Grimme, C. Bannwarth, P. Shushkov, J. Chem. Theory Comput., 2017,
     13, 1989-2009. DOI: 10.1021/acs.jctc.7b00118
   for GFN0-xTB:
   * P. Pracht, E. Caldeweyher, S. Ehlert, S. Grimme, ChemRxiv, 2019, preprint.
     DOI: 10.26434/chemrxiv.8326202.v1
   for GFN-FF:
   * S. Spicher and S. Grimme, Angew. Chem. Int. Ed., 2020, 59, 15665-15673.
     DOI: 10.1002/anie.202004239
   
   for ALPB and GBSA implicit solvation:
   * S. Ehlert, M. Stahn, S. Spicher, S. Grimme, J. Chem. Theory Comput.,
     2021, 17, 4250-4261. DOI: 10.1021/acs.jctc.1c00471
   
   for ddCOSMO and CPCM-X implicit solvation:
   * M. Stahn, S. Ehlert, S. Grimme, J. Phys. Chem. A,
     2023, XX, XXXX-XXXX. DOI: 10.1021/acs.jpca.3c04382
   
   for DFT-D4:
   * E. Caldeweyher, C. Bannwarth and S. Grimme, J. Chem. Phys., 2017,
     147, 034112. DOI: 10.1063/1.4993215
   * E. Caldeweyher, S. Ehlert, A. Hansen, H. Neugebauer, S. Spicher,
     C. Bannwarth and S. Grimme, J. Chem. Phys., 2019, 150, 154122.
     DOI: 10.1063/1.5090222
   * E. Caldeweyher, J.-M. Mewes, S. Ehlert and S. Grimme, Phys. Chem. Chem. Phys.
     2020, 22, 8499-8512. DOI: 10.1039/D0CP00502A
   
   for sTDA-xTB:
   * S. Grimme and C. Bannwarth, J. Chem. Phys., 2016, 145, 054103.
     DOI: 10.1063/1.4959605
   
   in the mass-spec context:
   * V. Asgeirsson, C. Bauer and S. Grimme, Chem. Sci., 2017, 8, 4879.
     DOI: 10.1039/c7sc00601b
   * J. Koopman and S. Grimme, ACS Omega 2019, 4, 12, 15120-15133.
     DOI: 10.1021/acsomega.9b02011
   
   for metadynamics refer to:
   * S. Grimme, J. Chem. Theory Comput., 2019, 155, 2847-2862
     DOI: 10.1021/acs.jctc.9b00143
   
   for SPH calculations refer to:
   * S. Spicher and S. Grimme, J. Chem. Theory Comput., 2021, 17, 1701-1714
     DOI: 10.1021/acs.jctc.0c01306
   
   for ONIOM refer to:
   * C. Plett, A. Katbashev, S. Ehlert, S. Grimme, M. Bursch,
     Phys. Chem. Chem. Phys., 2023, 25, 17860-17868. DOI: 10.1039/D3CP02178E
   
   for DIPRO refer to:
   * J. Kohn, N. Gildemeister, S. Grimme, D. Fazzi, A. Hansen,
     J. Chem. Phys., 2023, just accepted.
   
   for PTB refer to:
   * S. Grimme, M. Mueller, A. Hansen, J. Chem. Phys., 2023, 158, 124111.
     DOI: 10.1063/5.0137838
   
   with help from (in alphabetical order)
   P. Atkinson, C. Bannwarth, F. Bohle, G. Brandenburg, E. Caldeweyher
   M. Checinski, S. Dohm, S. Ehlert, S. Ehrlich, I. Gerasimov, C. Hölzer
   A. Katbashev, J. Kohn, J. Koopman, C. Lavigne, S. Lehtola, F. März, M. Müller,
   F. Musil, H. Neugebauer, J. Pisarek, C. Plett, P. Pracht, F. Pultar,
   J. Seibert, P. Shushkov, S. Spicher, M. Stahn, M. Steiner, T. Strunk,
   J. Stückrath, T. Rose, and J. Unsleber
   
 * started run on 2025/04/09 at 05:29:51.080     
   ID    Z sym.   atoms
    1    6 C      1, 3, 4, 6, 7
    2    7 N      2, 5
    3    1 H      8-19

           -------------------------------------------------
          |                Calculation Setup                |
           -------------------------------------------------

          program call               : /usr/bin/xtb xtb_opt.coord --opt normal --orca -I xtb_opt-xcontrol-inp
          coordinate file            : xtb_opt.coord
          omp threads                :                    16

           -------------------------------------------------
          |                   Orca driver                   |
           -------------------------------------------------
orca executable           : /home/michael/Documents/CHEM4561/orca_avx2/orca
orca input file           : xtb_opt.inp
orca input line           : 
orca parallel             : true
orca number of threads    : 16
                         * ORCA takes the control...
  ------------------------------------------------------------------------

                                 *****************
                                 * O   R   C   A *
                                 *****************

                                            #,                                       
                                            ###                                      
                                            ####                                     
                                            #####                                    
                                            ######                                   
                                           ########,                                 
                                     ,,################,,,,,                         
                               ,,#################################,,                 
                          ,,##########################################,,             
                       ,#########################################, ''#####,          
                    ,#############################################,,   '####,        
                  ,##################################################,,,,####,       
                ,###########''''           ''''###############################       
              ,#####''   ,,,,##########,,,,          '''####'''          '####       
            ,##' ,,,,###########################,,,                        '##       
           ' ,,###''''                  '''############,,,                           
         ,,##''                                '''############,,,,        ,,,,,,###''
      ,#''                                            '''#######################'''  
     '                                                          ''''####''''         
             ,#######,   #######,   ,#######,      ##                                
            ,#'     '#,  ##    ##  ,#'     '#,    #''#        ,####,   ,####,        
            ##       ##  ##   ,#'  ##            #'  '#       #'       #'  '#        
            ##       ##  #######   ##           ,######,      #####,   #    #        
            '#,     ,#'  ##    ##  '#,     ,#' ,#      #,     #,   #   #,  ,#        
             '#######'   ##     ##  '#######'  #'      '#     '####' # '####'        



                #########################################################
                #                        -***-                          #
                #          Department of theory and spectroscopy        #
                #                                                       #
                #                      Frank Neese                      #
                #                                                       #
                #     Directorship, Architecture, Infrastructure        #
                #                    SHARK, DRIVERS                     #
                #        Core code/Algorithms in most modules           #
                #                                                       #
                #        Max Planck Institute fuer Kohlenforschung      #
                #                Kaiser Wilhelm Platz 1                 #
                #                 D-45470 Muelheim/Ruhr                 #
                #                      Germany                          #
                #                                                       #
                #                  All rights reserved                  #
                #                        -***-                          #
                #########################################################


                         Program Version 6.0.1  -  RELEASE   -


 With contributions from (in alphabetic order):
[Max-Planck-Institut fuer Kohlenforschung]                               
  Daniel Aravena         : Magnetic Suceptibility                        
  Michael Atanasov       : Ab Initio Ligand Field Theory (pilot matlab implementation)
  Alexander A. Auer      : GIAO ZORA, VPT2 properties, NMR spectrum      
  Ute Becker             : All parallelization in ORCA, NUMFREQ, NUMCALC 
  Giovanni Bistoni       : ED, misc. LED, open-shell LED, HFLD           
  Martin Brehm           : Molecular dynamics                            
  Dmytro Bykov           : pre 5.0 version of the SCF Hessian            
  Marcos Casanova-Páez   : Triplet and SCS-CIS(D). UHF-(DLPNO)-IP/EA/STEOM-CCSD. UHF-CVS-IP/STEOM-CCSD   
  Vijay G. Chilkuri      : MRCI spin determinant printing, contributions to CSF-ICE 
  Pauline Colinet        : FMM embedding                                 
  Dipayan Datta          : RHF DLPNO-CCSD density                        
  Achintya Kumar Dutta   : EOM-CC, STEOM-CC                              
  Nicolas Foglia         : Exact transition moments, OPA infrastructure, MCD improvements    
  Dmitry Ganyushin       : Spin-Orbit,Spin-Spin,Magnetic field MRCI      
  Miquel Garcia-Rates    : C-PCM and meta-GGA Hessian, CCSD/C-PCM, Gaussian charge scheme 
  Tiago L. C. Gouveia    : GS-ROHF, GS-ROCIS                             
  Yang Guo               : DLPNO-NEVPT2, F12-NEVPT2, CIM, IAO-localization        
  Andreas Hansen         : Spin unrestricted coupled pair/coupled cluster methods 
  Ingolf Harden          : AUTO-CI MPn and infrastructure                
  Benjamin Helmich-Paris : MC-RPA, TRAH-(SCF,CASSCF), AVAS, COSX integrals, SCF dyn. polar. 
  Lee Huntington         : MR-EOM, pCC                                   
  Robert Izsak           : Overlap fitted RIJCOSX, COSX-SCS-MP3, EOM     
  Riya Kayal             : Wick's Theorem for AUTO-CI, AUTO-CI UHF-CCSDT 
  Emily Kempfer          : AUTO-CI, RHF CISDT and CCSDT                  
  Christian Kollmar      : KDIIS, OOCD, Brueckner-CCSD(T), CCSD density, CASPT2, CASPT2-K, improved NEVPT2 
  Axel Koslowski         : Symmetry handling                             
  Simone Kossmann        : meta-GGA functionals, TD-DFT gradient, OOMP2, (MP2 Hessian; deprecated post 5.0) 
  Lucas Lang             : DCDCAS                                        
  Marvin Lechner         : AUTO-CI (C++ implementation), FIC-MRCC        
  Spencer Leger          : CASSCF response                               
  Dagmar Lenk            : GEPOL surface, SMD, ORCA-2-JSON               
  Dimitrios Liakos       : Extrapolation schemes; Compound Job, initial MDCI parallelization 
  Dimitrios Manganas     : Further ROCIS development; embedding schemes. LFT, Crystal Embedding 
  Dimitrios Pantazis     : SARC Basis sets                               
  Anastasios Papadopoulos: AUTO-CI, single reference methods and gradients 
  Taras Petrenko         : pre 6.0 DFT Hessian and TD-DFT gradient, (ASA, deprecated), ECA, 1-Electron XAS/XES, NRVS 
  Peter Pinski           : DLPNO-MP2, DLPNO-MP2 Gradient                 
  Christoph Reimann      : Effective Core Potentials                     
  Marius Retegan         : Local ZFS, SOC                                
  Christoph Riplinger    : Optimizer, TS searches, QM/MM, DLPNO-CCSD(T), (RO)-DLPNO pert. Triples 
  Michael Roemelt        : Original ROCIS implementation                 
  Masaaki Saitow         : Open-shell DLPNO-CCSD energy and density      
  Barbara Sandhoefer     : DKH picture change effects                    
  Kantharuban Sivalingam : CASSCF convergence/infrastructure, NEVPT2 and variants, FIC-MRCI 
  Bernardo de Souza      : ESD, SOC TD-DFT                               
  Georgi L. Stoychev     : AutoAux, RI-MP2 NMR, DLPNO-MP2 response, X2C  
  Van Anh Tran           : RI-MP2 g-tensors                              
  Willem Van den Heuvel  : Paramagnetic NMR                              
  Zikuan Wang            : NOTCH, Electric field optimization            
  Frank Wennmohs         : Technical directorship and infrastructure     
  Hang Xu                : AUTO-CI-Response properties                   
                                                                         
[FACCTs GmbH]                                                            
  Markus Bursch, Miquel Garcia-Rates, Christoph Riplinger, Bernardo de Souza, Georgi L. Stoychev 
                                                                 
  APM, Basis sets (HGBS, AHGBS, def-TZVP (Ac-Lr), def2-XVPD (La-Lu)), CI-OPT, improved COSX, DLPNO-Multilevel,           
  DOCKER, DRACO, updates on ESD, GOAT, IRC, LR-CPCM, MBIS, meta-GGA TD-DFT gradient, ML-optimized integration grids, 
  MM, NACMEs, nearIR, NEB, NEB-TS, NL-DFT gradient (VV10), 2- and 3-layer-ONIOM, interface openCOSMO-RS, QMMM,   
  Crystal-QMMM, SF, symmetry and pop. for TD-DFT, r2SCAN hybrids, SOLVATOR                                   
                                                                         
[Other institutions]                                                     
  V. Asgeirsson          : NEB                                           
  Christoph Bannwarth    : sTDA-DFT, sTD-DFT, PBEh-3c, B97-3c, D3        
  Sebastian Ehlert       : rSCAN, r2SCAN, r2SCAN-3c, D4, dhf basis sets  
  Marvin Friede          : D4 for Fr, Ra, Ac-Lr                          
  Lars Goerigk           : TD-DFT with DH, B97 family of functionals     
  Stefan Grimme          : VdW corrections, initial TS optimization, DFT functionals, gCP, sTDA/sTD-DF 
  Waldemar Hujo          : DFT-NL                                        
  H. Jonsson             : NEB                                           
  Holger Kruse           : gCP                                           
  Marcel Mueller         : wB97X-3c, vDZP basis set                      
  Hagen Neugebauer       : wr2SCAN                                       
  Tobias Risthaus        : range-separated hybrid DFT                    
  Lukas Wittmann         : regularized MP2, r2SCAN double-hybrids, wr2SCAN        
                                                                         
We gratefully acknowledge several colleagues who have allowed us to      
interface, adapt or use parts of their codes:                            
  Ed Valeev, F. Pavosevic, A. Kumar             : LibInt (2-el integral package), F12 methods 
  Garnet Chan, S. Sharma, J. Yang, R. Olivares  : DMRG                   
  Ulf Ekstrom                                   : XCFun DFT Library      
  Mihaly Kallay                                 : mrcc  (arbitrary order and MRCC methods)
  Frank Weinhold                                : gennbo (NPA and NBO analysis)           
  Simon Mueller                                 : openCOSMO-RS                            
  Christopher J. Cramer and Donald G. Truhlar   : smd solvation model                     
  S Lehtola, MJT Oliveira, MAL Marques          : LibXC Library                           
  Liviu Ungur et al                             : ANISO software                          


 Your calculation uses the libint2 library for the computation of 2-el integrals
 For citations please refer to: http://libint.valeyev.net

 Your ORCA version has been built with support for libXC version: 6.2.2
 For citations please refer to: https://libxc.gitlab.io

 This ORCA versions uses:
   CBLAS   interface :  Fast vector & matrix operations
   LAPACKE interface :  Fast linear algebra routines
   SCALAPACK package :  Parallel linear algebra routines
   Shared memory     :  Shared parallel matrices
   BLAS/LAPACK       :  OpenBLAS 0.3.27  USE64BITINT DYNAMIC_ARCH NO_AFFINITY Zen SINGLE_THREADED
        Core in use  :  Zen
   Copyright (c) 2011-2014, The OpenBLAS Project




***************************************
The coordinates will be read from file: xtb_opt.xyz
***************************************


Your calculation utilizes the geometrical counterpoise correction gCP
Please cite in your paper:
H.Kruse, S. Grimme J.Chem.Phys., 136, (2012), 154101 
   

Your calculation utilizes the atom-pairwise dispersion correction
based on EEQ partial charges (D4)


================================================================================

----- Orbital basis set information -----
Your calculation utilizes the basis: def2-mTZVPP
   Stefan Grimme, Andreas Hansen, Sebastian Ehlert, and Jan-Michael Mewes 
   J. Chem. Phys. 154, 064103 (2021). DOI: 10.1063/5.0040021

----- AuxJ basis set information -----
Your calculation utilizes the auxiliary basis: def2/J
   F. Weigend, Phys. Chem. Chem. Phys. 8, 1057 (2006).

================================================================================
                                        WARNINGS
                       Please study these warnings very carefully!
================================================================================



WARNING: SCAN, rSCAN, or r2SCAN functional requested.
  ===> : libXC variant has now been activated.



================================================================================
                                       INPUT FILE
================================================================================
NAME = xtb_opt.inp
|  1> ! r2scan-3c def2/J RI DEFGRID2 scfconv7 ENGRAD tightSCF miniprint
|  2> * xyzfile 0 1 xtb_opt.xyz
|  3> 
|  4>                          ****END OF INPUT****
================================================================================

                     *******************************
                     * Energy+Gradient Calculation *
                     *******************************

---------------------------------
CARTESIAN COORDINATES (ANGSTROEM)
---------------------------------
  C      1.950538    0.000126    0.706451
  N      1.097609    0.000010   -0.462366
  C      0.271639    1.185565   -0.597375
  C     -0.937753    1.196449    0.346766
  N     -1.722739   -0.000010    0.096861
  C     -0.937729   -1.196493    0.346694
  C      0.271757   -1.185626   -0.597322
  H      2.587154    0.883925    0.670143
  H      2.587009   -0.883876    0.670201
  H      1.416388    0.000106    1.667213
  H      0.889614    2.069732   -0.428853
  H     -0.097488    1.204611   -1.626826
  H     -0.590447    1.260794    1.394303
  H     -1.557853    2.071249    0.139549
  H     -2.561201   -0.000019    0.669930
  H     -0.590384   -1.260817    1.394192
  H     -1.557789   -2.071324    0.139479
  H      0.889776   -2.069749   -0.428688
  H     -0.097411   -1.204891   -1.626758

----------------------------
CARTESIAN COORDINATES (A.U.)
----------------------------
  NO LB      ZA    FRAG     MASS         X           Y           Z
   0 C     6.0000    0    12.011    3.685983    0.000237    1.334999
   1 N     7.0000    0    14.007    2.074181    0.000018   -0.873745
   2 C     6.0000    0    12.011    0.513324    2.240394   -1.128876
   3 C     6.0000    0    12.011   -1.772095    2.260962    0.655293
   4 N     7.0000    0    14.007   -3.255505   -0.000018    0.183040
   5 C     6.0000    0    12.011   -1.772051   -2.261044    0.655156
   6 C     6.0000    0    12.011    0.513546   -2.240508   -1.128775
   7 H     1.0000    0     1.008    4.889013    1.670376    1.266387
   8 H     1.0000    0     1.008    4.888738   -1.670283    1.266497
   9 H     1.0000    0     1.008    2.676586    0.000199    3.150575
  10 H     1.0000    0     1.008    1.681126    3.911227   -0.810414
  11 H     1.0000    0     1.008   -0.184225    2.276385   -3.074257
  12 H     1.0000    0     1.008   -1.115783    2.382555    2.634851
  13 H     1.0000    0     1.008   -2.943915    3.914094    0.263709
  14 H     1.0000    0     1.008   -4.839969   -0.000036    1.265985
  15 H     1.0000    0     1.008   -1.115665   -2.382598    2.634642
  16 H     1.0000    0     1.008   -2.943795   -3.914235    0.263577
  17 H     1.0000    0     1.008    1.681432   -3.911259   -0.810104
  18 H     1.0000    0     1.008   -0.184080   -2.276914   -3.074128

------------------------------------------------------------------------------
                   ___                                                        
                  /   \      - P O W E R E D   B Y -                         
                 /     \                                                     
                 |  |  |   _    _      __       _____    __    __             
                 |  |  |  | |  | |    /  \     |  _  \  |  |  /  |          
                  \  \/   | |  | |   /    \    | | | |  |  | /  /          
                 / \  \   | |__| |  /  /\  \   | |_| |  |  |/  /          
                |  |  |   |  __  | /  /__\  \  |    /   |      \           
                |  |  |   | |  | | |   __   |  |    \   |  |\   \          
                \     /   | |  | | |  |  |  |  | |\  \  |  | \   \       
                 \___/    |_|  |_| |__|  |__|  |_| \__\ |__|  \__/        
                                                                              
                      - O R C A' S   B I G   F R I E N D -                    
                                      &                                       
                       - I N T E G R A L  F E E D E R -                       
                                                                              
 v1 FN, 2020, v2 2021, v3 2022-2024                                           
------------------------------------------------------------------------------


----------------------
SHARK INTEGRAL PACKAGE
----------------------

Number of atoms                             ...     19
Number of basis functions                   ...    203
Number of shells                            ...    101
Maximum angular momentum                    ...      2
Integral batch strategy                     ... SHARK/LIBINT Hybrid
RI-J (if used) integral strategy            ... SPLIT-RIJ (Revised 2003 algorithm where possible)
Printlevel                                  ...      1
Contraction scheme used                     ... SEGMENTED contraction
Prescreening option                         ... SCHWARTZ
   Thresh                                   ... 3.000e-11
   Tcut                                     ... 1.000e-12
   Tpresel                                  ... 1.000e-12 
Coulomb Range Separation                    ... NOT USED
Exchange Range Separation                   ... NOT USED
Multipole approximations                    ... NOT USED
Finite Nucleus Model                        ... NOT USED
CABS basis                                  ... NOT available
Auxiliary Coulomb fitting basis             ... AVAILABLE
   # of basis functions in Aux-J            ...    475
   # of shells in Aux-J                     ...    165
   Maximum angular momentum in Aux-J        ...      4
Auxiliary J/K fitting basis                 ... NOT available
Auxiliary Correlation fitting basis         ... NOT available
Auxiliary 'external' fitting basis          ... NOT available

Checking pre-screening integrals            ... done (  0.0 sec) Dimension = 101
Check shell pair data                       ... done (  0.0 sec)
Shell pair information
Shell pair cut-off parameter TPreSel        ...   1.0e-12
Total number of shell pairs                 ...      5151
Shell pairs after pre-screening             ...      4958
Total number of primitive shell pairs       ...     17956
Primitive shell pairs kept                  ...     12816
          la=0 lb=0:   1674 shell pairs
          la=1 lb=0:   1869 shell pairs
          la=1 lb=1:    550 shell pairs
          la=2 lb=0:    525 shell pairs
          la=2 lb=1:    295 shell pairs
          la=2 lb=2:     45 shell pairs

Calculating one electron integrals          ... done (  0.0 sec)
Calculating RI/J V-Matrix + Cholesky decomp.... done (  0.0 sec)
Calculating Nuclear repulsion               ... done (  0.0 sec) ENN=    343.161851388825 Eh

Diagonalization of the overlap matrix:
Smallest eigenvalue                        ... 6.322e-05
Time for diagonalization                   ...    0.003 sec
Threshold for overlap eigenvalues          ... 1.000e-07
Number of eigenvalues below threshold      ... 0
Time for construction of square roots      ...    0.001 sec
Total time needed                          ...    0.005 sec

-------------------
DFT GRID GENERATION
-------------------

General Integration Accuracy     IntAcc      ... 4.388
Radial Grid Type                 RadialGrid  ... OptM3 with GC (2021)
Angular Grid (max. ang.)         AngularGrid ... 4 (Lebedev-302)
Angular grid pruning method      GridPruning ... 4 (adaptive)
Weight generation scheme         WeightScheme... mBecke (2022)
Basis function cutoff            BFCut       ... 1.0000e-11
Integration weight cutoff        WCut        ... 1.0000e-14
Partially contracted basis set               ... off
Rotationally invariant grid construction     ... off
Angular grids for H and He will be reduced by one unit

Total number of grid points                  ...    80242
Total number of batches                      ...     1265
Average number of points per batch           ...       63
Average number of grid points per atom       ...     4223
Initializing property integral containers    ... done (  0.0 sec)

SHARK setup successfully completed in   0.6 seconds

Maximum memory used throughout the entire STARTUP-calculation: 36.8 MB
Occupation numbers will be reassigned to an Aufbau configuration
             **** ENERGY FILE WAS UPDATED (xtb_opt.en.tmp) ****
Finished Guess after   0.0 sec
Maximum memory used throughout the entire GUESS-calculation: 15.2 MB
----------------------------------------D-I-I-S--------------------------------------------
Iteration    Energy (Eh)           Delta-E    RMSDP     MaxDP     DIISErr   Damp  Time(sec)
-------------------------------------------------------------------------------------------
               ***  Starting incremental Fock matrix formation  ***
                              *** Initializing SOSCF ***
---------------------------------------S-O-S-C-F--------------------------------------
Iteration    Energy (Eh)           Delta-E    RMSDP     MaxDP     MaxGrad    Time(sec)
--------------------------------------------------------------------------------------
    1    -307.1458023791397522     0.00e+00  1.39e-05  2.34e-04  2.92e-05     1.4
               *** Restarting incremental Fock matrix formation ***
    2    -307.1458023337882537     4.54e-08  2.01e-05  3.27e-04  9.06e-05     1.4
    3    -307.1458013864140071     9.47e-07  1.49e-05  2.13e-04  1.76e-04     1.1
    4    -307.1458027711880163    -1.38e-06  1.41e-06  3.03e-05  5.15e-06     1.1
                  *** Gradient check signals convergence ***

               *****************************************************
               *                     SUCCESS                       *
               *           SCF CONVERGED AFTER   4 CYCLES          *
               *****************************************************

             **** ENERGY FILE WAS UPDATED (xtb_opt.en.tmp) ****

----------------
TOTAL SCF ENERGY
----------------

Total Energy       :       -307.14580277118802 Eh           -8357.86220 eV

Components:
Nuclear Repulsion  :        343.16185138882480 Eh            9337.90871 eV
Electronic Energy  :       -650.30765416001282 Eh          -17695.77091 eV
One Electron Energy:      -1094.45175606884732 Eh          -29781.54635 eV
Two Electron Energy:        444.14410190883450 Eh           12085.77544 eV

Virial components:
Potential Energy   :       -612.93884805006439 Eh          -16678.91400 eV
Kinetic Energy     :        305.79304527887638 Eh            8321.05180 eV
Virial Ratio       :          2.00442376801303

DFT components:
N(Alpha)           :       28.000032590738 electrons
N(Beta)            :       28.000032590738 electrons
N(Total)           :       56.000065181476 electrons
E(X)               :      -43.625733868516 Eh       
E(C)               :       -1.780941797362 Eh       
E(XC)              :      -45.406675665877 Eh       

---------------
SCF CONVERGENCE
---------------

  Last Energy change         ...    1.3848e-06  Tolerance :   1.0000e-07
  Last MAX-Density change    ...    3.0334e-05  Tolerance :   1.0000e-07
  Last RMS-Density change    ...    1.4106e-06  Tolerance :   5.0000e-09
  Last DIIS Error            ...    3.4669e-04  Tolerance :   1.0000e-07
  Last Orbital Gradient      ...    5.1453e-06  Tolerance :   1.0000e-04
  Last Orbital Rotation      ...    8.2621e-06  Tolerance :   1.0000e-04


----------------
ORBITAL ENERGIES
----------------

  NO   OCC          E(Eh)            E(eV) 
   0   2.0000     -14.143353      -384.8602 
   1   2.0000     -14.141093      -384.7987 
   2   2.0000     -10.046868      -273.3892 
   3   2.0000     -10.046864      -273.3891 
   4   2.0000     -10.044992      -273.3381 
   5   2.0000     -10.044986      -273.3380 
   6   2.0000     -10.041381      -273.2399 
   7   2.0000      -0.903815       -24.5941 
   8   2.0000      -0.852377       -23.1943 
   9   2.0000      -0.721046       -19.6207 
  10   2.0000      -0.677958       -18.4482 
  11   2.0000      -0.602633       -16.3985 
  12   2.0000      -0.600811       -16.3489 
  13   2.0000      -0.515175       -14.0186 
  14   2.0000      -0.480693       -13.0803 
  15   2.0000      -0.434087       -11.8121 
  16   2.0000      -0.420936       -11.4542 
  17   2.0000      -0.415218       -11.2986 
  18   2.0000      -0.407872       -11.0988 
  19   2.0000      -0.388036       -10.5590 
  20   2.0000      -0.353582        -9.6215 
  21   2.0000      -0.340102        -9.2546 
  22   2.0000      -0.335971        -9.1422 
  23   2.0000      -0.313927        -8.5424 
  24   2.0000      -0.310671        -8.4538 
  25   2.0000      -0.299744        -8.1565 
  26   2.0000      -0.200746        -5.4626 
  27   2.0000      -0.165381        -4.5002 
  28   0.0000       0.066600         1.8123 
  29   0.0000       0.097699         2.6585 
  30   0.0000       0.105371         2.8673 
  31   0.0000       0.118392         3.2216 
  32   0.0000       0.118588         3.2269 
  33   0.0000       0.127799         3.4776 
  34   0.0000       0.137255         3.7349 
  35   0.0000       0.144384         3.9289 
  36   0.0000       0.149058         4.0561 
  37   0.0000       0.162214         4.4141 
  38   0.0000       0.162769         4.4292 
*Only the first 10 virtual orbitals were printed.
Total SCF time: 0 days 0 hours 0 min 5 sec 
Finished LeanSCF after   5.1 sec

Maximum memory used throughout the entire LEANSCF-calculation: 23.9 MB


-------------------------------------------------------------------------------
                          DFT DISPERSION CORRECTION                            
                                                                               
                                DFTD4 V3.4.0                                   
-------------------------------------------------------------------------------
-------------------------   ----------------
Dispersion correction           -0.005622998
-------------------------   ----------------

------------------   -----------------
gCP correction             0.019443749
------------------   -----------------

-------------------------   --------------------
FINAL SINGLE POINT ENERGY      -307.131982019797
-------------------------   --------------------

------------------------------------------------------------------------------
                         ORCA SCF GRADIENT CALCULATION
------------------------------------------------------------------------------

Nuc. rep. gradient        (SHARK) ... done (  0.0 sec)
HCore & Overlap gradient  (SHARK) ... done (  0.2 sec)
Split-RIJ-J gradient      (SHARK) ... done (  0.9 sec)
XC gradient                       ... done (  4.4 sec)
Dispersion correction             ... done (  0.0 sec)

-------------------
DISPERSION GRADIENT
-------------------

   1   C   :    0.000095446    0.000000001    0.000039652
   2   N   :    0.000057328    0.000000000   -0.000027748
   3   C   :    0.000008140    0.000053327   -0.000027483
   4   C   :   -0.000042403    0.000058155    0.000015160
   5   N   :   -0.000103557    0.000000001    0.000009427
   6   C   :   -0.000042401   -0.000058156    0.000015155
   7   C   :    0.000008143   -0.000053333   -0.000027483
   8   H   :    0.000047896    0.000009702    0.000011210
   9   H   :    0.000047893   -0.000009695    0.000011211
  10   H   :    0.000041117    0.000000003    0.000023007
  11   H   :    0.000015403    0.000038423   -0.000012293
  12   H   :   -0.000001541    0.000024550   -0.000028720
  13   H   :   -0.000021949    0.000025666    0.000014943
  14   H   :   -0.000031245    0.000037049    0.000001010
  15   H   :   -0.000038947    0.000000000    0.000008010
  16   H   :   -0.000021946   -0.000025665    0.000014941
  17   H   :   -0.000031243   -0.000037051    0.000001009
  18   H   :    0.000015406   -0.000038423   -0.000012290
  19   H   :   -0.000001540   -0.000024554   -0.000028719

Difference to translation invariance:
           :   -0.0000000000    0.0000000000   -0.0000000000

Difference to rotation invariance:
           :   -0.0000000000   -0.0000000000   -0.0000000000

Norm of the Dispersion gradient    ...    0.0002579671
RMS gradient                       ...    0.0000341686
MAX gradient                       ...    0.0001035573
gCP correction                   ... done

------------------
CARTESIAN GRADIENT
------------------

   1   C   :    0.001683609    0.000071330   -0.000205919
   2   N   :   -0.005446489   -0.000013736    0.005368408
   3   C   :    0.004137194   -0.003610359   -0.002772851
   4   C   :   -0.003767052   -0.003299495    0.000991730
   5   N   :    0.010671706    0.000011702    0.002270101
   6   C   :   -0.003773221    0.003297132    0.000971364
   7   C   :    0.004158602    0.003611004   -0.002764037
   8   H   :   -0.003177640   -0.002648438   -0.001536936
   9   H   :   -0.003163946    0.002604762   -0.001545126
  10   H   :    0.000053116   -0.000009110   -0.004242983
  11   H   :   -0.001339548   -0.003080136    0.000358251
  12   H   :    0.002006747   -0.002440017    0.002886816
  13   H   :   -0.000756865   -0.001464861   -0.001667551
  14   H   :    0.000437615   -0.003453846   -0.000264179
  15   H   :   -0.002065374    0.000004572    0.000856541
  16   H   :   -0.000750901    0.001468925   -0.001688178
  17   H   :    0.000439119    0.003448910   -0.000263325
  18   H   :   -0.001335062    0.003074918    0.000354119
  19   H   :    0.001988392    0.002426743    0.002893756

Difference to translation invariance:
           :    0.0000000000    0.0000000000   -0.0000000000

Difference to rotation invariance:
           :   -0.0000000670   -0.0012041604    0.0000006472

Norm of the Cartesian gradient     ...    0.0215572473
RMS gradient                       ...    0.0028553272
MAX gradient                       ...    0.0106717060

-------
TIMINGS
-------

Total SCF gradient time     ....        5.561 sec

Densities                   ....       0.000 sec  (  0.0%)
One electron gradient       ....       0.188 sec  (  3.4%)
RI-J Coulomb gradient       ....       0.949 sec  ( 17.1%)
XC gradient                 ....       4.404 sec  ( 79.2%)

Maximum memory used throughout the entire SCFGRAD-calculation: 35.4 MB

------------------------------------------------------------------------------
                              ORCA PROPERTY CALCULATIONS
------------------------------------------------------------------------------

GBWName                                 ... xtb_opt.gbw
Number of atoms                         ...     19
Number of basis functions               ...    203
Max core memory                         ...   1024 MB

Electric properties:
Dipole moment                           ... YES
Quadrupole moment                       ...  NO
Static polarizability (Dipole/Dipole)   ...  NO
Static polarizability (Dipole/Quad.)    ...  NO
Static polarizability (Quad./Quad.)     ...  NO
Static polarizability (Velocity)        ...  NO

Atomic electric properties:
Dipole moment                           ...  NO
Quadrupole moment                       ...  NO
Static polarizability                   ...  NO

Choice of electric origin               ... Center of mass
Position of electric origin             ...    -0.000001    -0.000000     0.000003

General magnetic properties:
Magnetizability                         ...  NO

EPR properties:
g-Tensor (aka g-matrix)                 ...  NO
Zero-Field splitting spin-orbit         ...  NO
Zero-field splitting spin-spin          ...  NO
Hyperfine couplings                     ...  NO (   0 nuclei)
Quadrupole couplings                    ...  NO (   0 nuclei)
Contact density                         ...  NO (   0 nuclei)

NMR properties:
Chemical shifts                         ...  NO (   0 nuclei)
Spin-rotation constants                 ...  NO (   0 nuclei)
Spin-spin couplings                     ...  NO (   0 nuclei,    0 pairs)

Choice of magnetic origin               ... GIAO
Position of magnetic origin             ...     0.000000     0.000000     0.000000

Properties with geometric perturbations:
SCF Hessian                             ...  NO
IR spectrum                             ...  NO
VCD spectrum                            ...  NO
X-ray spectroscopy properties:
SCF XES/XAS/RIXS spectra                ...  NO


-------------
DIPOLE MOMENT
-------------

Method             : SCF
Type of density    : Electron Density
Multiplicity       :   1
Irrep              :   0
Energy             :  -307.1458027711880163 Eh
Relativity type    : 
Basis              : AO
                                X                 Y                 Z
Electronic contribution:     -1.390677794       0.000222622      -1.895095503
Nuclear contribution   :      1.232487201      -0.000243262       2.469018658
                        -----------------------------------------
Total Dipole Moment    :     -0.158190593      -0.000020640       0.573923155
                        -----------------------------------------
Magnitude (a.u.)       :      0.595325165
Magnitude (Debye)      :      1.513196313



--------------------
Rotational spectrum 
--------------------
 
Rotational constants in cm-1:             0.132242             0.088361             0.067539 
Rotational constants in MHz :          3964.524075          2649.006090          2024.781450 

Dipole components along the rotational axes: 
x,y,z [a.u.] :     0.172272     0.000003     0.569855 
x,y,z [Debye]:     0.437880     0.000007     1.448456 

 

Dipole moment calculation done in   0.0 sec 

Maximum memory used throughout the entire PROP-calculation: 13.8 MB

--------------------------------
SUGGESTED CITATIONS FOR THIS RUN
--------------------------------

Below you find a list of papers that are relevant to this ORCA run
We neither can nor want to force you to cite these papers, but we appreciate if you do
You receive ORCA, which is the product of decades of hard work by many enthusiastic individuals, for free
The only thing we kindly ask in return is that you cite our papers,
We deeply appreciate it, if you show your appreciation for ORCA by not just citing the generic ORCA reference.

Please note that relegating all ORCA citations to the supporting information does *not* help us.
SI sections are not indexed - citations you put there will not count into any citation statistics
But we need these citations in order to attract the funding resources that allow us to do what we are doing

Therefore, if you are a happy ORCA user, please consider citing a few of the papers listed below in the main body of your paper

In addition to the list printed below, the program has created the file xtb_opt.bibtex that contains the list in bibtex format
You can import this file easily into all common literature databanks and citation aid programs


List of essential papers. We consider these as the minimum necessary citations

  1. Neese,F.
     Software update: the ORCA program system, version 5.0
     WIRES Comput. Molec. Sci., 2022 12(1)e1606
     doi.org/10.1002/wcms.1606
  2. Grimme,S.; Hansen,A.; Ehlert,S.; Mewes,J.
     r2SCAN-3c: A 'Swiss army knife' composite electronic-structure method
     J. Chem. Phys., 2021 154 064103
     doi.org/10.1063/5.0040021

List of papers to cite with high priority. The work reported in these papers was absolutely
necessary for this run to complete.
Our perspective: the developers of density functionals and basis sets usually get cited in chemistry papers
Good! But without the algorithms to do something with them, the functionals or basis sets would not do anything.
Hence, in our opinion, the algorithm design and method developments papers are equally worthy of getting cited

  1. Neese,F.
     An improvement of the resolution of the identity approximation for the formation of the Coulomb matrix
     J. Comp. Chem., 2003 24(14)1740-1747
     doi.org/10.1002/jcc.10318
  2. Neese,F.
     The SHARK Integral Generation and Digestion System
     J. Comp. Chem., 2022  1-16
     doi.org/10.1002/jcc.26942
  3. Lehtola,S.; Steigemann,C.; Oliveira,M.; Marques,M.
     Recent developments in Libxc - A comprehensive library of functionals for density functional theory
     Software X, 2018 7 
     doi.org/10.1016/j.softx.2017.11.002
  4. Caldeweyher,E.; Bannwarth,C.; Grimme,S.
     Extension of the D3 dispersion coefficient model
     J. Chem. Phys., 2017 147 034112
     doi.org/10.1063/1.4993215
  5. Caldeweyher,E.; Ehlert,S.; Hansen,A.; Neugebauer,H.; Spicher,S.; Bannwarth,C.; Grimme,S.
     A generally applicable atomic-charge dependent London dispersion correction
     J. Chem. Phys., 2019 150 154122
     doi.org/10.1063/1.5090222
  6. Caldeweyher,E.; Mewes,J.; Ehlert,S.; Grimme,S.
     Extension and evaluation of the D4 London-dispersion model for periodic systems
     Phys. Chem. Chem. Phys., 2020 22(16)8499-8512
     doi.org/10.1039/D0CP00502A
  7. Wittmann,L.; Gordiy,I.; Friede,M.; Helmich-Paris,B.; Grimme,S.; Hansen,A.; Bursch,M.
     Extension of the D3 and D4 London Dispersion Corrections to the full Actinides Series
     Phys. Chem. Chem. Phys., 2024 26(32)21379-21394
     doi.org/https://doi.org/10.1039/D4CP01514B 

List of suggested additional citations. These are papers that are important in the 'surrounding' of 
of this run, or papers that preceded the highly important papers. If you like your results we are grateful for a citation.

  1. Neese,F.
     The ORCA program system
     WIRES Comput. Molec. Sci., 2012 2(1)73-78
     doi.org/10.1002/wcms.81
  2. Neese,F.
     Software update: the ORCA program system, version 4.0
     WIRES Comput. Molec. Sci., 2018 8(1)1-6
     doi.org/10.1002/wcms.1327
  3. Neese,F.; Wennmohs,F.; Becker,U.; Riplinger,C.
     The ORCA quantum chemistry program package
     J. Chem. Phys., 2020 152 Art. No. L224108
     doi.org/10.1063/5.0004608

List of optional additional citations

  1. Neese,F.
     Approximate second-order SCF convergence for spin unrestricted wavefunctions
     Chem. Phys. Lett., 2000 325(1-3)93-98
     doi.org/10.1016/s0009-2614(00)00662-x

Timings for individual modules:

Sum of individual times          ...       11.357 sec (=   0.189 min)
Startup calculation              ...        0.583 sec (=   0.010 min)   5.1 %
SCF iterations                   ...        5.130 sec (=   0.085 min)  45.2 %
Property calculations            ...        0.040 sec (=   0.001 min)   0.3 %
SCF Gradient evaluation          ...        5.604 sec (=   0.093 min)  49.3 %
                             ****ORCA TERMINATED NORMALLY****
TOTAL RUN TIME: 0 days 0 hours 0 minutes 11 seconds 426 msec
  ------------------------------------------------------------------------
          * successful ORCA run, taking over control again...

         :::::::::::::::::::::::::::::::::::::::::::::::::::::
         ::                  ORCA SUMMARY                   ::
         :::::::::::::::::::::::::::::::::::::::::::::::::::::
         :: total energy            -307.131982019797 Eh    ::
         :: gradient norm              0.021557247347 Eh/a0 ::
         :: HOMO-LUMO gap              0.000000000000 eV    ::
         :::::::::::::::::::::::::::::::::::::::::::::::::::::

      ----------------------------------------------------------- 
     |                       L-ANC optimizer                     |
      ----------------------------------------------------------- 
          low memory version by Sebastian Ehlert

          ...................................................
          :                      SETUP                      :
          :.................................................:
          :   energy convergence        0.5000000E-05 Eh    :
          :   grad. convergence         0.1000000E-02 Eh/a0 :
          :   optimization log               true           :
          :   writing optlog all                1     steps :
          :   Hessian reset                     8     steps :
          :   maximium step len.        1.0000000     a0    :
          :   LBFGS images                      8           :
          ...................................................
 * calculating model hessian...
Using Lindh-Hessian (1995)
 Shifting diagonal of input Hessian by    1.0000000000000000E-002
 Lowest  eigenvalues of input Hessian
    0.000000    0.000000    0.000000    0.000000    0.000000    0.000000
    0.015957    0.018608    0.020347    0.026739    0.030287    0.035139
    0.041892    0.045830    0.061085    0.064775    0.066754    0.068667
 Highest eigenvalues
    1.197638    1.228912    1.423225    1.448858    1.498894    1.534054


........................................................................
.............................. CYCLE    1 ..............................
........................................................................
                         * ORCA takes the control...
  ------------------------------------------------------------------------

                                 *****************
                                 * O   R   C   A *
                                 *****************

                                            #,                                       
                                            ###                                      
                                            ####                                     
                                            #####                                    
                                            ######                                   
                                           ########,                                 
                                     ,,################,,,,,                         
                               ,,#################################,,                 
                          ,,##########################################,,             
                       ,#########################################, ''#####,          
                    ,#############################################,,   '####,        
                  ,##################################################,,,,####,       
                ,###########''''           ''''###############################       
              ,#####''   ,,,,##########,,,,          '''####'''          '####       
            ,##' ,,,,###########################,,,                        '##       
           ' ,,###''''                  '''############,,,                           
         ,,##''                                '''############,,,,        ,,,,,,###''
      ,#''                                            '''#######################'''  
     '                                                          ''''####''''         
             ,#######,   #######,   ,#######,      ##                                
            ,#'     '#,  ##    ##  ,#'     '#,    #''#        ,####,   ,####,        
            ##       ##  ##   ,#'  ##            #'  '#       #'       #'  '#        
            ##       ##  #######   ##           ,######,      #####,   #    #        
            '#,     ,#'  ##    ##  '#,     ,#' ,#      #,     #,   #   #,  ,#        
             '#######'   ##     ##  '#######'  #'      '#     '####' # '####'        



                #########################################################
                #                        -***-                          #
                #          Department of theory and spectroscopy        #
                #                                                       #
                #                      Frank Neese                      #
                #                                                       #
                #     Directorship, Architecture, Infrastructure        #
                #                    SHARK, DRIVERS                     #
                #        Core code/Algorithms in most modules           #
                #                                                       #
                #        Max Planck Institute fuer Kohlenforschung      #
                #                Kaiser Wilhelm Platz 1                 #
                #                 D-45470 Muelheim/Ruhr                 #
                #                      Germany                          #
                #                                                       #
                #                  All rights reserved                  #
                #                        -***-                          #
                #########################################################


                         Program Version 6.0.1  -  RELEASE   -


 With contributions from (in alphabetic order):
[Max-Planck-Institut fuer Kohlenforschung]                               
  Daniel Aravena         : Magnetic Suceptibility                        
  Michael Atanasov       : Ab Initio Ligand Field Theory (pilot matlab implementation)
  Alexander A. Auer      : GIAO ZORA, VPT2 properties, NMR spectrum      
  Ute Becker             : All parallelization in ORCA, NUMFREQ, NUMCALC 
  Giovanni Bistoni       : ED, misc. LED, open-shell LED, HFLD           
  Martin Brehm           : Molecular dynamics                            
  Dmytro Bykov           : pre 5.0 version of the SCF Hessian            
  Marcos Casanova-Páez   : Triplet and SCS-CIS(D). UHF-(DLPNO)-IP/EA/STEOM-CCSD. UHF-CVS-IP/STEOM-CCSD   
  Vijay G. Chilkuri      : MRCI spin determinant printing, contributions to CSF-ICE 
  Pauline Colinet        : FMM embedding                                 
  Dipayan Datta          : RHF DLPNO-CCSD density                        
  Achintya Kumar Dutta   : EOM-CC, STEOM-CC                              
  Nicolas Foglia         : Exact transition moments, OPA infrastructure, MCD improvements    
  Dmitry Ganyushin       : Spin-Orbit,Spin-Spin,Magnetic field MRCI      
  Miquel Garcia-Rates    : C-PCM and meta-GGA Hessian, CCSD/C-PCM, Gaussian charge scheme 
  Tiago L. C. Gouveia    : GS-ROHF, GS-ROCIS                             
  Yang Guo               : DLPNO-NEVPT2, F12-NEVPT2, CIM, IAO-localization        
  Andreas Hansen         : Spin unrestricted coupled pair/coupled cluster methods 
  Ingolf Harden          : AUTO-CI MPn and infrastructure                
  Benjamin Helmich-Paris : MC-RPA, TRAH-(SCF,CASSCF), AVAS, COSX integrals, SCF dyn. polar. 
  Lee Huntington         : MR-EOM, pCC                                   
  Robert Izsak           : Overlap fitted RIJCOSX, COSX-SCS-MP3, EOM     
  Riya Kayal             : Wick's Theorem for AUTO-CI, AUTO-CI UHF-CCSDT 
  Emily Kempfer          : AUTO-CI, RHF CISDT and CCSDT                  
  Christian Kollmar      : KDIIS, OOCD, Brueckner-CCSD(T), CCSD density, CASPT2, CASPT2-K, improved NEVPT2 
  Axel Koslowski         : Symmetry handling                             
  Simone Kossmann        : meta-GGA functionals, TD-DFT gradient, OOMP2, (MP2 Hessian; deprecated post 5.0) 
  Lucas Lang             : DCDCAS                                        
  Marvin Lechner         : AUTO-CI (C++ implementation), FIC-MRCC        
  Spencer Leger          : CASSCF response                               
  Dagmar Lenk            : GEPOL surface, SMD, ORCA-2-JSON               
  Dimitrios Liakos       : Extrapolation schemes; Compound Job, initial MDCI parallelization 
  Dimitrios Manganas     : Further ROCIS development; embedding schemes. LFT, Crystal Embedding 
  Dimitrios Pantazis     : SARC Basis sets                               
  Anastasios Papadopoulos: AUTO-CI, single reference methods and gradients 
  Taras Petrenko         : pre 6.0 DFT Hessian and TD-DFT gradient, (ASA, deprecated), ECA, 1-Electron XAS/XES, NRVS 
  Peter Pinski           : DLPNO-MP2, DLPNO-MP2 Gradient                 
  Christoph Reimann      : Effective Core Potentials                     
  Marius Retegan         : Local ZFS, SOC                                
  Christoph Riplinger    : Optimizer, TS searches, QM/MM, DLPNO-CCSD(T), (RO)-DLPNO pert. Triples 
  Michael Roemelt        : Original ROCIS implementation                 
  Masaaki Saitow         : Open-shell DLPNO-CCSD energy and density      
  Barbara Sandhoefer     : DKH picture change effects                    
  Kantharuban Sivalingam : CASSCF convergence/infrastructure, NEVPT2 and variants, FIC-MRCI 
  Bernardo de Souza      : ESD, SOC TD-DFT                               
  Georgi L. Stoychev     : AutoAux, RI-MP2 NMR, DLPNO-MP2 response, X2C  
  Van Anh Tran           : RI-MP2 g-tensors                              
  Willem Van den Heuvel  : Paramagnetic NMR                              
  Zikuan Wang            : NOTCH, Electric field optimization            
  Frank Wennmohs         : Technical directorship and infrastructure     
  Hang Xu                : AUTO-CI-Response properties                   
                                                                         
[FACCTs GmbH]                                                            
  Markus Bursch, Miquel Garcia-Rates, Christoph Riplinger, Bernardo de Souza, Georgi L. Stoychev 
                                                                 
  APM, Basis sets (HGBS, AHGBS, def-TZVP (Ac-Lr), def2-XVPD (La-Lu)), CI-OPT, improved COSX, DLPNO-Multilevel,           
  DOCKER, DRACO, updates on ESD, GOAT, IRC, LR-CPCM, MBIS, meta-GGA TD-DFT gradient, ML-optimized integration grids, 
  MM, NACMEs, nearIR, NEB, NEB-TS, NL-DFT gradient (VV10), 2- and 3-layer-ONIOM, interface openCOSMO-RS, QMMM,   
  Crystal-QMMM, SF, symmetry and pop. for TD-DFT, r2SCAN hybrids, SOLVATOR                                   
                                                                         
[Other institutions]                                                     
  V. Asgeirsson          : NEB                                           
  Christoph Bannwarth    : sTDA-DFT, sTD-DFT, PBEh-3c, B97-3c, D3        
  Sebastian Ehlert       : rSCAN, r2SCAN, r2SCAN-3c, D4, dhf basis sets  
  Marvin Friede          : D4 for Fr, Ra, Ac-Lr                          
  Lars Goerigk           : TD-DFT with DH, B97 family of functionals     
  Stefan Grimme          : VdW corrections, initial TS optimization, DFT functionals, gCP, sTDA/sTD-DF 
  Waldemar Hujo          : DFT-NL                                        
  H. Jonsson             : NEB                                           
  Holger Kruse           : gCP                                           
  Marcel Mueller         : wB97X-3c, vDZP basis set                      
  Hagen Neugebauer       : wr2SCAN                                       
  Tobias Risthaus        : range-separated hybrid DFT                    
  Lukas Wittmann         : regularized MP2, r2SCAN double-hybrids, wr2SCAN        
                                                                         
We gratefully acknowledge several colleagues who have allowed us to      
interface, adapt or use parts of their codes:                            
  Ed Valeev, F. Pavosevic, A. Kumar             : LibInt (2-el integral package), F12 methods 
  Garnet Chan, S. Sharma, J. Yang, R. Olivares  : DMRG                   
  Ulf Ekstrom                                   : XCFun DFT Library      
  Mihaly Kallay                                 : mrcc  (arbitrary order and MRCC methods)
  Frank Weinhold                                : gennbo (NPA and NBO analysis)           
  Simon Mueller                                 : openCOSMO-RS                            
  Christopher J. Cramer and Donald G. Truhlar   : smd solvation model                     
  S Lehtola, MJT Oliveira, MAL Marques          : LibXC Library                           
  Liviu Ungur et al                             : ANISO software                          


 Your calculation uses the libint2 library for the computation of 2-el integrals
 For citations please refer to: http://libint.valeyev.net

 Your ORCA version has been built with support for libXC version: 6.2.2
 For citations please refer to: https://libxc.gitlab.io

 This ORCA versions uses:
   CBLAS   interface :  Fast vector & matrix operations
   LAPACKE interface :  Fast linear algebra routines
   SCALAPACK package :  Parallel linear algebra routines
   Shared memory     :  Shared parallel matrices
   BLAS/LAPACK       :  OpenBLAS 0.3.27  USE64BITINT DYNAMIC_ARCH NO_AFFINITY Zen SINGLE_THREADED
        Core in use  :  Zen
   Copyright (c) 2011-2014, The OpenBLAS Project




***************************************
The coordinates will be read from file: xtb_opt.xyz
***************************************


Your calculation utilizes the geometrical counterpoise correction gCP
Please cite in your paper:
H.Kruse, S. Grimme J.Chem.Phys., 136, (2012), 154101 
   

Your calculation utilizes the atom-pairwise dispersion correction
based on EEQ partial charges (D4)


================================================================================

----- Orbital basis set information -----
Your calculation utilizes the basis: def2-mTZVPP
   Stefan Grimme, Andreas Hansen, Sebastian Ehlert, and Jan-Michael Mewes 
   J. Chem. Phys. 154, 064103 (2021). DOI: 10.1063/5.0040021

----- AuxJ basis set information -----
Your calculation utilizes the auxiliary basis: def2/J
   F. Weigend, Phys. Chem. Chem. Phys. 8, 1057 (2006).

================================================================================
                                        WARNINGS
                       Please study these warnings very carefully!
================================================================================

WARNING: Old DensityContainer found on disk!
         Will remove this file - 
         If you want to keep old densities, please start your calculation with a different basename. 



WARNING: SCAN, rSCAN, or r2SCAN functional requested.
  ===> : libXC variant has now been activated.



================================================================================
                                       INPUT FILE
================================================================================
NAME = xtb_opt.inp
|  1> ! r2scan-3c def2/J RI DEFGRID2 scfconv7 ENGRAD tightSCF miniprint
|  2> * xyzfile 0 1 xtb_opt.xyz
|  3> 
|  4>                          ****END OF INPUT****
================================================================================

                     *******************************
                     * Energy+Gradient Calculation *
                     *******************************

---------------------------------
CARTESIAN COORDINATES (ANGSTROEM)
---------------------------------
  C      1.950219    0.000051    0.708103
  N      1.099620    0.000012   -0.471830
  C      0.269478    1.194010   -0.600632
  C     -0.938856    1.203035    0.344039
  N     -1.729764   -0.000046    0.093246
  C     -0.938809   -1.203099    0.344067
  C      0.269549   -1.194027   -0.600587
  H      2.594403    0.884533    0.682703
  H      2.594328   -0.884516    0.682807
  H      1.420109    0.000107    1.676433
  H      0.889113    2.081508   -0.432125
  H     -0.108576    1.228532   -1.630689
  H     -0.586247    1.271568    1.392105
  H     -1.553270    2.087286    0.142574
  H     -2.561967   -0.000063    0.671305
  H     -0.586230   -1.271603    1.392139
  H     -1.553186   -2.087370    0.142580
  H      0.889221   -2.081482   -0.431978
  H     -0.108443   -1.228674   -1.630665

----------------------------
CARTESIAN COORDINATES (A.U.)
----------------------------
  NO LB      ZA    FRAG     MASS         X           Y           Z
   0 C     6.0000    0    12.011    3.685380    0.000097    1.338121
   1 N     7.0000    0    14.007    2.077981    0.000023   -0.891630
   2 C     6.0000    0    12.011    0.509240    2.256352   -1.135030
   3 C     6.0000    0    12.011   -1.774181    2.273406    0.650139
   4 N     7.0000    0    14.007   -3.268781   -0.000088    0.176210
   5 C     6.0000    0    12.011   -1.774091   -2.273527    0.650193
   6 C     6.0000    0    12.011    0.509373   -2.256384   -1.134945
   7 H     1.0000    0     1.008    4.902710    1.671525    1.290121
   8 H     1.0000    0     1.008    4.902569   -1.671493    1.290317
   9 H     1.0000    0     1.008    2.683616    0.000202    3.167999
  10 H     1.0000    0     1.008    1.680179    3.933480   -0.816598
  11 H     1.0000    0     1.008   -0.205179    2.321590   -3.081556
  12 H     1.0000    0     1.008   -1.107846    2.402915    2.630698
  13 H     1.0000    0     1.008   -2.935256    3.944399    0.269425
  14 H     1.0000    0     1.008   -4.841416   -0.000119    1.268583
  15 H     1.0000    0     1.008   -1.107814   -2.402982    2.630762
  16 H     1.0000    0     1.008   -2.935096   -3.944557    0.269437
  17 H     1.0000    0     1.008    1.680384   -3.933431   -0.816321
  18 H     1.0000    0     1.008   -0.204927   -2.321858   -3.081511

------------------------------------------------------------------------------
                   ___                                                        
                  /   \      - P O W E R E D   B Y -                         
                 /     \                                                     
                 |  |  |   _    _      __       _____    __    __             
                 |  |  |  | |  | |    /  \     |  _  \  |  |  /  |          
                  \  \/   | |  | |   /    \    | | | |  |  | /  /          
                 / \  \   | |__| |  /  /\  \   | |_| |  |  |/  /          
                |  |  |   |  __  | /  /__\  \  |    /   |      \           
                |  |  |   | |  | | |   __   |  |    \   |  |\   \          
                \     /   | |  | | |  |  |  |  | |\  \  |  | \   \       
                 \___/    |_|  |_| |__|  |__|  |_| \__\ |__|  \__/        
                                                                              
                      - O R C A' S   B I G   F R I E N D -                    
                                      &                                       
                       - I N T E G R A L  F E E D E R -                       
                                                                              
 v1 FN, 2020, v2 2021, v3 2022-2024                                           
------------------------------------------------------------------------------


----------------------
SHARK INTEGRAL PACKAGE
----------------------

Number of atoms                             ...     19
Number of basis functions                   ...    203
Number of shells                            ...    101
Maximum angular momentum                    ...      2
Integral batch strategy                     ... SHARK/LIBINT Hybrid
RI-J (if used) integral strategy            ... SPLIT-RIJ (Revised 2003 algorithm where possible)
Printlevel                                  ...      1
Contraction scheme used                     ... SEGMENTED contraction
Prescreening option                         ... SCHWARTZ
   Thresh                                   ... 3.000e-11
   Tcut                                     ... 1.000e-12
   Tpresel                                  ... 1.000e-12 
Coulomb Range Separation                    ... NOT USED
Exchange Range Separation                   ... NOT USED
Multipole approximations                    ... NOT USED
Finite Nucleus Model                        ... NOT USED
CABS basis                                  ... NOT available
Auxiliary Coulomb fitting basis             ... AVAILABLE
   # of basis functions in Aux-J            ...    475
   # of shells in Aux-J                     ...    165
   Maximum angular momentum in Aux-J        ...      4
Auxiliary J/K fitting basis                 ... NOT available
Auxiliary Correlation fitting basis         ... NOT available
Auxiliary 'external' fitting basis          ... NOT available

Checking pre-screening integrals            ... done (  0.0 sec) Dimension = 101
Check shell pair data                       ... done (  0.0 sec)
Shell pair information
Shell pair cut-off parameter TPreSel        ...   1.0e-12
Total number of shell pairs                 ...      5151
Shell pairs after pre-screening             ...      4953
Total number of primitive shell pairs       ...     17956
Primitive shell pairs kept                  ...     12807
          la=0 lb=0:   1673 shell pairs
          la=1 lb=0:   1865 shell pairs
          la=1 lb=1:    550 shell pairs
          la=2 lb=0:    525 shell pairs
          la=2 lb=1:    295 shell pairs
          la=2 lb=2:     45 shell pairs

Calculating one electron integrals          ... done (  0.0 sec)
Calculating RI/J V-Matrix + Cholesky decomp.... done (  0.0 sec)
Calculating Nuclear repulsion               ... done (  0.0 sec) ENN=    341.824055359810 Eh

Diagonalization of the overlap matrix:
Smallest eigenvalue                        ... 6.525e-05
Time for diagonalization                   ...    0.003 sec
Threshold for overlap eigenvalues          ... 1.000e-07
Number of eigenvalues below threshold      ... 0
Time for construction of square roots      ...    0.001 sec
Total time needed                          ...    0.005 sec

-------------------
DFT GRID GENERATION
-------------------

General Integration Accuracy     IntAcc      ... 4.388
Radial Grid Type                 RadialGrid  ... OptM3 with GC (2021)
Angular Grid (max. ang.)         AngularGrid ... 4 (Lebedev-302)
Angular grid pruning method      GridPruning ... 4 (adaptive)
Weight generation scheme         WeightScheme... mBecke (2022)
Basis function cutoff            BFCut       ... 1.0000e-11
Integration weight cutoff        WCut        ... 1.0000e-14
Partially contracted basis set               ... off
Rotationally invariant grid construction     ... off
Angular grids for H and He will be reduced by one unit

Total number of grid points                  ...    80278
Total number of batches                      ...     1266
Average number of points per batch           ...       63
Average number of grid points per atom       ...     4225
Initializing property integral containers    ... done (  0.0 sec)

SHARK setup successfully completed in   0.5 seconds

Maximum memory used throughout the entire STARTUP-calculation: 36.8 MB
Occupation numbers will be reassigned to an Aufbau configuration
             **** ENERGY FILE WAS UPDATED (xtb_opt.en.tmp) ****
Finished Guess after   0.0 sec
Maximum memory used throughout the entire GUESS-calculation: 15.2 MB
----------------------------------------D-I-I-S--------------------------------------------
Iteration    Energy (Eh)           Delta-E    RMSDP     MaxDP     DIISErr   Damp  Time(sec)
-------------------------------------------------------------------------------------------
               ***  Starting incremental Fock matrix formation  ***
                              *** Initializing SOSCF ***
---------------------------------------S-O-S-C-F--------------------------------------
Iteration    Energy (Eh)           Delta-E    RMSDP     MaxDP     MaxGrad    Time(sec)
--------------------------------------------------------------------------------------
    1    -307.1461330775892975     0.00e+00  2.49e-04  4.99e-03  3.37e-04     1.4
               *** Restarting incremental Fock matrix formation ***
    2    -307.1463200248919065    -1.87e-04  1.34e-04  2.39e-03  5.91e-04     1.4
    3    -307.1463200675126473    -4.26e-08  6.65e-05  1.01e-03  5.88e-04     1.1
                 **** Energy Check signals convergence ****

               *****************************************************
               *                     SUCCESS                       *
               *           SCF CONVERGED AFTER   3 CYCLES          *
               *****************************************************

             **** ENERGY FILE WAS UPDATED (xtb_opt.en.tmp) ****

----------------
TOTAL SCF ENERGY
----------------

Total Energy       :       -307.14632006751265 Eh           -8357.87628 eV

Components:
Nuclear Repulsion  :        341.82405535981036 Eh            9301.50543 eV
Electronic Energy  :       -648.97037542732301 Eh          -17659.38170 eV
One Electron Energy:      -1091.89456624201921 Eh          -29711.96167 eV
Two Electron Energy:        442.92419081469620 Eh           12052.57997 eV

Virial components:
Potential Energy   :       -612.80405078034300 Eh          -16675.24597 eV
Kinetic Energy     :        305.65773071283036 Eh            8317.36970 eV
Virial Ratio       :          2.00487011845312

DFT components:
N(Alpha)           :       28.000041233429 electrons
N(Beta)            :       28.000041233429 electrons
N(Total)           :       56.000082466859 electrons
E(X)               :      -43.597018511872 Eh       
E(C)               :       -1.779058772799 Eh       
E(XC)              :      -45.376077284672 Eh       

---------------
SCF CONVERGENCE
---------------

  Last Energy change         ...    4.2621e-08  Tolerance :   1.0000e-07
  Last MAX-Density change    ...    1.0140e-03  Tolerance :   1.0000e-07
  Last RMS-Density change    ...    6.6505e-05  Tolerance :   5.0000e-09
  Last DIIS Error            ...    2.7123e-03  Tolerance :   1.0000e-07
  Last Orbital Gradient      ...    5.8809e-04  Tolerance :   1.0000e-04
  Last Orbital Rotation      ...    4.3708e-04  Tolerance :   1.0000e-04


----------------
ORBITAL ENERGIES
----------------

  NO   OCC          E(Eh)            E(eV) 
   0   2.0000     -14.141770      -384.8171 
   1   2.0000     -14.140843      -384.7919 
   2   2.0000     -10.046799      -273.3873 
   3   2.0000     -10.046795      -273.3872 
   4   2.0000     -10.044533      -273.3256 
   5   2.0000     -10.044528      -273.3255 
   6   2.0000     -10.040962      -273.2285 
   7   2.0000      -0.897975       -24.4352 
   8   2.0000      -0.847504       -23.0617 
   9   2.0000      -0.719311       -19.5735 
  10   2.0000      -0.674874       -18.3643 
  11   2.0000      -0.602269       -16.3886 
  12   2.0000      -0.597399       -16.2561 
  13   2.0000      -0.513958       -13.9855 
  14   2.0000      -0.478282       -13.0147 
  15   2.0000      -0.431972       -11.7546 
  16   2.0000      -0.418652       -11.3921 
  17   2.0000      -0.412168       -11.2157 
  18   2.0000      -0.405406       -11.0317 
  19   2.0000      -0.384186       -10.4542 
  20   2.0000      -0.352855        -9.6017 
  21   2.0000      -0.338528        -9.2118 
  22   2.0000      -0.333894        -9.0857 
  23   2.0000      -0.312164        -8.4944 
  24   2.0000      -0.309013        -8.4087 
  25   2.0000      -0.298633        -8.1262 
  26   2.0000      -0.200362        -5.4521 
  27   2.0000      -0.165405        -4.5009 
  28   0.0000       0.067225         1.8293 
  29   0.0000       0.098487         2.6800 
  30   0.0000       0.103242         2.8094 
  31   0.0000       0.117617         3.2005 
  32   0.0000       0.117923         3.2089 
  33   0.0000       0.127873         3.4796 
  34   0.0000       0.137180         3.7329 
  35   0.0000       0.143325         3.9001 
  36   0.0000       0.149376         4.0647 
  37   0.0000       0.161725         4.4008 
  38   0.0000       0.162387         4.4188 
*Only the first 10 virtual orbitals were printed.
Total SCF time: 0 days 0 hours 0 min 3 sec 
Finished LeanSCF after   3.9 sec

Maximum memory used throughout the entire LEANSCF-calculation: 23.9 MB


-------------------------------------------------------------------------------
                          DFT DISPERSION CORRECTION                            
                                                                               
                                DFTD4 V3.4.0                                   
-------------------------------------------------------------------------------
-------------------------   ----------------
Dispersion correction           -0.005607909
-------------------------   ----------------

------------------   -----------------
gCP correction             0.019030307
------------------   -----------------

-------------------------   --------------------
FINAL SINGLE POINT ENERGY      -307.132897669521
-------------------------   --------------------

------------------------------------------------------------------------------
                         ORCA SCF GRADIENT CALCULATION
------------------------------------------------------------------------------

Nuc. rep. gradient        (SHARK) ... done (  0.0 sec)
HCore & Overlap gradient  (SHARK) ... done (  0.2 sec)
Split-RIJ-J gradient      (SHARK) ... done (  0.9 sec)
XC gradient                       ... done (  4.6 sec)
Dispersion correction             ... done (  0.0 sec)

-------------------
DISPERSION GRADIENT
-------------------

   1   C   :    0.000096043    0.000000001    0.000040531
   2   N   :    0.000057500    0.000000001   -0.000027961
   3   C   :    0.000007882    0.000055020   -0.000027913
   4   C   :   -0.000042522    0.000059618    0.000015188
   5   N   :   -0.000103601   -0.000000002    0.000009443
   6   C   :   -0.000042520   -0.000059620    0.000015188
   7   C   :    0.000007886   -0.000055019   -0.000027909
   8   H   :    0.000047669    0.000009283    0.000011441
   9   H   :    0.000047668   -0.000009280    0.000011442
  10   H   :    0.000041596    0.000000002    0.000023020
  11   H   :    0.000015116    0.000038419   -0.000012474
  12   H   :   -0.000001580    0.000025094   -0.000028601
  13   H   :   -0.000021963    0.000025998    0.000014745
  14   H   :   -0.000030902    0.000037040    0.000001088
  15   H   :   -0.000038949   -0.000000001    0.000008010
  16   H   :   -0.000021963   -0.000025999    0.000014747
  17   H   :   -0.000030900   -0.000037042    0.000001088
  18   H   :    0.000015118   -0.000038418   -0.000012472
  19   H   :   -0.000001578   -0.000025096   -0.000028602

Difference to translation invariance:
           :    0.0000000000    0.0000000000    0.0000000000

Difference to rotation invariance:
           :    0.0000000000    0.0000000000    0.0000000000

Norm of the Dispersion gradient    ...    0.0002599017
RMS gradient                       ...    0.0000344248
MAX gradient                       ...    0.0001036010
gCP correction                   ... done

------------------
CARTESIAN GRADIENT
------------------

   1   C   :    0.000550655    0.000014044   -0.000742968
   2   N   :   -0.003411700   -0.000001821    0.002636234
   3   C   :    0.003067358   -0.001714617   -0.000952082
   4   C   :   -0.003064356   -0.001718185   -0.000396298
   5   N   :    0.004095264    0.000002966    0.001793622
   6   C   :   -0.003062632    0.001710528   -0.000387160
   7   C   :    0.003068215    0.001725121   -0.000955294
   8   H   :   -0.000748014   -0.000631443   -0.000360031
   9   H   :   -0.000741398    0.000618426   -0.000358617
  10   H   :    0.000185906   -0.000001951   -0.000857936
  11   H   :   -0.000452527   -0.000603473    0.000092664
  12   H   :    0.000075605   -0.000778711    0.000752424
  13   H   :    0.000279668   -0.000261449   -0.000314313
  14   H   :    0.000402993   -0.000755410   -0.000015423
  15   H   :   -0.000549688   -0.000001003   -0.000445637
  16   H   :    0.000277511    0.000262256   -0.000316495
  17   H   :    0.000402526    0.000756470   -0.000016520
  18   H   :   -0.000453874    0.000602536    0.000094620
  19   H   :    0.000078488    0.000775717    0.000749209

Difference to translation invariance:
           :    0.0000000000   -0.0000000000    0.0000000000

Difference to rotation invariance:
           :    0.0000002813   -0.0009556531    0.0000002209

Norm of the Cartesian gradient     ...    0.0099913908
RMS gradient                       ...    0.0013233920
MAX gradient                       ...    0.0040952637

-------
TIMINGS
-------

Total SCF gradient time     ....        5.684 sec

Densities                   ....       0.000 sec  (  0.0%)
One electron gradient       ....       0.177 sec  (  3.1%)
RI-J Coulomb gradient       ....       0.916 sec  ( 16.1%)
XC gradient                 ....       4.570 sec  ( 80.4%)

Maximum memory used throughout the entire SCFGRAD-calculation: 35.4 MB

------------------------------------------------------------------------------
                              ORCA PROPERTY CALCULATIONS
------------------------------------------------------------------------------

GBWName                                 ... xtb_opt.gbw
Number of atoms                         ...     19
Number of basis functions               ...    203
Max core memory                         ...   1024 MB

Electric properties:
Dipole moment                           ... YES
Quadrupole moment                       ...  NO
Static polarizability (Dipole/Dipole)   ...  NO
Static polarizability (Dipole/Quad.)    ...  NO
Static polarizability (Quad./Quad.)     ...  NO
Static polarizability (Velocity)        ...  NO

Atomic electric properties:
Dipole moment                           ...  NO
Quadrupole moment                       ...  NO
Static polarizability                   ...  NO

Choice of electric origin               ... Center of mass
Position of electric origin             ...    -0.002657    -0.000019    -0.005327

General magnetic properties:
Magnetizability                         ...  NO

EPR properties:
g-Tensor (aka g-matrix)                 ...  NO
Zero-Field splitting spin-orbit         ...  NO
Zero-field splitting spin-spin          ...  NO
Hyperfine couplings                     ...  NO (   0 nuclei)
Quadrupole couplings                    ...  NO (   0 nuclei)
Contact density                         ...  NO (   0 nuclei)

NMR properties:
Chemical shifts                         ...  NO (   0 nuclei)
[...]
N(Total)           :       56.000131252175 electrons
E(X)               :      -43.576894261546 Eh       
E(C)               :       -1.777838138233 Eh       
E(XC)              :      -45.354732399778 Eh       

---------------
SCF CONVERGENCE
---------------

  Last Energy change         ...    2.2636e-09  Tolerance :   1.0000e-07
  Last MAX-Density change    ...    1.8458e-05  Tolerance :   1.0000e-07
  Last RMS-Density change    ...    9.6882e-07  Tolerance :   5.0000e-09
  Last DIIS Error            ...    1.4331e-05  Tolerance :   1.0000e-07
  Last Orbital Gradient      ...    4.3872e-06  Tolerance :   1.0000e-04
  Last Orbital Rotation      ...    8.9170e-06  Tolerance :   1.0000e-04


----------------
ORBITAL ENERGIES
----------------

  NO   OCC          E(Eh)            E(eV) 
   0   2.0000     -14.147201      -384.9649 
   1   2.0000     -14.143346      -384.8600 
   2   2.0000     -10.049459      -273.4597 
   3   2.0000     -10.049456      -273.4596 
   4   2.0000     -10.047502      -273.4064 
   5   2.0000     -10.047498      -273.4063 
   6   2.0000     -10.043874      -273.3077 
   7   2.0000      -0.897271       -24.4160 
   8   2.0000      -0.846832       -23.0435 
   9   2.0000      -0.720697       -19.6112 
  10   2.0000      -0.675077       -18.3698 
  11   2.0000      -0.603973       -16.4349 
  12   2.0000      -0.597321       -16.2539 
  13   2.0000      -0.514738       -14.0067 
  14   2.0000      -0.477998       -13.0070 
  15   2.0000      -0.432910       -11.7801 
  16   2.0000      -0.419781       -11.4228 
  17   2.0000      -0.411973       -11.2104 
  18   2.0000      -0.405291       -11.0285 
  19   2.0000      -0.384054       -10.4506 
  20   2.0000      -0.353854        -9.6289 
  21   2.0000      -0.340118        -9.2551 
  22   2.0000      -0.334561        -9.1039 
  23   2.0000      -0.313454        -8.5295 
  24   2.0000      -0.309592        -8.4244 
  25   2.0000      -0.298788        -8.1304 
  26   2.0000      -0.202427        -5.5083 
  27   2.0000      -0.169300        -4.6069 
  28   0.0000       0.065831         1.7914 
  29   0.0000       0.097293         2.6475 
  30   0.0000       0.100762         2.7419 
  31   0.0000       0.116773         3.1776 
  32   0.0000       0.116847         3.1796 
  33   0.0000       0.127297         3.4639 
  34   0.0000       0.136420         3.7122 
  35   0.0000       0.141467         3.8495 
  36   0.0000       0.148273         4.0347 
  37   0.0000       0.160609         4.3704 
  38   0.0000       0.161288         4.3889 
*Only the first 10 virtual orbitals were printed.
Total SCF time: 0 days 0 hours 0 min 2 sec 
Finished LeanSCF after   2.9 sec

Maximum memory used throughout the entire LEANSCF-calculation: 23.9 MB


-------------------------------------------------------------------------------
                          DFT DISPERSION CORRECTION                            
                                                                               
                                DFTD4 V3.4.0                                   
-------------------------------------------------------------------------------
-------------------------   ----------------
Dispersion correction           -0.005606492
-------------------------   ----------------

------------------   -----------------
gCP correction             0.018894101
------------------   -----------------

-------------------------   --------------------
FINAL SINGLE POINT ENERGY      -307.133103497938
-------------------------   --------------------

------------------------------------------------------------------------------
                         ORCA SCF GRADIENT CALCULATION
------------------------------------------------------------------------------

Nuc. rep. gradient        (SHARK) ... done (  0.0 sec)
HCore & Overlap gradient  (SHARK) ... done (  0.2 sec)
Split-RIJ-J gradient      (SHARK) ... done (  1.0 sec)
XC gradient                       ... done (  4.7 sec)
Dispersion correction             ... done (  0.0 sec)

-------------------
DISPERSION GRADIENT
-------------------

   1   C   :    0.000095409    0.000000003    0.000040819
   2   N   :    0.000057822    0.000000001   -0.000028500
   3   C   :    0.000008114    0.000056001   -0.000028031
   4   C   :   -0.000042445    0.000060080    0.000015415
   5   N   :   -0.000103713   -0.000000002    0.000009878
   6   C   :   -0.000042443   -0.000060081    0.000015417
   7   C   :    0.000008116   -0.000056001   -0.000028029
   8   H   :    0.000047618    0.000009204    0.000011585
   9   H   :    0.000047618   -0.000009202    0.000011586
  10   H   :    0.000041316    0.000000002    0.000022697
  11   H   :    0.000015065    0.000038354   -0.000012576
  12   H   :   -0.000001549    0.000025476   -0.000028763
  13   H   :   -0.000021871    0.000026100    0.000014787
  14   H   :   -0.000030826    0.000037047    0.000001105
  15   H   :   -0.000039055   -0.000000001    0.000008054
  16   H   :   -0.000021870   -0.000026101    0.000014788
  17   H   :   -0.000030825   -0.000037048    0.000001106
  18   H   :    0.000015066   -0.000038354   -0.000012574
  19   H   :   -0.000001548   -0.000025477   -0.000028762

Difference to translation invariance:
           :    0.0000000000    0.0000000000    0.0000000000

Difference to rotation invariance:
           :   -0.0000000000   -0.0000000000    0.0000000000

Norm of the Dispersion gradient    ...    0.0002605967
RMS gradient                       ...    0.0000345169
MAX gradient                       ...    0.0001037127
gCP correction                   ... done

------------------
CARTESIAN GRADIENT
------------------

   1   C   :    0.000028345    0.000000288    0.000049131
   2   N   :   -0.000009949    0.000000302    0.000026125
   3   C   :   -0.000035995    0.000074810   -0.000025985
   4   C   :    0.000034948   -0.000013609    0.000004851
   5   N   :    0.000028934   -0.000000144   -0.000024561
   6   C   :    0.000034678    0.000013200    0.000005126
   7   C   :   -0.000036307   -0.000074329   -0.000025929
   8   H   :   -0.000012769   -0.000018089    0.000000831
   9   H   :   -0.000012806    0.000017805    0.000001024
  10   H   :    0.000024309    0.000000101   -0.000017411
  11   H   :    0.000004213   -0.000026965    0.000031301
  12   H   :    0.000032974    0.000008433    0.000025502
  13   H   :   -0.000033670   -0.000015526   -0.000016017
  14   H   :   -0.000002434   -0.000022546   -0.000017713
  15   H   :   -0.000045240   -0.000000114   -0.000039185
  16   H   :   -0.000033732    0.000015449   -0.000016055
  17   H   :   -0.000002605    0.000022498   -0.000017777
  18   H   :    0.000004045    0.000026950    0.000031434
  19   H   :    0.000033062   -0.000008515    0.000025306

Difference to translation invariance:
           :   -0.0000000000    0.0000000000    0.0000000000

Difference to rotation invariance:
           :    0.0000000975   -0.0008832029    0.0000001136

Norm of the Cartesian gradient     ...    0.0002019827
RMS gradient                       ...    0.0000267533
MAX gradient                       ...    0.0000748102

-------
TIMINGS
-------

Total SCF gradient time     ....        5.905 sec

Densities                   ....       0.000 sec  (  0.0%)
One electron gradient       ....       0.187 sec  (  3.2%)
RI-J Coulomb gradient       ....       0.953 sec  ( 16.1%)
XC gradient                 ....       4.744 sec  ( 80.3%)

Maximum memory used throughout the entire SCFGRAD-calculation: 35.4 MB

------------------------------------------------------------------------------
                              ORCA PROPERTY CALCULATIONS
------------------------------------------------------------------------------

GBWName                                 ... xtb_opt.gbw
Number of atoms                         ...     19
Number of basis functions               ...    203
Max core memory                         ...   1024 MB

Electric properties:
Dipole moment                           ... YES
Quadrupole moment                       ...  NO
Static polarizability (Dipole/Dipole)   ...  NO
Static polarizability (Dipole/Quad.)    ...  NO
Static polarizability (Quad./Quad.)     ...  NO
Static polarizability (Velocity)        ...  NO

Atomic electric properties:
Dipole moment                           ...  NO
Quadrupole moment                       ...  NO
Static polarizability                   ...  NO

Choice of electric origin               ... Center of mass
Position of electric origin             ...    -0.001999    -0.000031    -0.011853

General magnetic properties:
Magnetizability                         ...  NO

EPR properties:
g-Tensor (aka g-matrix)                 ...  NO
Zero-Field splitting spin-orbit         ...  NO
Zero-field splitting spin-spin          ...  NO
Hyperfine couplings                     ...  NO (   0 nuclei)
Quadrupole couplings                    ...  NO (   0 nuclei)
Contact density                         ...  NO (   0 nuclei)

NMR properties:
Chemical shifts                         ...  NO (   0 nuclei)
Spin-rotation constants                 ...  NO (   0 nuclei)
Spin-spin couplings                     ...  NO (   0 nuclei,    0 pairs)

Choice of magnetic origin               ... GIAO
Position of magnetic origin             ...     0.000000     0.000000     0.000000

Properties with geometric perturbations:
SCF Hessian                             ...  NO
IR spectrum                             ...  NO
VCD spectrum                            ...  NO
X-ray spectroscopy properties:
SCF XES/XAS/RIXS spectra                ...  NO


-------------
DIPOLE MOMENT
-------------

Method             : SCF
Type of density    : Electron Density
Multiplicity       :   1
Irrep              :   0
Energy             :  -307.1463911069545247 Eh
Relativity type    : 
Basis              : AO
                                X                 Y                 Z
Electronic contribution:     -1.409227149      -0.000068449      -1.978275304
Nuclear contribution   :      1.253098583       0.000075410       2.587845207
                        -----------------------------------------
Total Dipole Moment    :     -0.156128567       0.000006961       0.609569903
                        -----------------------------------------
Magnitude (a.u.)       :      0.629246848
Magnitude (Debye)      :      1.599418380



--------------------
Rotational spectrum 
--------------------
 
Rotational constants in cm-1:             0.129580             0.088086             0.067049 
Rotational constants in MHz :          3884.718861          2640.760230          2010.070693 

Dipole components along the rotational axes: 
x,y,z [a.u.] :    -0.171734    -0.000000     0.605359 
x,y,z [Debye]:    -0.436513    -0.000001     1.538699 

 

Dipole moment calculation done in   0.0 sec 

Maximum memory used throughout the entire PROP-calculation: 13.8 MB

--------------------------------
SUGGESTED CITATIONS FOR THIS RUN
--------------------------------

Below you find a list of papers that are relevant to this ORCA run
We neither can nor want to force you to cite these papers, but we appreciate if you do
You receive ORCA, which is the product of decades of hard work by many enthusiastic individuals, for free
The only thing we kindly ask in return is that you cite our papers,
We deeply appreciate it, if you show your appreciation for ORCA by not just citing the generic ORCA reference.

Please note that relegating all ORCA citations to the supporting information does *not* help us.
SI sections are not indexed - citations you put there will not count into any citation statistics
But we need these citations in order to attract the funding resources that allow us to do what we are doing

Therefore, if you are a happy ORCA user, please consider citing a few of the papers listed below in the main body of your paper

In addition to the list printed below, the program has created the file xtb_opt.bibtex that contains the list in bibtex format
You can import this file easily into all common literature databanks and citation aid programs


List of essential papers. We consider these as the minimum necessary citations

  1. Neese,F.
     Software update: the ORCA program system, version 5.0
     WIRES Comput. Molec. Sci., 2022 12(1)e1606
     doi.org/10.1002/wcms.1606
  2. Grimme,S.; Hansen,A.; Ehlert,S.; Mewes,J.
     r2SCAN-3c: A 'Swiss army knife' composite electronic-structure method
     J. Chem. Phys., 2021 154 064103
     doi.org/10.1063/5.0040021

List of papers to cite with high priority. The work reported in these papers was absolutely
necessary for this run to complete.
Our perspective: the developers of density functionals and basis sets usually get cited in chemistry papers
Good! But without the algorithms to do something with them, the functionals or basis sets would not do anything.
Hence, in our opinion, the algorithm design and method developments papers are equally worthy of getting cited

  1. Neese,F.
     An improvement of the resolution of the identity approximation for the formation of the Coulomb matrix
     J. Comp. Chem., 2003 24(14)1740-1747
     doi.org/10.1002/jcc.10318
  2. Neese,F.
     The SHARK Integral Generation and Digestion System
     J. Comp. Chem., 2022  1-16
     doi.org/10.1002/jcc.26942
  3. Lehtola,S.; Steigemann,C.; Oliveira,M.; Marques,M.
     Recent developments in Libxc - A comprehensive library of functionals for density functional theory
     Software X, 2018 7 
     doi.org/10.1016/j.softx.2017.11.002
  4. Caldeweyher,E.; Bannwarth,C.; Grimme,S.
     Extension of the D3 dispersion coefficient model
     J. Chem. Phys., 2017 147 034112
     doi.org/10.1063/1.4993215
  5. Caldeweyher,E.; Ehlert,S.; Hansen,A.; Neugebauer,H.; Spicher,S.; Bannwarth,C.; Grimme,S.
     A generally applicable atomic-charge dependent London dispersion correction
     J. Chem. Phys., 2019 150 154122
     doi.org/10.1063/1.5090222
  6. Caldeweyher,E.; Mewes,J.; Ehlert,S.; Grimme,S.
     Extension and evaluation of the D4 London-dispersion model for periodic systems
     Phys. Chem. Chem. Phys., 2020 22(16)8499-8512
     doi.org/10.1039/D0CP00502A
  7. Wittmann,L.; Gordiy,I.; Friede,M.; Helmich-Paris,B.; Grimme,S.; Hansen,A.; Bursch,M.
     Extension of the D3 and D4 London Dispersion Corrections to the full Actinides Series
     Phys. Chem. Chem. Phys., 2024 26(32)21379-21394
     doi.org/https://doi.org/10.1039/D4CP01514B 

List of suggested additional citations. These are papers that are important in the 'surrounding' of 
of this run, or papers that preceded the highly important papers. If you like your results we are grateful for a citation.

  1. Neese,F.
     The ORCA program system
     WIRES Comput. Molec. Sci., 2012 2(1)73-78
     doi.org/10.1002/wcms.81
  2. Neese,F.
     Software update: the ORCA program system, version 4.0
     WIRES Comput. Molec. Sci., 2018 8(1)1-6
     doi.org/10.1002/wcms.1327
  3. Neese,F.; Wennmohs,F.; Becker,U.; Riplinger,C.
     The ORCA quantum chemistry program package
     J. Chem. Phys., 2020 152 Art. No. L224108
     doi.org/10.1063/5.0004608

List of optional additional citations

  1. Neese,F.
     Approximate second-order SCF convergence for spin unrestricted wavefunctions
     Chem. Phys. Lett., 2000 325(1-3)93-98
     doi.org/10.1016/s0009-2614(00)00662-x

Timings for individual modules:

Sum of individual times          ...        9.555 sec (=   0.159 min)
Startup calculation              ...        0.594 sec (=   0.010 min)   6.2 %
SCF iterations                   ...        2.975 sec (=   0.050 min)  31.1 %
Property calculations            ...        0.039 sec (=   0.001 min)   0.4 %
SCF Gradient evaluation          ...        5.948 sec (=   0.099 min)  62.2 %
                             ****ORCA TERMINATED NORMALLY****
TOTAL RUN TIME: 0 days 0 hours 0 minutes 9 seconds 625 msec
  ------------------------------------------------------------------------
          * successful ORCA run, taking over control again...

         :::::::::::::::::::::::::::::::::::::::::::::::::::::
         ::                  ORCA SUMMARY                   ::
         :::::::::::::::::::::::::::::::::::::::::::::::::::::
         :: total energy            -307.133103497938 Eh    ::
         :: gradient norm              0.000201982677 Eh/a0 ::
         :: HOMO-LUMO gap              0.000000000000 eV    ::
         :::::::::::::::::::::::::::::::::::::::::::::::::::::

           -------------------------------------------------
          |                Property Printout                |
           -------------------------------------------------
           -------------------------------------------------
          |                Geometry Summary                 |
           -------------------------------------------------

      molecular mass/u    :      100.1623749
   center of mass at/Å    :       -0.0010585      -0.0000165      -0.0062736
  moments of inertia/u·Å² :        0.1300899E+03   0.1913708E+03   0.2514163E+03
rotational constants/cm⁻¹ :        0.1295845E+00   0.8808884E-01   0.6705068E-01

 * 19 selected distances

     #   Z          #   Z                                           value/Å
     1   6          2   7                                         1.4597582
     2   7          3   6                                         1.4682093
     3   6          4   6                                         1.5305611 (max)
     4   6          5   7                                         1.4686474
     5   7          6   6                                         1.4686470
     2   7          7   6                                         1.4682096
     6   6          7   6                                         1.5305609
     1   6          8   1                                         1.0958741
     1   6          9   1                                         1.0958742
     1   6         10   1                                         1.1047271
     3   6         11   1                                         1.0965987
     3   6         12   1                                         1.0986287
     4   6         13   1                                         1.1075685
     4   6         14   1                                         1.0967383
     5   7         15   1                                         1.0134670 (min)
     6   6         16   1                                         1.1075686
     6   6         17   1                                         1.0967385
     7   6         18   1                                         1.0965985
     7   6         19   1                                         1.0986290

 * 4 distinct bonds (by element types)

   Z      Z             #   av. dist./Å        max./Å        min./Å
   1 H    6 C          11     1.0995949     1.1075686     1.0958741
   6 C    6 C           2     1.5305610     1.5305611     1.5305609
   1 H    7 N           1     1.0134670     1.0134670     1.0134670
   6 C    7 N           5     1.4666943     1.4686474     1.4597582


optimized geometry written to: xtbopt.coord


           -------------------------------------------------
          | TOTAL ENERGY             -307.133103497938 Eh   |
          | GRADIENT NORM               0.000201982677 Eh/α |
           -------------------------------------------------

------------------------------------------------------------------------
 * finished run on 2025/04/09 at 05:31:11.696     
------------------------------------------------------------------------
 total:
 * wall-time:     0 d,  0 h,  1 min, 20.615 sec
 *  cpu-time:     0 d,  0 h,  0 min,  0.429 sec
 * ratio c/w:     0.005 speedup
 SCF:
 * wall-time:     0 d,  0 h,  0 min, 11.447 sec
 *  cpu-time:     0 d,  0 h,  0 min,  0.071 sec
 * ratio c/w:     0.006 speedup
 ANC optimizer:
 * wall-time:     0 d,  0 h,  1 min,  9.101 sec
 *  cpu-time:     0 d,  0 h,  0 min,  0.011 sec
 * ratio c/w:     0.000 speedup

