
                                 *****************
                                 * O   R   C   A *
                                 *****************

                                            #,                                       
                                            ###                                      
                                            ####                                     
                                            #####                                    
                                            ######                                   
                                           ########,                                 
                                     ,,################,,,,,                         
                               ,,#################################,,                 
                          ,,##########################################,,             
                       ,#########################################, ''#####,          
                    ,#############################################,,   '####,        
                  ,##################################################,,,,####,       
                ,###########''''           ''''###############################       
              ,#####''   ,,,,##########,,,,          '''####'''          '####       
            ,##' ,,,,###########################,,,                        '##       
           ' ,,###''''                  '''############,,,                           
         ,,##''                                '''############,,,,        ,,,,,,###''
      ,#''                                            '''#######################'''  
     '                                                          ''''####''''         
             ,#######,   #######,   ,#######,      ##                                
            ,#'     '#,  ##    ##  ,#'     '#,    #''#        ,####,   ,####,        
            ##       ##  ##   ,#'  ##            #'  '#       #'       #'  '#        
            ##       ##  #######   ##           ,######,      #####,   #    #        
            '#,     ,#'  ##    ##  '#,     ,#' ,#      #,     #,   #   #,  ,#        
             '#######'   ##     ##  '#######'  #'      '#     '####' # '####'        



                #########################################################
                #                        -***-                          #
                #          Department of theory and spectroscopy        #
                #                                                       #
                #                      Frank Neese                      #
                #                                                       #
                #     Directorship, Architecture, Infrastructure        #
                #                    SHARK, DRIVERS                     #
                #        Core code/Algorithms in most modules           #
                #                                                       #
                #        Max Planck Institute fuer Kohlenforschung      #
                #                Kaiser Wilhelm Platz 1                 #
                #                 D-45470 Muelheim/Ruhr                 #
                #                      Germany                          #
                #                                                       #
                #                  All rights reserved                  #
                #                        -***-                          #
                #########################################################


                         Program Version 6.0.1  -  RELEASE   -


 With contributions from (in alphabetic order):
[Max-Planck-Institut fuer Kohlenforschung]                               
  Daniel Aravena         : Magnetic Suceptibility                        
  Michael Atanasov       : Ab Initio Ligand Field Theory (pilot matlab implementation)
  Alexander A. Auer      : GIAO ZORA, VPT2 properties, NMR spectrum      
  Ute Becker             : All parallelization in ORCA, NUMFREQ, NUMCALC 
  Giovanni Bistoni       : ED, misc. LED, open-shell LED, HFLD           
  Martin Brehm           : Molecular dynamics                            
  Dmytro Bykov           : pre 5.0 version of the SCF Hessian            
  Marcos Casanova-Páez   : Triplet and SCS-CIS(D). UHF-(DLPNO)-IP/EA/STEOM-CCSD. UHF-CVS-IP/STEOM-CCSD   
  Vijay G. Chilkuri      : MRCI spin determinant printing, contributions to CSF-ICE 
  Pauline Colinet        : FMM embedding                                 
  Dipayan Datta          : RHF DLPNO-CCSD density                        
  Achintya Kumar Dutta   : EOM-CC, STEOM-CC                              
  Nicolas Foglia         : Exact transition moments, OPA infrastructure, MCD improvements    
  Dmitry Ganyushin       : Spin-Orbit,Spin-Spin,Magnetic field MRCI      
  Miquel Garcia-Rates    : C-PCM and meta-GGA Hessian, CCSD/C-PCM, Gaussian charge scheme 
  Tiago L. C. Gouveia    : GS-ROHF, GS-ROCIS                             
  Yang Guo               : DLPNO-NEVPT2, F12-NEVPT2, CIM, IAO-localization        
  Andreas Hansen         : Spin unrestricted coupled pair/coupled cluster methods 
  Ingolf Harden          : AUTO-CI MPn and infrastructure                
  Benjamin Helmich-Paris : MC-RPA, TRAH-(SCF,CASSCF), AVAS, COSX integrals, SCF dyn. polar. 
  Lee Huntington         : MR-EOM, pCC                                   
  Robert Izsak           : Overlap fitted RIJCOSX, COSX-SCS-MP3, EOM     
  Riya Kayal             : Wick's Theorem for AUTO-CI, AUTO-CI UHF-CCSDT 
  Emily Kempfer          : AUTO-CI, RHF CISDT and CCSDT                  
  Christian Kollmar      : KDIIS, OOCD, Brueckner-CCSD(T), CCSD density, CASPT2, CASPT2-K, improved NEVPT2 
  Axel Koslowski         : Symmetry handling                             
  Simone Kossmann        : meta-GGA functionals, TD-DFT gradient, OOMP2, (MP2 Hessian; deprecated post 5.0) 
  Lucas Lang             : DCDCAS                                        
  Marvin Lechner         : AUTO-CI (C++ implementation), FIC-MRCC        
  Spencer Leger          : CASSCF response                               
  Dagmar Lenk            : GEPOL surface, SMD, ORCA-2-JSON               
  Dimitrios Liakos       : Extrapolation schemes; Compound Job, initial MDCI parallelization 
  Dimitrios Manganas     : Further ROCIS development; embedding schemes. LFT, Crystal Embedding 
  Dimitrios Pantazis     : SARC Basis sets                               
  Anastasios Papadopoulos: AUTO-CI, single reference methods and gradients 
  Taras Petrenko         : pre 6.0 DFT Hessian and TD-DFT gradient, (ASA, deprecated), ECA, 1-Electron XAS/XES, NRVS 
  Peter Pinski           : DLPNO-MP2, DLPNO-MP2 Gradient                 
  Christoph Reimann      : Effective Core Potentials                     
  Marius Retegan         : Local ZFS, SOC                                
  Christoph Riplinger    : Optimizer, TS searches, QM/MM, DLPNO-CCSD(T), (RO)-DLPNO pert. Triples 
  Michael Roemelt        : Original ROCIS implementation                 
  Masaaki Saitow         : Open-shell DLPNO-CCSD energy and density      
  Barbara Sandhoefer     : DKH picture change effects                    
  Kantharuban Sivalingam : CASSCF convergence/infrastructure, NEVPT2 and variants, FIC-MRCI 
  Bernardo de Souza      : ESD, SOC TD-DFT                               
  Georgi L. Stoychev     : AutoAux, RI-MP2 NMR, DLPNO-MP2 response, X2C  
  Van Anh Tran           : RI-MP2 g-tensors                              
  Willem Van den Heuvel  : Paramagnetic NMR                              
  Zikuan Wang            : NOTCH, Electric field optimization            
  Frank Wennmohs         : Technical directorship and infrastructure     
  Hang Xu                : AUTO-CI-Response properties                   
                                                                         
[FACCTs GmbH]                                                            
  Markus Bursch, Miquel Garcia-Rates, Christoph Riplinger, Bernardo de Souza, Georgi L. Stoychev 
                                                                 
  APM, Basis sets (HGBS, AHGBS, def-TZVP (Ac-Lr), def2-XVPD (La-Lu)), CI-OPT, improved COSX, DLPNO-Multilevel,           
  DOCKER, DRACO, updates on ESD, GOAT, IRC, LR-CPCM, MBIS, meta-GGA TD-DFT gradient, ML-optimized integration grids, 
  MM, NACMEs, nearIR, NEB, NEB-TS, NL-DFT gradient (VV10), 2- and 3-layer-ONIOM, interface openCOSMO-RS, QMMM,   
  Crystal-QMMM, SF, symmetry and pop. for TD-DFT, r2SCAN hybrids, SOLVATOR                                   
                                                                         
[Other institutions]                                                     
  V. Asgeirsson          : NEB                                           
  Christoph Bannwarth    : sTDA-DFT, sTD-DFT, PBEh-3c, B97-3c, D3        
  Sebastian Ehlert       : rSCAN, r2SCAN, r2SCAN-3c, D4, dhf basis sets  
  Marvin Friede          : D4 for Fr, Ra, Ac-Lr                          
  Lars Goerigk           : TD-DFT with DH, B97 family of functionals     
  Stefan Grimme          : VdW corrections, initial TS optimization, DFT functionals, gCP, sTDA/sTD-DF 
  Waldemar Hujo          : DFT-NL                                        
  H. Jonsson             : NEB                                           
  Holger Kruse           : gCP                                           
  Marcel Mueller         : wB97X-3c, vDZP basis set                      
  Hagen Neugebauer       : wr2SCAN                                       
  Tobias Risthaus        : range-separated hybrid DFT                    
  Lukas Wittmann         : regularized MP2, r2SCAN double-hybrids, wr2SCAN        
                                                                         
We gratefully acknowledge several colleagues who have allowed us to      
interface, adapt or use parts of their codes:                            
  Ed Valeev, F. Pavosevic, A. Kumar             : LibInt (2-el integral package), F12 methods 
  Garnet Chan, S. Sharma, J. Yang, R. Olivares  : DMRG                   
  Ulf Ekstrom                                   : XCFun DFT Library      
  Mihaly Kallay                                 : mrcc  (arbitrary order and MRCC methods)
  Frank Weinhold                                : gennbo (NPA and NBO analysis)           
  Simon Mueller                                 : openCOSMO-RS                            
  Christopher J. Cramer and Donald G. Truhlar   : smd solvation model                     
  S Lehtola, MJT Oliveira, MAL Marques          : LibXC Library                           
  Liviu Ungur et al                             : ANISO software                          


 Your calculation uses the libint2 library for the computation of 2-el integrals
 For citations please refer to: http://libint.valeyev.net

 Your ORCA version has been built with support for libXC version: 6.2.2
 For citations please refer to: https://libxc.gitlab.io

 This ORCA versions uses:
   CBLAS   interface :  Fast vector & matrix operations
   LAPACKE interface :  Fast linear algebra routines
   SCALAPACK package :  Parallel linear algebra routines
   Shared memory     :  Shared parallel matrices
   BLAS/LAPACK       :  OpenBLAS 0.3.27  USE64BITINT DYNAMIC_ARCH NO_AFFINITY Zen SINGLE_THREADED
        Core in use  :  Zen
   Copyright (c) 2011-2014, The OpenBLAS Project


Your calculation utilizes the geometrical counterpoise correction gCP
Please cite in your paper:
H.Kruse, S. Grimme J.Chem.Phys., 136, (2012), 154101 
   

Your calculation utilizes the atom-pairwise dispersion correction
based on EEQ partial charges (D4)


================================================================================

----- Orbital basis set information -----
Your calculation utilizes the basis: def2-mTZVPP
   Stefan Grimme, Andreas Hansen, Sebastian Ehlert, and Jan-Michael Mewes 
   J. Chem. Phys. 154, 064103 (2021). DOI: 10.1063/5.0040021

----- AuxJ basis set information -----
Your calculation utilizes the auxiliary basis: def2/J
   F. Weigend, Phys. Chem. Chem. Phys. 8, 1057 (2006).

================================================================================
                                        WARNINGS
                       Please study these warnings very carefully!
================================================================================

WARNING: Old DensityContainer found on disk!
         Will remove this file - 
         If you want to keep old densities, please start your calculation with a different basename. 



WARNING: SCAN, rSCAN, or r2SCAN functional requested.
  ===> : libXC variant has now been activated.



================================================================================
                                       INPUT FILE
================================================================================
NAME = sp.inp
|  1> ! r2scan-3c def2/J RI DEFGRID2 scfconv6 printgap
|  2> %output
|  3>     printlevel normal
|  4> end
|  5> * xyz 0 1
|  6> C -2.4142761053 -0.7019656014 -3.02501e-05
|  7> C -2.4142756364 0.7019694346 1.65628e-05
|  8> C -1.2347512639 1.3919054905 2.27866e-05
|  9> C 4.235e-07 0.7098371142 9.8477e-06
| 10> C 1.2347499997 1.3919038626 -1.556e-05
| 11> C 2.4142774354 0.7019685536 -2.50603e-05
| 12> C 2.4142770924 -0.7019662941 4.2959e-06
| 13> C 1.2347536732 -1.391904644 2.57325e-05
| 14> C -8.478e-07 -0.7098421291 9.8668e-06
| 15> C -1.2347548241 -1.3919070913 -2.03168e-05
| 16> H -3.3561932488 -1.2311809415 -1.5302e-05
| 17> H -3.356189681 1.2311909313 1.8477e-06
| 18> H -1.2295793993 2.4729599663 1.8596e-06
| 19> H 1.2295873356 2.4729573087 -1.72686e-05
| 20> H 3.3561884125 1.2311933169 -1.68253e-05
| 21> H 3.3561924318 -1.2311876308 2.94121e-05
| 22> H 1.2295828866 -2.4729573643 3.13536e-05
| 23> H -1.2295881032 -2.4729600437 9.8872e-06
| 24> *
| 25> 
| 26>                          ****END OF INPUT****
================================================================================

                       ****************************
                       * Single Point Calculation *
                       ****************************

---------------------------------
CARTESIAN COORDINATES (ANGSTROEM)
---------------------------------
  C     -2.414276   -0.701966   -0.000030
  C     -2.414276    0.701969    0.000017
  C     -1.234751    1.391905    0.000023
  C      0.000000    0.709837    0.000010
  C      1.234750    1.391904   -0.000016
  C      2.414277    0.701969   -0.000025
  C      2.414277   -0.701966    0.000004
  C      1.234754   -1.391905    0.000026
  C     -0.000001   -0.709842    0.000010
  C     -1.234755   -1.391907   -0.000020
  H     -3.356193   -1.231181   -0.000015
  H     -3.356190    1.231191    0.000002
  H     -1.229579    2.472960    0.000002
  H      1.229587    2.472957   -0.000017
  H      3.356188    1.231193   -0.000017
  H      3.356192   -1.231188    0.000029
  H      1.229583   -2.472957    0.000031
  H     -1.229588   -2.472960    0.000010

----------------------------
CARTESIAN COORDINATES (A.U.)
----------------------------
  NO LB      ZA    FRAG     MASS         X           Y           Z
   0 C     6.0000    0    12.011   -4.562321   -1.326523   -0.000057
   1 C     6.0000    0    12.011   -4.562320    1.326530    0.000031
   2 C     6.0000    0    12.011   -2.333342    2.630320    0.000043
   3 C     6.0000    0    12.011    0.000001    1.341398    0.000019
   4 C     6.0000    0    12.011    2.333339    2.630317   -0.000029
   5 C     6.0000    0    12.011    4.562323    1.326528   -0.000047
   6 C     6.0000    0    12.011    4.562323   -1.326524    0.000008
   7 C     6.0000    0    12.011    2.333346   -2.630319    0.000049
   8 C     6.0000    0    12.011   -0.000002   -1.341407    0.000019
   9 C     6.0000    0    12.011   -2.333348   -2.630323   -0.000038
  10 H     1.0000    0     1.008   -6.342286   -2.326595   -0.000029
  11 H     1.0000    0     1.008   -6.342279    2.326614    0.000003
  12 H     1.0000    0     1.008   -2.323568    4.673217    0.000004
  13 H     1.0000    0     1.008    2.323583    4.673212   -0.000033
  14 H     1.0000    0     1.008    6.342277    2.326618   -0.000032
  15 H     1.0000    0     1.008    6.342285   -2.326607    0.000056
  16 H     1.0000    0     1.008    2.323575   -4.673212    0.000059
  17 H     1.0000    0     1.008   -2.323585   -4.673217    0.000019

--------------------------------
INTERNAL COORDINATES (ANGSTROEM)
--------------------------------
 C      0   0   0     0.000000000000     0.00000000     0.00000000
 C      1   0   0     1.403935036781     0.00000000     0.00000000
 C      2   1   0     1.366488019190   120.32455158     0.00000000
 C      3   2   1     1.410612987199   120.75950764     0.00000000
 C      4   3   2     1.410610352239   122.16809662   179.99849492
 C      5   4   3     1.366490286195   120.75961594   179.99987756
 C      6   5   4     1.403934848007   120.32442656     0.00000000
 C      7   6   5     1.366488354712   120.32464967     0.00000000
 C      8   7   6     1.410612633437   120.75966847     0.00000000
 C      1   2   3     1.366488094492   120.32477539     0.00000000
 H      1   2   3     1.080405841173   119.32943661   179.99883249
 H      2   1   3     1.080406155203   119.32976348   179.99721631
 H      3   2   1     1.081066847271   120.59863866   179.99649648
 H      5   4   3     1.081065773405   118.64232462     0.00000000
 H      6   5   4     1.080405080948   120.34554605   180.00170312
 H      7   6   5     1.080407205847   119.32972765   180.00201691
 H      8   7   6     1.081065086447   120.59868519   179.99895237
 H     10   1   2     1.081065299512   120.59862856   179.99592962

---------------------------
INTERNAL COORDINATES (A.U.)
---------------------------
 C      0   0   0     0.000000000000     0.00000000     0.00000000
 C      1   0   0     2.653052729332     0.00000000     0.00000000
 C      2   1   0     2.582288121555   120.32455158     0.00000000
 C      3   2   1     2.665672226758   120.75950764     0.00000000
 C      4   3   2     2.665667247406   122.16809662   179.99849492
 C      5   4   3     2.582292405571   120.75961594   179.99987756
 C      6   5   4     2.653052372602   120.32442656     0.00000000
 C      7   6   5     2.582288755598   120.32464967     0.00000000
 C      8   7   6     2.665671558246   120.75966847     0.00000000
 C      1   2   3     2.582288263853   120.32477539     0.00000000
 H      1   2   3     2.041671153305   119.32943661   179.99883249
 H      2   1   3     2.041671746737   119.32976348   179.99721631
 H      3   2   1     2.042920273804   120.59863866   179.99649648
 H      5   4   3     2.042918244492   118.64232462     0.00000000
 H      6   5   4     2.041669716690   120.34554605   180.00170312
 H      7   6   5     2.041673732166   119.32972765   180.00201691
 H      8   7   6     2.042916946328   120.59868519   179.99895237
 H     10   1   2     2.042917348964   120.59862856   179.99592962

---------------------
BASIS SET INFORMATION
---------------------
There are 2 groups of distinct atoms

 Group   1 Type C   : 11s6p1d contracted to 5s3p1d pattern {62111/411/1}
 Group   2 Type H   : 4s1p contracted to 2s1p pattern {31/1}

Atom   0C    basis set group =>   1
Atom   1C    basis set group =>   1
Atom   2C    basis set group =>   1
Atom   3C    basis set group =>   1
Atom   4C    basis set group =>   1
Atom   5C    basis set group =>   1
Atom   6C    basis set group =>   1
Atom   7C    basis set group =>   1
Atom   8C    basis set group =>   1
Atom   9C    basis set group =>   1
Atom  10H    basis set group =>   2
Atom  11H    basis set group =>   2
Atom  12H    basis set group =>   2
Atom  13H    basis set group =>   2
Atom  14H    basis set group =>   2
Atom  15H    basis set group =>   2
Atom  16H    basis set group =>   2
Atom  17H    basis set group =>   2
---------------------------------
AUXILIARY/J BASIS SET INFORMATION
---------------------------------
There are 2 groups of distinct atoms

 Group   1 Type C   : 12s5p4d2f1g contracted to 6s4p3d1f1g pattern {711111/2111/211/2/1}
 Group   2 Type H   : 5s2p1d contracted to 3s1p1d pattern {311/2/1}

Atom   0C    basis set group =>   1
Atom   1C    basis set group =>   1
Atom   2C    basis set group =>   1
Atom   3C    basis set group =>   1
Atom   4C    basis set group =>   1
Atom   5C    basis set group =>   1
Atom   6C    basis set group =>   1
Atom   7C    basis set group =>   1
Atom   8C    basis set group =>   1
Atom   9C    basis set group =>   1
Atom  10H    basis set group =>   2
Atom  11H    basis set group =>   2
Atom  12H    basis set group =>   2
Atom  13H    basis set group =>   2
Atom  14H    basis set group =>   2
Atom  15H    basis set group =>   2
Atom  16H    basis set group =>   2
Atom  17H    basis set group =>   2

Checking for AutoStart:
The File: sp.gbw exists
Trying to determine its content:
     ... Fine, the file contains calculation information
     ... Fine, the calculation information was read
     ... Fine, the file contains a basis set
     ... Fine, the basis set was read
     ... Fine, the file contains a geometry
     ... Fine, the geometry was read
     ... Fine, the file contains a set of orbitals
     ... Fine, the orbitals can be read
     => possible old guess file was deleted
     => GBW file was renamed to GES file
     => GES file is set as startup file
     => Guess is set to MORead
     ... now leaving AutoStart

------------------------------------------------------------------------------
                             ORCA STARTUP CALCULATIONS
                           -- RI-GTO INTEGRALS CHOSEN --
------------------------------------------------------------------------------
------------------------------------------------------------------------------
                   ___                                                        
                  /   \      - P O W E R E D   B Y -                         
                 /     \                                                     
                 |  |  |   _    _      __       _____    __    __             
                 |  |  |  | |  | |    /  \     |  _  \  |  |  /  |          
                  \  \/   | |  | |   /    \    | | | |  |  | /  /          
                 / \  \   | |__| |  /  /\  \   | |_| |  |  |/  /          
                |  |  |   |  __  | /  /__\  \  |    /   |      \           
                |  |  |   | |  | | |   __   |  |    \   |  |\   \          
                \     /   | |  | | |  |  |  |  | |\  \  |  | \   \       
                 \___/    |_|  |_| |__|  |__|  |_| \__\ |__|  \__/        
                                                                              
                      - O R C A' S   B I G   F R I E N D -                    
                                      &                                       
                       - I N T E G R A L  F E E D E R -                       
                                                                              
 v1 FN, 2020, v2 2021, v3 2022-2024                                           
------------------------------------------------------------------------------


----------------------
SHARK INTEGRAL PACKAGE
----------------------

Number of atoms                             ...     18
Number of basis functions                   ...    230
Number of shells                            ...    114
Maximum angular momentum                    ...      2
Integral batch strategy                     ... SHARK/LIBINT Hybrid
RI-J (if used) integral strategy            ... SPLIT-RIJ (Revised 2003 algorithm where possible)
Printlevel                                  ...      1
Contraction scheme used                     ... SEGMENTED contraction
Prescreening option                         ... SCHWARTZ
   Thresh                                   ... 1.000e-10
   Tcut                                     ... 1.000e-11
   Tpresel                                  ... 1.000e-11 
Coulomb Range Separation                    ... NOT USED
Exchange Range Separation                   ... NOT USED
Multipole approximations                    ... NOT USED
Finite Nucleus Model                        ... NOT USED
CABS basis                                  ... NOT available
Auxiliary Coulomb fitting basis             ... AVAILABLE
   # of basis functions in Aux-J            ...    578
   # of shells in Aux-J                     ...    190
   Maximum angular momentum in Aux-J        ...      4
Auxiliary J/K fitting basis                 ... NOT available
Auxiliary Correlation fitting basis         ... NOT available
Auxiliary 'external' fitting basis          ... NOT available

Checking pre-screening integrals            ... done (  0.0 sec) Dimension = 114
Check shell pair data                       ... done (  0.0 sec)
Shell pair information
Shell pair cut-off parameter TPreSel        ...   1.0e-11
Total number of shell pairs                 ...      6555
Shell pairs after pre-screening             ...      5822
Total number of primitive shell pairs       ...     24554
Primitive shell pairs kept                  ...     15284
          la=0 lb=0:   1894 shell pairs
          la=1 lb=0:   2256 shell pairs
          la=1 lb=1:    689 shell pairs
          la=2 lb=0:    584 shell pairs
          la=2 lb=1:    348 shell pairs
          la=2 lb=2:     51 shell pairs

Calculating one electron integrals          ... done (  0.0 sec)
Calculating RI/J V-Matrix + Cholesky decomp.... done (  0.0 sec)
Calculating Nuclear repulsion               ... done (  0.0 sec) ENN=    460.784781752082 Eh

Diagonalization of the overlap matrix:
Smallest eigenvalue                        ... 1.910e-05
Time for diagonalization                   ...    0.003 sec
Threshold for overlap eigenvalues          ... 1.000e-07
Number of eigenvalues below threshold      ... 0
Time for construction of square roots      ...    0.001 sec
Total time needed                          ...    0.005 sec

-------------------
DFT GRID GENERATION
-------------------

General Integration Accuracy     IntAcc      ... 4.388
Radial Grid Type                 RadialGrid  ... OptM3 with GC (2021)
Angular Grid (max. ang.)         AngularGrid ... 4 (Lebedev-302)
Angular grid pruning method      GridPruning ... 4 (adaptive)
Weight generation scheme         WeightScheme... mBecke (2022)
Basis function cutoff            BFCut       ... 1.0000e-10
Integration weight cutoff        WCut        ... 1.0000e-14
Partially contracted basis set               ... off
Rotationally invariant grid construction     ... off
Angular grids for H and He will be reduced by one unit

Total number of grid points                  ...    85528
Total number of batches                      ...     1349
Average number of points per batch           ...       63
Average number of grid points per atom       ...     4752
Initializing property integral containers    ... done (  0.0 sec)

SHARK setup successfully completed in   0.6 seconds

Maximum memory used throughout the entire STARTUP-calculation: 39.4 MB
-------------------------------------------------------------------------------
                                 ORCA GUESS
                   Start orbitals & Density for SCF / CASSCF
-------------------------------------------------------------------------------

------------
SCF SETTINGS
------------
Hamiltonian:
 Density Functional     Method          .... DFT(GTOs)
  Functional kind                       .... Exchange
  Functional name                       .... Re-regularized SCAN exchange by Furness et al
  Functional family                     .... MGGA
  Functional refs                              
    [ 0] J. W. Furness, A. D. Kaplan, J. Ning, J. P. Perdew, and J. Sun.,  J. Phys. Chem. Lett. 11, 8208-8215 (2020), doi: 10.1021/acs.jpclett.0c02405
    [ 1] J. W. Furness, A. D. Kaplan, J. Ning, J. P. Perdew, and J. Sun.,  J. Phys. Chem. Lett. 11, 9248-9248 (2020), doi: 10.1021/acs.jpclett.0c03077
  Functional external parameters        .... 6
    Parameter  0 _c1        =  6.670000e-01 : c1 parameter        
    Parameter  1 _c2        =  8.000000e-01 : c2 parameter        
    Parameter  2 _d         =  1.240000e+00 : d parameter         
    Parameter  3 _k1        =  6.500000e-02 : k1 parameter        
    Parameter  4 _eta       =  1.000000e-03 : eta parameter       
    Parameter  5 _dp2       =  3.610000e-01 : dp2 parameter       
  Functional kind                       .... Correlation
  Functional name                       .... Re-regularized SCAN correlation by Furness et al
  Functional family                     .... MGGA
  Functional refs                              
    [ 0] J. W. Furness, A. D. Kaplan, J. Ning, J. P. Perdew, and J. Sun.,  J. Phys. Chem. Lett. 11, 8208-8215 (2020), doi: 10.1021/acs.jpclett.0c02405
    [ 1] J. W. Furness, A. D. Kaplan, J. Ning, J. P. Perdew, and J. Sun.,  J. Phys. Chem. Lett. 11, 9248-9248 (2020), doi: 10.1021/acs.jpclett.0c03077
  Functional external parameters        .... 1
    Parameter  0 _eta       =  1.000000e-03 : Regularization parameter
 Gradients option       PostSCFGGA      .... off
 RI-approximation to the Coulomb term is turned on
   Number of AuxJ basis functions       .... 578


General Settings:
 Integral files         IntName         .... sp
 Hartree-Fock type      HFTyp           .... RHF
 Total Charge           Charge          ....    0
 Multiplicity           Mult            ....    1
 Number of Electrons    NEL             ....   68
 Basis Dimension        Dim             ....  230
 Nuclear Repulsion      ENuc            ....    460.7847817521 Eh

Convergence Acceleration:
 AO-DIIS                CNVDIIS         .... on
   Start iteration      DIISMaxIt       ....    12
   Startup error        DIISStart       ....  0.200000
   # of expansion vecs  DIISMaxEq       ....     5
   Bias factor          DIISBfac        ....   1.050
   Max. coefficient     DIISMaxC        ....  10.000
 MO-DIIS                CNVKDIIS        .... off
 Trust-Rad. Augm. Hess. CNVTRAH         .... auto
   Auto Start mean grad. ratio tolernc. ....  1.125000
   Auto Start start iteration           ....     1
   Auto Start num. interpolation iter.  ....    10
   Max. Number of Micro iterations      ....    24
   Max. Number of Macro iterations      .... Maxiter - #DIIS iter
   Number of Davidson start vectors     ....     2
   Converg. threshold    (grad. norm)   ....   3.330e-04
   Grad. Scal. Fac. for Micro threshold ....   0.100
   Minimum threshold for Micro iter.    ....   1.000e-02
   NR start threshold (gradient norm)   ....   1.000e-04
   Initial trust radius                 ....   0.400
   Minimum AH scaling param. (alpha)    ....   1.000
   Maximum AH scaling param. (alpha)    .... 1000.000
   Quad. conv. algorithm                .... NR
   White noise on init. David. guess    .... on
   Maximum white noise                  ....   0.010
   Pseudo random numbers                .... off
   Inactive MOs                         .... canonical
   Orbital update algorithm             .... Taylor
   Preconditioner                       .... Diag
   Full preconditioner red. dimension   ....   250
   COSX micro iterations for RIJONX calc.... off
 SOSCF                  CNVSOSCF        .... on
   Start iteration      SOSCFMaxIt      ....   150
   Startup grad/error   SOSCFStart      ....  0.003300
   Hessian update       SOSCFHessUp     .... L-BFGS
 Level Shifting         CNVShift        .... on
   Level shift para.    LevelShift      ....    0.2500
   Turn off err/grad.   ShiftErr        ....    0.0010
 Zerner damping         CNVZerner       .... off
 Static damping         CNVDamp         .... on
   Fraction old density DampFac         ....    0.7000
   Max. Damping (<1)    DampMax         ....    0.9800
   Min. Damping (>=0)   DampMin         ....    0.0000
   Turn off err/grad.   DampErr         ....    0.1000

SCF Procedure:
 Maximum # iterations   MaxIter         ....   125
 SCF integral mode      SCFMode         .... Direct
   Integral package                     .... SHARK and LIBINT hybrid scheme
 Reset frequency        DirectResetFreq ....    20
 Integral Threshold     Thresh          ....  1.000e-10 Eh
 Primitive CutOff       TCut            ....  1.000e-11 Eh

Convergence Tolerance:
 Convergence Check Mode ConvCheckMode   .... Total+1el-Energy
 Convergence forced     ConvForced      .... 0
 Energy Change          TolE            ....  1.000e-06 Eh
 1-El. energy change                    ....  1.000e-03 Eh
 Orbital Gradient       TolG            ....  3.330e-04
 Orbital Rotation angle TolX            ....  3.330e-04
 DIIS Error             TolErr          ....  1.000e-06

---------------------
INITIAL GUESS: MOREAD
---------------------
Guess MOs are being read from file: sp.ges
Input Geometry matches current geometry (good)
Atom 0: N(Shells)= 9 and 6 - projection required
Input basis set needs projection
NBasis(read)= 156
NBasis(calc)= 230
Basis set overlap was calculated
Using GuessMode=FMatrix for the initial guess
C*T matrix was formed
Effective Fockian was calculated
Effective Fockian was diagonalized
Initial density was built
                      ------------------
                      INITIAL GUESS DONE (   0.0 sec)
                      ------------------
             **** ENERGY FILE WAS UPDATED (sp.en.tmp) ****
Finished Guess after   0.1 sec
Maximum memory used throughout the entire GUESS-calculation: 17.6 MB

-------------------------------------------------------------------------------------------
                                      ORCA LEAN-SCF
                              memory conserving SCF solver
-------------------------------------------------------------------------------------------

----------------------------------------D-I-I-S--------------------------------------------
Iteration    Energy (Eh)           Delta-E    RMSDP     MaxDP     DIISErr   Damp  Time(sec)
-------------------------------------------------------------------------------------------
               ***  Starting incremental Fock matrix formation  ***
    1    -385.6145347327621380     0.00e+00  1.91e-02  6.09e-01  2.69e-01  0.700   1.5
    2    -385.6638339860872406    -4.93e-02  1.44e-02  4.42e-01  1.89e-01  0.700   1.3
                               ***Turning on AO-DIIS***
    3    -385.6985758834098874    -3.47e-02  1.02e-02  3.11e-01  1.32e-01  0.700   1.3
    4    -385.7229396850536318    -2.44e-02  7.19e-03  2.18e-01  9.25e-02  0.700   1.3
    5    -385.7400210191150904    -1.71e-02  1.68e-02  5.08e-01  6.48e-02  0.000   1.2
                              *** Initializing SOSCF ***
---------------------------------------S-O-S-C-F--------------------------------------
Iteration    Energy (Eh)           Delta-E    RMSDP     MaxDP     MaxGrad    Time(sec)
--------------------------------------------------------------------------------------
    6    -385.7799640377161836    -3.99e-02  2.89e-05  4.55e-04  1.95e-04     1.3
               *** Restarting incremental Fock matrix formation ***
    7    -385.7799644486401007    -4.11e-07  1.45e-05  2.30e-04  1.21e-04     1.5
    8    -385.7799637194727325     7.29e-07  8.41e-06  1.56e-04  2.51e-04     1.1
                 **** Energy Check signals convergence ****

               *****************************************************
               *                     SUCCESS                       *
               *           SCF CONVERGED AFTER   8 CYCLES          *
               *****************************************************

             **** ENERGY FILE WAS UPDATED (sp.en.tmp) ****

----------------
TOTAL SCF ENERGY
----------------

Total Energy       :       -385.77996371947273 Eh          -10497.60650 eV

Components:
Nuclear Repulsion  :        460.78478175208244 Eh           12538.59136 eV
Electronic Energy  :       -846.56474547155517 Eh          -23036.19786 eV
One Electron Energy:      -1432.36821782553670 Eh          -38976.72075 eV
Two Electron Energy:        585.80347235398153 Eh           15940.52288 eV

Virial components:
Potential Energy   :       -770.04518621821467 Eh          -20953.99480 eV
Kinetic Energy     :        384.26522249874193 Eh           10456.38830 eV
Virial Ratio       :          2.00394191597897

DFT components:
N(Alpha)           :       34.000011564049 electrons
N(Beta)            :       34.000011564049 electrons
N(Total)           :       68.000023128098 electrons
E(X)               :      -54.969494882262 Eh       
E(C)               :       -2.192340497177 Eh       
E(XC)              :      -57.161835379439 Eh       

---------------
SCF CONVERGENCE
---------------

  Last Energy change         ...   -7.2917e-07  Tolerance :   1.0000e-06
  Last MAX-Density change    ...    1.5633e-04  Tolerance :   1.0000e-05
  Last RMS-Density change    ...    8.4057e-06  Tolerance :   1.0000e-06
  Last DIIS Error            ...    1.9479e-04  Tolerance :   1.0000e-06
  Last Orbital Gradient      ...    2.5139e-04  Tolerance :   3.3300e-04
  Last Orbital Rotation      ...    3.3748e-04  Tolerance :   3.3300e-04


----------------
ORBITAL ENERGIES
----------------

  NO   OCC          E(Eh)            E(eV) 
   0   2.0000     -10.047188      -273.3979 
   1   2.0000     -10.046852      -273.3887 
   2   2.0000     -10.037960      -273.1468 
   3   2.0000     -10.037954      -273.1466 
   4   2.0000     -10.037934      -273.1461 
   5   2.0000     -10.037928      -273.1459 
   6   2.0000     -10.037178      -273.1255 
   7   2.0000     -10.037175      -273.1254 
   8   2.0000     -10.036822      -273.1158 
   9   2.0000     -10.036820      -273.1158 
  10   2.0000      -0.848388       -23.0858 
  11   2.0000      -0.794629       -21.6230 
  12   2.0000      -0.746165       -20.3042 
  13   2.0000      -0.714140       -19.4327 
  14   2.0000      -0.690920       -18.8009 
  15   2.0000      -0.598786       -16.2938 
  16   2.0000      -0.583400       -15.8751 
  17   2.0000      -0.569254       -15.4902 
  18   2.0000      -0.488078       -13.2813 
  19   2.0000      -0.480917       -13.0864 
  20   2.0000      -0.467255       -12.7146 
  21   2.0000      -0.418729       -11.3942 
  22   2.0000      -0.413711       -11.2576 
  23   2.0000      -0.388689       -10.5768 
  24   2.0000      -0.388551       -10.5730 
  25   2.0000      -0.372340       -10.1319 
  26   2.0000      -0.370750       -10.0886 
  27   2.0000      -0.340040        -9.2530 
  28   2.0000      -0.310978        -8.4621 
  29   2.0000      -0.308767        -8.4020 
  30   2.0000      -0.301711        -8.2100 
  31   2.0000      -0.270743        -7.3673 
  32   2.0000      -0.234005        -6.3676 
  33   2.0000      -0.205226        -5.5845 
  34   0.0000      -0.067894        -1.8475 
  35   0.0000      -0.037265        -1.0140 
  36   0.0000      -0.004843        -0.1318 
  37   0.0000       0.066020         1.7965 
  38   0.0000       0.082950         2.2572 
  39   0.0000       0.087237         2.3738 
  40   0.0000       0.103908         2.8275 
  41   0.0000       0.128031         3.4839 
  42   0.0000       0.138143         3.7591 
  43   0.0000       0.138706         3.7744 
  44   0.0000       0.142291         3.8719 
*Only the first 10 virtual orbitals were printed.

                    ********************************
                    * MULLIKEN POPULATION ANALYSIS *
                    ********************************

-----------------------
MULLIKEN ATOMIC CHARGES
-----------------------
   0 C :   -0.147391
   1 C :   -0.147376
   2 C :   -0.231317
   3 C :    0.177477
   4 C :   -0.231311
   5 C :   -0.147387
   6 C :   -0.147380
   7 C :   -0.231314
   8 C :    0.177474
   9 C :   -0.231306
  10 H :    0.145972
  11 H :    0.145973
  12 H :    0.143985
  13 H :    0.143985
  14 H :    0.145972
  15 H :    0.145973
  16 H :    0.143985
  17 H :    0.143985
Sum of atomic charges:   -0.0000000

--------------------------------
MULLIKEN REDUCED ORBITAL CHARGES
--------------------------------
  0 C s       :     3.186670  s :     3.186670
      pz      :     0.988885  p :     2.923006
      px      :     1.004120
      py      :     0.930001
      dz2     :     0.003269  d :     0.037715
      dxz     :     0.003591
      dyz     :     0.005752
      dx2y2   :     0.012407
      dxy     :     0.012696

  1 C s       :     3.186654  s :     3.186654
      pz      :     0.988885  p :     2.923006
      px      :     1.004121
      py      :     0.930001
      dz2     :     0.003269  d :     0.037715
      dxz     :     0.003591
      dyz     :     0.005752
      dx2y2   :     0.012407
      dxy     :     0.012696

  2 C s       :     3.222858  s :     3.222858
      pz      :     0.996856  p :     2.971026
      px      :     0.931723
      py      :     1.042447
      dz2     :     0.003271  d :     0.037432
      dxz     :     0.007003
      dyz     :     0.002175
      dx2y2   :     0.013465
      dxy     :     0.011519

  3 C s       :     3.159844  s :     3.159844
      pz      :     0.961843  p :     2.614906
      px      :     0.804425
      py      :     0.848639
      dz2     :     0.003759  d :     0.047773
      dxz     :     0.007127
      dyz     :     0.005747
      dx2y2   :     0.016072
      dxy     :     0.015067

  4 C s       :     3.222853  s :     3.222853
      pz      :     0.996857  p :     2.971025
      px      :     0.931723
      py      :     1.042445
      dz2     :     0.003271  d :     0.037432
      dxz     :     0.007003
      dyz     :     0.002175
      dx2y2   :     0.013465
      dxy     :     0.011519

  5 C s       :     3.186665  s :     3.186665
      pz      :     0.988885  p :     2.923007
      px      :     1.004120
      py      :     0.930002
      dz2     :     0.003269  d :     0.037715
      dxz     :     0.003591
      dyz     :     0.005752
      dx2y2   :     0.012407
      dxy     :     0.012696

  6 C s       :     3.186658  s :     3.186658
      pz      :     0.988885  p :     2.923007
      px      :     1.004121
      py      :     0.930001
      dz2     :     0.003269  d :     0.037715
      dxz     :     0.003591
      dyz     :     0.005752
      dx2y2   :     0.012407
      dxy     :     0.012696

  7 C s       :     3.222854  s :     3.222854
      pz      :     0.996858  p :     2.971028
      px      :     0.931722
      py      :     1.042449
      dz2     :     0.003271  d :     0.037432
      dxz     :     0.007003
      dyz     :     0.002175
      dx2y2   :     0.013465
      dxy     :     0.011519

  8 C s       :     3.159845  s :     3.159845
      pz      :     0.961843  p :     2.614908
      px      :     0.804424
      py      :     0.848641
      dz2     :     0.003759  d :     0.047772
      dxz     :     0.007127
      dyz     :     0.005747
      dx2y2   :     0.016072
      dxy     :     0.015067

  9 C s       :     3.222848  s :     3.222848
      pz      :     0.996858  p :     2.971026
      px      :     0.931723
      py      :     1.042446
      dz2     :     0.003271  d :     0.037432
      dxz     :     0.007003
      dyz     :     0.002175
      dx2y2   :     0.013465
      dxy     :     0.011519

 10 H s       :     0.834531  s :     0.834531
      pz      :     0.004177  p :     0.019497
      px      :     0.009986
      py      :     0.005333

 11 H s       :     0.834530  s :     0.834530
      pz      :     0.004177  p :     0.019497
      px      :     0.009986
      py      :     0.005334

 12 H s       :     0.836455  s :     0.836455
      pz      :     0.004201  p :     0.019560
      px      :     0.003116
      py      :     0.012243

 13 H s       :     0.836455  s :     0.836455
      pz      :     0.004201  p :     0.019560
      px      :     0.003116
      py      :     0.012243

 14 H s       :     0.834531  s :     0.834531
      pz      :     0.004177  p :     0.019497
      px      :     0.009986
      py      :     0.005334

 15 H s       :     0.834530  s :     0.834530
      pz      :     0.004177  p :     0.019497
      px      :     0.009986
      py      :     0.005333

 16 H s       :     0.836455  s :     0.836455
      pz      :     0.004201  p :     0.019560
      px      :     0.003116
      py      :     0.012243

 17 H s       :     0.836455  s :     0.836455
      pz      :     0.004201  p :     0.019560
      px      :     0.003116
      py      :     0.012243


------------------------
MULLIKEN OVERLAP CHARGES
------------------------
B(  0-C ,  1-C ) :   0.8602 B(  0-C ,  2-C ) :  -0.0653 B(  0-C ,  3-C ) :  -0.0698 
B(  0-C ,  7-C ) :   0.0527 B(  0-C ,  8-C ) :  -0.1176 B(  0-C ,  9-C ) :   0.8415 
B(  0-C , 10-H ) :   0.7915 B(  0-C , 11-H ) :  -0.0628 B(  1-C ,  2-C ) :   0.8415 
B(  1-C ,  3-C ) :  -0.1176 B(  1-C ,  4-C ) :   0.0527 B(  1-C ,  8-C ) :  -0.0698 
B(  1-C ,  9-C ) :  -0.0653 B(  1-C , 10-H ) :  -0.0628 B(  1-C , 11-H ) :   0.7915 
B(  2-C ,  3-C ) :   0.7285 B(  2-C ,  4-C ) :  -0.4357 B(  2-C ,  5-C ) :   0.0527 
B(  2-C ,  7-C ) :   0.1350 B(  2-C ,  9-C ) :  -0.3687 B(  2-C , 12-H ) :   0.7989 
B(  3-C ,  4-C ) :   0.7286 B(  3-C ,  5-C ) :  -0.1176 B(  3-C ,  6-C ) :  -0.0698 
B(  3-C ,  8-C ) :   1.2126 B(  3-C , 12-H ) :  -0.0813 B(  3-C , 13-H ) :  -0.0813 
B(  4-C ,  5-C ) :   0.8415 B(  4-C ,  6-C ) :  -0.0654 B(  4-C ,  7-C ) :  -0.3687 
B(  4-C ,  9-C ) :   0.1350 B(  4-C , 13-H ) :   0.7989 B(  5-C ,  6-C ) :   0.8602 
B(  5-C ,  7-C ) :  -0.0653 B(  5-C ,  8-C ) :  -0.0698 B(  5-C , 14-H ) :   0.7915 
B(  5-C , 15-H ) :  -0.0628 B(  6-C ,  7-C ) :   0.8415 B(  6-C ,  8-C ) :  -0.1176 
B(  6-C ,  9-C ) :   0.0527 B(  6-C , 14-H ) :  -0.0628 B(  6-C , 15-H ) :   0.7915 
B(  7-C ,  8-C ) :   0.7286 B(  7-C ,  9-C ) :  -0.4357 B(  7-C , 16-H ) :   0.7989 
B(  8-C ,  9-C ) :   0.7285 B(  8-C , 16-H ) :  -0.0813 B(  8-C , 17-H ) :  -0.0813 
B(  9-C , 17-H ) :   0.7989 


                     *******************************
                     * LOEWDIN POPULATION ANALYSIS *
                     *******************************

----------------------
LOEWDIN ATOMIC CHARGES
----------------------
   0 C :   -0.164518
   1 C :   -0.164519
   2 C :   -0.144263
   3 C :   -0.059551
   4 C :   -0.144264
   5 C :   -0.164519
   6 C :   -0.164519
   7 C :   -0.144264
   8 C :   -0.059550
   9 C :   -0.144264
  10 H :    0.167906
  11 H :    0.167906
  12 H :    0.170651
  13 H :    0.170651
  14 H :    0.167906
  15 H :    0.167906
  16 H :    0.170651
  17 H :    0.170651

-------------------------------
LOEWDIN REDUCED ORBITAL CHARGES
-------------------------------
  0 C s       :     2.903435  s :     2.903435
      pz      :     0.978136  p :     3.178801
      px      :     1.105958
      py      :     1.094707
      dz2     :     0.005564  d :     0.082282
      dxz     :     0.005967
      dyz     :     0.010409
      dx2y2   :     0.029546
      dxy     :     0.030796

  1 C s       :     2.903435  s :     2.903435
      pz      :     0.978136  p :     3.178802
      px      :     1.105958
      py      :     1.094707
      dz2     :     0.005564  d :     0.082282
      dxz     :     0.005967
      dyz     :     0.010409
      dx2y2   :     0.029546
      dxy     :     0.030796

  2 C s       :     2.897474  s :     2.897474
      pz      :     0.979817  p :     3.165186
      px      :     1.083992
      py      :     1.101376
      dz2     :     0.005600  d :     0.081604
      dxz     :     0.012731
      dyz     :     0.003176
      dx2y2   :     0.032771
      dxy     :     0.027326

  3 C s       :     2.844967  s :     2.844967
      pz      :     0.960703  p :     3.114435
      px      :     1.072616
      py      :     1.081115
      dz2     :     0.006884  d :     0.100148
      dxz     :     0.012272
      dyz     :     0.010136
      dx2y2   :     0.035885
      dxy     :     0.034972

  4 C s       :     2.897473  s :     2.897473
      pz      :     0.979818  p :     3.165187
      px      :     1.083993
      py      :     1.101376
      dz2     :     0.005600  d :     0.081604
      dxz     :     0.012731
      dyz     :     0.003176
      dx2y2   :     0.032771
      dxy     :     0.027326

  5 C s       :     2.903436  s :     2.903436
      pz      :     0.978136  p :     3.178801
      px      :     1.105958
      py      :     1.094707
      dz2     :     0.005564  d :     0.082282
      dxz     :     0.005967
      dyz     :     0.010409
      dx2y2   :     0.029545
      dxy     :     0.030796

  6 C s       :     2.903435  s :     2.903435
      pz      :     0.978136  p :     3.178801
      px      :     1.105958
      py      :     1.094707
      dz2     :     0.005564  d :     0.082282
      dxz     :     0.005967
      dyz     :     0.010409
      dx2y2   :     0.029546
      dxy     :     0.030796

  7 C s       :     2.897473  s :     2.897473
      pz      :     0.979818  p :     3.165187
      px      :     1.083992
      py      :     1.101376
      dz2     :     0.005600  d :     0.081604
      dxz     :     0.012731
      dyz     :     0.003176
      dx2y2   :     0.032771
      dxy     :     0.027326

  8 C s       :     2.844968  s :     2.844968
      pz      :     0.960703  p :     3.114434
      px      :     1.072616
      py      :     1.081115
      dz2     :     0.006884  d :     0.100148
      dxz     :     0.012272
      dyz     :     0.010136
      dx2y2   :     0.035885
      dxy     :     0.034971

  9 C s       :     2.897473  s :     2.897473
      pz      :     0.979819  p :     3.165187
      px      :     1.083992
      py      :     1.101376
      dz2     :     0.005600  d :     0.081604
      dxz     :     0.012731
      dyz     :     0.003176
      dx2y2   :     0.032771
      dxy     :     0.027326

 10 H s       :     0.787520  s :     0.787520
      pz      :     0.009026  p :     0.044574
      px      :     0.023212
      py      :     0.012336

 11 H s       :     0.787519  s :     0.787519
      pz      :     0.009026  p :     0.044574
      px      :     0.023212
      py      :     0.012336

 12 H s       :     0.784635  s :     0.784635
      pz      :     0.009181  p :     0.044713
      px      :     0.006858
      py      :     0.028675

 13 H s       :     0.784635  s :     0.784635
      pz      :     0.009181  p :     0.044713
      px      :     0.006858
      py      :     0.028675

 14 H s       :     0.787519  s :     0.787519
      pz      :     0.009026  p :     0.044574
      px      :     0.023212
      py      :     0.012336

 15 H s       :     0.787519  s :     0.787519
      pz      :     0.009026  p :     0.044574
      px      :     0.023212
      py      :     0.012336

 16 H s       :     0.784636  s :     0.784636
      pz      :     0.009181  p :     0.044713
      px      :     0.006858
      py      :     0.028675

 17 H s       :     0.784635  s :     0.784635
      pz      :     0.009181  p :     0.044713
      px      :     0.006858
      py      :     0.028675


---------------------------------
LOEWDIN BOND ORDERS (THRESH 0.050000)
---------------------------------
B(  0-C ,  1-C ) :   1.3899 B(  0-C ,  2-C ) :   0.0869 B(  0-C ,  3-C ) :   0.0824 
B(  0-C ,  8-C ) :   0.0884 B(  0-C ,  9-C ) :   1.6168 B(  0-C , 10-H ) :   0.8735 
B(  0-C , 11-H ) :   0.0517 B(  0-C , 17-H ) :   0.0554 B(  1-C ,  2-C ) :   1.6168 
B(  1-C ,  3-C ) :   0.0884 B(  1-C ,  8-C ) :   0.0824 B(  1-C ,  9-C ) :   0.0869 
B(  1-C , 10-H ) :   0.0517 B(  1-C , 11-H ) :   0.8735 B(  1-C , 12-H ) :   0.0554 
B(  2-C ,  3-C ) :   1.3191 B(  2-C ,  4-C ) :   0.0947 B(  2-C ,  8-C ) :   0.0770 
B(  2-C ,  9-C ) :   0.1336 B(  2-C , 11-H ) :   0.0576 B(  2-C , 12-H ) :   0.8658 
B(  3-C ,  4-C ) :   1.3191 B(  3-C ,  5-C ) :   0.0884 B(  3-C ,  6-C ) :   0.0824 
B(  3-C ,  7-C ) :   0.0770 B(  3-C ,  8-C ) :   1.2441 B(  3-C ,  9-C ) :   0.0770 
B(  3-C , 12-H ) :   0.0512 B(  3-C , 13-H ) :   0.0512 B(  4-C ,  5-C ) :   1.6168 
B(  4-C ,  6-C ) :   0.0869 B(  4-C ,  7-C ) :   0.1336 B(  4-C ,  8-C ) :   0.0770 
B(  4-C , 13-H ) :   0.8658 B(  4-C , 14-H ) :   0.0576 B(  5-C ,  6-C ) :   1.3899 
B(  5-C ,  7-C ) :   0.0869 B(  5-C ,  8-C ) :   0.0824 B(  5-C , 13-H ) :   0.0554 
B(  5-C , 14-H ) :   0.8735 B(  5-C , 15-H ) :   0.0517 B(  6-C ,  7-C ) :   1.6168 
B(  6-C ,  8-C ) :   0.0884 B(  6-C , 14-H ) :   0.0517 B(  6-C , 15-H ) :   0.8735 
B(  6-C , 16-H ) :   0.0554 B(  7-C ,  8-C ) :   1.3191 B(  7-C ,  9-C ) :   0.0947 
B(  7-C , 15-H ) :   0.0576 B(  7-C , 16-H ) :   0.8658 B(  8-C ,  9-C ) :   1.3191 
B(  8-C , 16-H ) :   0.0512 B(  8-C , 17-H ) :   0.0512 B(  9-C , 10-H ) :   0.0576 
B(  9-C , 17-H ) :   0.8658 

------------------------------------------
LOEWDIN REDUCED ORBITAL POPULATIONS PER MO
-------------------------------------------
THRESHOLD FOR PRINTING IS 0.1%%
                      0         1         2         3         4         5   
                 -10.04719 -10.04685 -10.03796 -10.03795 -10.03793 -10.03793
                   2.00000   2.00000   2.00000   2.00000   2.00000   2.00000
                  --------  --------  --------  --------  --------  --------
 0 C  s               0.0       0.0       3.6       3.4       1.7       1.6
 1 C  s               0.0       0.0       3.5       3.4       1.7       1.6
 2 C  s               0.0       0.0      22.0      20.6      24.1      22.6
 3 C  s              49.7      49.8       0.0       0.1       0.0       0.1
 3 C  px              0.0       0.0       0.1       0.0       0.1       0.0
 4 C  s               0.0       0.0      20.8      22.0      22.6      23.9
 5 C  s               0.0       0.0       3.3       3.6       1.6       1.7
 6 C  s               0.0       0.0       3.3       3.6       1.6       1.7
 7 C  s               0.0       0.0      20.8      22.0      22.5      23.9
 8 C  s              49.7      49.7       0.0       0.1       0.0       0.1
 8 C  px              0.0       0.0       0.1       0.0       0.1       0.0
 9 C  s               0.0       0.0      22.2      20.9      23.8      22.4

                      6         7         8         9        10        11   
                 -10.03718 -10.03717 -10.03682 -10.03682  -0.84839  -0.79463
                   2.00000   2.00000   2.00000   2.00000   2.00000   2.00000
                  --------  --------  --------  --------  --------  --------
 0 C  s              21.0      21.8      21.9      24.7       4.9      10.8
 0 C  px              0.0       0.0       0.0       0.0       1.3       0.7
 0 C  py              0.0       0.0       0.0       0.0       0.2       0.7
 0 C  dz2             0.0       0.0       0.0       0.0       0.1       0.1
 1 C  s              21.0      21.8      21.9      24.7       4.9      10.8
 1 C  px              0.0       0.0       0.0       0.0       1.3       0.7
 1 C  py              0.0       0.0       0.0       0.0       0.2       0.7
 1 C  dz2             0.0       0.0       0.0       0.0       0.1       0.1
 2 C  s               3.4       3.6       1.5       1.8       7.2       5.0
 2 C  px              0.0       0.0       0.0       0.0       0.4       1.6
 2 C  py              0.0       0.0       0.0       0.0       1.6       1.0
 3 C  s               0.0       0.0       0.0       0.0      15.2       0.0
 3 C  px              0.0       0.0       0.0       0.0       0.0       6.3
 3 C  py              0.0       0.0       0.0       0.0       0.6       0.0
 3 C  dz2             0.0       0.0       0.0       0.0       0.2       0.0
 4 C  s               3.5       3.4       1.7       1.6       7.2       5.0
 4 C  px              0.0       0.0       0.0       0.0       0.4       1.6
 4 C  py              0.0       0.0       0.0       0.0       1.6       1.0
 5 C  s              21.9      20.9      24.7      21.9       4.9      10.8
 5 C  px              0.0       0.0       0.0       0.0       1.3       0.7
 5 C  py              0.0       0.0       0.0       0.0       0.2       0.7
 5 C  dz2             0.0       0.0       0.0       0.0       0.1       0.1
 6 C  s              21.9      21.0      24.7      21.8       4.9      10.8
 6 C  px              0.0       0.0       0.0       0.0       1.3       0.7
 6 C  py              0.0       0.0       0.0       0.0       0.2       0.7
 6 C  dz2             0.0       0.0       0.0       0.0       0.1       0.1
 7 C  s               3.5       3.4       1.7       1.6       7.2       5.0
 7 C  px              0.0       0.0       0.0       0.0       0.4       1.6
 7 C  py              0.0       0.0       0.0       0.0       1.6       1.0
 8 C  s               0.0       0.0       0.0       0.0      15.2       0.0
 8 C  px              0.0       0.0       0.0       0.0       0.0       6.3
 8 C  py              0.0       0.0       0.0       0.0       0.6       0.0
 8 C  dz2             0.0       0.0       0.0       0.0       0.2       0.0
 9 C  s               3.4       3.6       1.5       1.8       7.2       5.0
 9 C  px              0.0       0.0       0.0       0.0       0.4       1.6
 9 C  py              0.0       0.0       0.0       0.0       1.6       1.0
10 H  s               0.0       0.0       0.0       0.0       0.4       1.2
11 H  s               0.0       0.0       0.0       0.0       0.4       1.2
12 H  s               0.0       0.0       0.0       0.0       0.7       0.5
13 H  s               0.0       0.0       0.0       0.0       0.7       0.5
14 H  s               0.0       0.0       0.0       0.0       0.4       1.2
15 H  s               0.0       0.0       0.0       0.0       0.4       1.2
16 H  s               0.0       0.0       0.0       0.0       0.7       0.5
17 H  s               0.0       0.0       0.0       0.0       0.7       0.5

                     12        13        14        15        16        17   
                  -0.74616  -0.71414  -0.69092  -0.59879  -0.58340  -0.56925
                   2.00000   2.00000   2.00000   2.00000   2.00000   2.00000
                  --------  --------  --------  --------  --------  --------
 0 C  s               1.8       9.6       4.1       3.7       4.8       0.2
 0 C  px              1.0       0.4       1.0       5.1       0.1       0.6
 0 C  py              2.1       1.3       4.0       2.7       3.8       3.0
 0 C  dx2y2           0.0       0.1       0.1       0.1       0.0       0.0
 1 C  s               1.8       9.6       4.1       3.7       4.8       0.2
 1 C  px              1.0       0.4       1.0       5.1       0.1       0.6
 1 C  py              2.1       1.3       4.0       2.7       3.8       3.0
 1 C  dx2y2           0.0       0.1       0.1       0.1       0.0       0.0
 2 C  s               9.9       0.0       8.9       4.4       0.0       4.3
 2 C  px              0.5       6.5       1.2       0.8       9.6       0.0
 2 C  py              0.1       0.0       0.1       0.1       0.0       4.9
 2 C  dxy             0.0       0.2       0.0       0.0       0.1       0.0
 3 C  s               6.9       8.7       0.0       0.0       4.4       2.0
 3 C  px              0.0       0.0       5.0       8.8       0.0       0.0
 3 C  py              7.5       1.0       0.0       0.0       3.3      13.0
 3 C  dx2y2           0.2       0.1       0.0       0.0       0.0       0.1
 3 C  dxy             0.0       0.0       0.2       0.1       0.0       0.0
 4 C  s               9.9       0.0       8.9       4.4       0.0       4.3
 4 C  px              0.5       6.5       1.2       0.8       9.6       0.0
 4 C  py              0.1       0.0       0.1       0.1       0.0       4.9
 4 C  dxy             0.0       0.2       0.0       0.0       0.1       0.0
 5 C  s               1.8       9.6       4.1       3.7       4.8       0.2
 5 C  px              1.0       0.4       1.0       5.1       0.1       0.6
 5 C  py              2.1       1.3       4.0       2.7       3.8       3.0
 5 C  dx2y2           0.0       0.1       0.1       0.1       0.0       0.0
 6 C  s               1.8       9.6       4.1       3.7       4.8       0.2
 6 C  px              1.0       0.4       1.0       5.1       0.1       0.6
 6 C  py              2.1       1.3       4.0       2.7       3.8       3.0
 6 C  dx2y2           0.0       0.1       0.1       0.1       0.0       0.0
 7 C  s               9.9       0.0       8.9       4.4       0.0       4.3
 7 C  px              0.5       6.5       1.2       0.8       9.6       0.0
 7 C  py              0.1       0.0       0.1       0.1       0.0       4.9
 7 C  dxy             0.0       0.2       0.0       0.0       0.1       0.0
 8 C  s               6.9       8.7       0.0       0.0       4.4       2.0
 8 C  px              0.0       0.0       5.0       8.8       0.0       0.0
 8 C  py              7.5       1.0       0.0       0.0       3.3      13.0
 8 C  dx2y2           0.2       0.1       0.0       0.0       0.0       0.1
 8 C  dxy             0.0       0.0       0.2       0.1       0.0       0.0
 9 C  s               9.9       0.0       8.9       4.4       0.0       4.3
 9 C  px              0.5       6.5       1.2       0.8       9.6       0.0
 9 C  py              0.1       0.0       0.1       0.1       0.0       4.9
 9 C  dxy             0.0       0.2       0.0       0.0       0.1       0.0
10 H  s               0.3       1.8       0.9       2.0       2.4       0.0
10 H  px              0.0       0.1       0.1       0.1       0.2       0.0
11 H  s               0.3       1.8       0.9       2.0       2.4       0.0
11 H  px              0.0       0.1       0.1       0.1       0.2       0.0
12 H  s               1.6       0.0       1.7       1.3       0.0       4.1
12 H  py              0.2       0.0       0.2       0.1       0.0       0.3
13 H  s               1.6       0.0       1.7       1.3       0.0       4.1
13 H  py              0.2       0.0       0.2       0.1       0.0       0.3
14 H  s               0.3       1.8       0.9       2.0       2.4       0.0
14 H  px              0.0       0.1       0.1       0.1       0.2       0.0
15 H  s               0.3       1.8       0.9       2.0       2.4       0.0
15 H  px              0.0       0.1       0.1       0.1       0.2       0.0
16 H  s               1.6       0.0       1.7       1.3       0.0       4.1
16 H  py              0.2       0.0       0.2       0.1       0.0       0.3
17 H  s               1.6       0.0       1.7       1.3       0.0       4.1
17 H  py              0.2       0.0       0.2       0.1       0.0       0.3

                     18        19        20        21        22        23   
                  -0.48808  -0.48092  -0.46725  -0.41873  -0.41371  -0.38869
                   2.00000   2.00000   2.00000   2.00000   2.00000   2.00000
                  --------  --------  --------  --------  --------  --------
 0 C  s               0.2       3.3       0.3       0.8       0.1       0.3
 0 C  px              1.7       2.6      12.4       0.1       1.2       1.7
 0 C  py              5.8       2.2       0.4       0.1      11.0       0.2
 0 C  dx2y2           0.0       0.0       0.0       0.1       0.1       0.2
 1 C  s               0.2       3.3       0.3       0.8       0.1       0.3
 1 C  px              1.7       2.6      12.4       0.1       1.2       1.7
 1 C  py              5.8       2.2       0.4       0.1      11.0       0.2
 1 C  dx2y2           0.0       0.0       0.0       0.1       0.1       0.2
 2 C  s               1.0       2.6       0.3       0.3       0.0       0.1
 2 C  px              1.3       3.5       4.6       0.3       2.8       0.1
 2 C  py              7.6       0.4       1.6      12.5       0.3      13.3
 2 C  dx2y2           0.0       0.1       0.0       0.3       0.0       0.1
 2 C  dxy             0.0       0.1       0.1       0.0       0.1       0.0
 3 C  s               0.0       0.0       1.3       3.3       0.5       0.0
 3 C  px              3.6       5.8       0.0       0.0       0.0       4.2
 3 C  py              0.0       0.0       1.7       0.5      12.4       0.0
 3 C  dx2y2           0.0       0.0       0.1       0.4       0.2       0.0
 3 C  dxy             0.1       0.5       0.0       0.0       0.0       0.0
 4 C  s               1.0       2.6       0.3       0.3       0.0       0.1
 4 C  px              1.3       3.5       4.6       0.3       2.8       0.1
 4 C  py              7.6       0.4       1.6      12.5       0.3      13.3
 4 C  dx2y2           0.0       0.1       0.0       0.3       0.0       0.1
 4 C  dxy             0.0       0.1       0.1       0.0       0.1       0.0
 5 C  s               0.2       3.3       0.3       0.8       0.1       0.3
 5 C  px              1.7       2.6      12.4       0.1       1.2       1.7
 5 C  py              5.8       2.2       0.4       0.1      11.0       0.2
 5 C  dx2y2           0.0       0.0       0.0       0.1       0.1       0.2
 6 C  s               0.2       3.3       0.3       0.8       0.1       0.3
 6 C  px              1.7       2.6      12.4       0.1       1.2       1.7
 6 C  py              5.8       2.2       0.4       0.1      11.0       0.2
 6 C  dx2y2           0.0       0.0       0.0       0.1       0.1       0.2
 7 C  s               1.0       2.6       0.3       0.3       0.0       0.1
 7 C  px              1.3       3.5       4.6       0.3       2.8       0.1
 7 C  py              7.6       0.4       1.6      12.5       0.3      13.3
 7 C  dx2y2           0.0       0.1       0.0       0.3       0.0       0.1
 7 C  dxy             0.0       0.1       0.1       0.0       0.1       0.0
 8 C  s               0.0       0.0       1.3       3.3       0.5       0.0
 8 C  px              3.6       5.8       0.0       0.0       0.0       4.2
 8 C  py              0.0       0.0       1.7       0.5      12.4       0.0
 8 C  dx2y2           0.0       0.0       0.1       0.4       0.2       0.0
 8 C  dxy             0.1       0.5       0.0       0.0       0.0       0.0
 9 C  s               1.0       2.6       0.3       0.3       0.0       0.1
 9 C  px              1.3       3.5       4.6       0.3       2.8       0.1
 9 C  py              7.6       0.4       1.6      12.5       0.3      13.3
 9 C  dx2y2           0.0       0.1       0.0       0.3       0.0       0.1
 9 C  dxy             0.0       0.1       0.1       0.0       0.1       0.0
10 H  s               1.6       5.1       3.2       0.5       2.5       0.3
10 H  px              0.1       0.2       0.0       0.0       0.1       0.0
10 H  py              0.0       0.0       0.1       0.0       0.0       0.0
11 H  s               1.6       5.1       3.2       0.5       2.5       0.3
11 H  px              0.1       0.2       0.0       0.0       0.1       0.0
11 H  py              0.0       0.0       0.1       0.0       0.0       0.0
12 H  s               3.8       1.5       0.2       7.7       0.1       6.6
12 H  py              0.2       0.1       0.0       0.2       0.0       0.1
13 H  s               3.8       1.5       0.2       7.7       0.1       6.6
13 H  py              0.2       0.1       0.0       0.2       0.0       0.1
14 H  s               1.6       5.1       3.2       0.5       2.5       0.3
14 H  px              0.1       0.2       0.0       0.0       0.1       0.0
14 H  py              0.0       0.0       0.1       0.0       0.0       0.0
15 H  s               1.6       5.1       3.2       0.5       2.5       0.3
15 H  px              0.1       0.2       0.0       0.0       0.1       0.0
15 H  py              0.0       0.0       0.1       0.0       0.0       0.0
16 H  s               3.8       1.5       0.2       7.7       0.1       6.6
16 H  py              0.2       0.1       0.0       0.2       0.0       0.1
17 H  s               3.8       1.5       0.2       7.7       0.1       6.6
17 H  py              0.2       0.1       0.0       0.2       0.0       0.1

                     24        25        26        27        28        29   
                  -0.38855  -0.37234  -0.37075  -0.34004  -0.31098  -0.30877
                   2.00000   2.00000   2.00000   2.00000   2.00000   2.00000
                  --------  --------  --------  --------  --------  --------
 0 C  s               0.2       0.0       0.2       0.1       0.0       0.1
 0 C  pz              0.0       5.9       0.0       0.0      17.0       0.0
 0 C  px              7.8       0.0      10.4       0.5       0.0       6.4
 0 C  py              0.7       0.0       0.5      10.9       0.0       0.2
 0 C  dx2y2           0.0       0.0       0.0       0.4       0.0       0.1
 0 C  dxy             0.0       0.0       0.6       0.0       0.0       0.5
 1 C  s               0.2       0.0       0.2       0.1       0.0       0.1
 1 C  pz              0.0       5.9       0.0       0.0      17.0       0.0
 1 C  px              7.9       0.0      10.4       0.5       0.0       6.4
 1 C  py              0.7       0.0       0.5      10.9       0.0       0.2
 1 C  dx2y2           0.0       0.0       0.0       0.4       0.0       0.1
 1 C  dxy             0.0       0.0       0.6       0.0       0.0       0.5
 2 C  s               0.1       0.0       0.9       0.1       0.0       0.0
 2 C  pz              0.0       9.0       0.0       0.0       7.5       0.0
 2 C  px              8.4       0.0       3.0       0.2       0.0       8.7
 2 C  py              0.2       0.0       1.3       4.6       0.0       0.1
 2 C  dx2y2           0.0       0.0       0.0       0.3       0.0       0.0
 2 C  dxy             0.3       0.0       0.1       0.1       0.0       0.2
 3 C  s               0.0       0.0       0.4       0.0       0.0       0.0
 3 C  pz              0.0      19.8       0.0       0.0       0.0       0.0
 3 C  px              9.9       0.0       0.0       2.1       0.0       7.7
 3 C  py              0.0       0.0       0.8       0.0       0.0       0.0
 3 C  dxz             0.0       0.0       0.0       0.0       0.2       0.0
 3 C  dx2y2           0.0       0.0       0.1       0.0       0.0       0.0
 3 C  dxy             0.1       0.0       0.0       0.1       0.0       0.7
 4 C  s               0.1       0.0       0.9       0.1       0.0       0.0
 4 C  pz              0.0       9.0       0.0       0.0       7.5       0.0
 4 C  px              8.4       0.0       3.0       0.2       0.0       8.7
 4 C  py              0.2       0.0       1.3       4.6       0.0       0.1
 4 C  dx2y2           0.0       0.0       0.0       0.3       0.0       0.0
 4 C  dxy             0.3       0.0       0.1       0.1       0.0       0.2
 5 C  s               0.2       0.0       0.2       0.1       0.0       0.1
 5 C  pz              0.0       5.9       0.0       0.0      17.0       0.0
 5 C  px              7.9       0.0      10.4       0.5       0.0       6.4
 5 C  py              0.7       0.0       0.5      10.9       0.0       0.2
 5 C  dx2y2           0.0       0.0       0.0       0.4       0.0       0.1
 5 C  dxy             0.0       0.0       0.6       0.0       0.0       0.5
 6 C  s               0.2       0.0       0.2       0.1       0.0       0.1
 6 C  pz              0.0       5.9       0.0       0.0      17.0       0.0
 6 C  px              7.8       0.0      10.4       0.5       0.0       6.4
 6 C  py              0.7       0.0       0.5      10.9       0.0       0.2
 6 C  dx2y2           0.0       0.0       0.0       0.4       0.0       0.1
 6 C  dxy             0.0       0.0       0.6       0.0       0.0       0.5
 7 C  s               0.1       0.0       0.9       0.1       0.0       0.0
 7 C  pz              0.0       9.0       0.0       0.0       7.5       0.0
 7 C  px              8.4       0.0       3.0       0.2       0.0       8.7
 7 C  py              0.2       0.0       1.3       4.6       0.0       0.1
 7 C  dx2y2           0.0       0.0       0.0       0.3       0.0       0.0
 7 C  dxy             0.3       0.0       0.1       0.1       0.0       0.2
 8 C  s               0.0       0.0       0.4       0.0       0.0       0.0
 8 C  pz              0.0      19.8       0.0       0.0       0.0       0.0
 8 C  px             10.0       0.0       0.0       2.1       0.0       7.7
 8 C  py              0.0       0.0       0.8       0.0       0.0       0.0
 8 C  dxz             0.0       0.0       0.0       0.0       0.2       0.0
 8 C  dx2y2           0.0       0.0       0.1       0.0       0.0       0.0
 8 C  dxy             0.1       0.0       0.0       0.1       0.0       0.7
 9 C  s               0.1       0.0       0.9       0.1       0.0       0.0
 9 C  pz              0.0       9.0       0.0       0.0       7.5       0.0
 9 C  px              8.4       0.0       3.0       0.2       0.0       8.7
 9 C  py              0.2       0.0       1.3       4.6       0.0       0.1
 9 C  dx2y2           0.0       0.0       0.0       0.3       0.0       0.0
 9 C  dxy             0.3       0.0       0.1       0.1       0.0       0.2
10 H  s               1.6       0.0       7.2       2.9       0.0       4.5
10 H  pz              0.0       0.0       0.0       0.0       0.1       0.0
11 H  s               1.6       0.0       7.2       2.9       0.0       4.5
11 H  pz              0.0       0.0       0.0       0.0       0.1       0.0
12 H  s               0.3       0.0       0.1       3.8       0.0       0.0
13 H  s               0.3       0.0       0.1       3.8       0.0       0.0
14 H  s               1.6       0.0       7.2       2.9       0.0       4.5
14 H  pz              0.0       0.0       0.0       0.0       0.1       0.0
15 H  s               1.6       0.0       7.2       2.9       0.0       4.5
15 H  pz              0.0       0.0       0.0       0.0       0.1       0.0
16 H  s               0.3       0.0       0.1       3.8       0.0       0.0
17 H  s               0.3       0.0       0.1       3.8       0.0       0.0

                     30        31        32        33        34        35   
                  -0.30171  -0.27074  -0.23401  -0.20523  -0.06789  -0.03726
                   2.00000   2.00000   2.00000   2.00000   0.00000   0.00000
                  --------  --------  --------  --------  --------  --------
 0 C  pz              0.0       3.0      15.6       7.4       7.1      15.0
 0 C  px              0.1       0.0       0.0       0.0       0.0       0.0
 0 C  py              4.8       0.0       0.0       0.0       0.0       0.0
 0 C  dxz             0.0       0.1       0.0       0.1       0.3       0.0
 0 C  dyz             0.0       0.1       0.1       0.2       0.3       0.3
 0 C  dx2y2           0.2       0.0       0.0       0.0       0.0       0.0
 1 C  pz              0.0       3.0      15.6       7.4       7.1      15.0
 1 C  px              0.1       0.0       0.0       0.0       0.0       0.0
 1 C  py              4.8       0.0       0.0       0.0       0.0       0.0
 1 C  dxz             0.0       0.1       0.0       0.1       0.3       0.0
 1 C  dyz             0.0       0.1       0.1       0.2       0.3       0.3
 1 C  dx2y2           0.2       0.0       0.0       0.0       0.0       0.0
 2 C  s               0.2       0.0       0.0       0.0       0.0       0.0
 2 C  pz              0.0      15.9       0.0      16.7      16.2       0.0
 2 C  px              0.4       0.0       0.0       0.0       0.0       0.0
 2 C  py              5.3       0.0       0.0       0.0       0.0       0.0
 2 C  dxz             0.0       0.0       0.4       0.1       0.1       1.0
 2 C  dx2y2           0.7       0.0       0.0       0.0       0.0       0.0
 3 C  pz              0.0      11.0      17.3       0.0       0.0      16.0
 3 C  py             13.1       0.0       0.0       0.0       0.0       0.0
 3 C  dxz             0.0       0.0       0.0       0.4       0.8       0.0
 3 C  dyz             0.0       0.4       0.1       0.0       0.0       0.4
 3 C  dx2y2           0.6       0.0       0.0       0.0       0.0       0.0
 4 C  s               0.2       0.0       0.0       0.0       0.0       0.0
 4 C  pz              0.0      15.9       0.0      16.7      16.2       0.0
 4 C  px              0.4       0.0       0.0       0.0       0.0       0.0
 4 C  py              5.3       0.0       0.0       0.0       0.0       0.0
 4 C  dxz             0.0       0.0       0.4       0.1       0.1       1.0
 4 C  dx2y2           0.7       0.0       0.0       0.0       0.0       0.0
 5 C  pz              0.0       3.0      15.6       7.4       7.1      15.0
 5 C  px              0.1       0.0       0.0       0.0       0.0       0.0
 5 C  py              4.8       0.0       0.0       0.0       0.0       0.0
 5 C  dxz             0.0       0.1       0.0       0.1       0.3       0.0
 5 C  dyz             0.0       0.1       0.1       0.2       0.3       0.3
 5 C  dx2y2           0.2       0.0       0.0       0.0       0.0       0.0
 6 C  pz              0.0       3.0      15.6       7.4       7.1      15.0
 6 C  px              0.1       0.0       0.0       0.0       0.0       0.0
 6 C  py              4.8       0.0       0.0       0.0       0.0       0.0
 6 C  dxz             0.0       0.1       0.0       0.1       0.3       0.0
 6 C  dyz             0.0       0.1       0.1       0.2       0.3       0.3
 6 C  dx2y2           0.2       0.0       0.0       0.0       0.0       0.0
 7 C  s               0.2       0.0       0.0       0.0       0.0       0.0
 7 C  pz              0.0      15.9       0.0      16.7      16.2       0.0
 7 C  px              0.4       0.0       0.0       0.0       0.0       0.0
 7 C  py              5.3       0.0       0.0       0.0       0.0       0.0
 7 C  dxz             0.0       0.0       0.4       0.1       0.1       1.0
 7 C  dx2y2           0.7       0.0       0.0       0.0       0.0       0.0
 8 C  pz              0.0      11.0      17.3       0.0       0.0      16.0
 8 C  py             13.1       0.0       0.0       0.0       0.0       0.0
 8 C  dxz             0.0       0.0       0.0       0.4       0.8       0.0
 8 C  dyz             0.0       0.4       0.1       0.0       0.0       0.4
 8 C  dx2y2           0.6       0.0       0.0       0.0       0.0       0.0
 9 C  s               0.2       0.0       0.0       0.0       0.0       0.0
 9 C  pz              0.0      15.9       0.0      16.7      16.2       0.0
 9 C  px              0.4       0.0       0.0       0.0       0.0       0.0
 9 C  py              5.3       0.0       0.0       0.0       0.0       0.0
 9 C  dxz             0.0       0.0       0.4       0.1       0.1       1.0
 9 C  dx2y2           0.7       0.0       0.0       0.0       0.0       0.0
10 H  s               1.1       0.0       0.0       0.0       0.0       0.0
10 H  pz              0.0       0.0       0.2       0.1       0.2       0.4
11 H  s               1.1       0.0       0.0       0.0       0.0       0.0
11 H  pz              0.0       0.0       0.2       0.1       0.2       0.4
12 H  s               5.2       0.0       0.0       0.0       0.0       0.0
12 H  pz              0.0       0.2       0.0       0.2       0.4       0.0
13 H  s               5.2       0.0       0.0       0.0       0.0       0.0
13 H  pz              0.0       0.2       0.0       0.2       0.4       0.0
14 H  s               1.1       0.0       0.0       0.0       0.0       0.0
14 H  pz              0.0       0.0       0.2       0.1       0.2       0.4
15 H  s               1.1       0.0       0.0       0.0       0.0       0.0
15 H  pz              0.0       0.0       0.2       0.1       0.2       0.4
16 H  s               5.2       0.0       0.0       0.0       0.0       0.0
16 H  pz              0.0       0.2       0.0       0.2       0.4       0.0
17 H  s               5.2       0.0       0.0       0.0       0.0       0.0
17 H  pz              0.0       0.2       0.0       0.2       0.4       0.0

                     36        37        38        39        40        41   
                  -0.00484   0.06602   0.08295   0.08724   0.10391   0.12803
[...]
 4 C  px              0.0       2.1       0.3       0.1       0.0       0.0
 4 C  py              2.6       0.0       0.4       1.2       0.0       0.0
 4 C  dz2             0.3       0.0       0.2       0.0       0.0       0.0
 4 C  dx2y2           5.5       0.0       3.9       5.5       0.0       0.0
 4 C  dxy             0.3       5.3       0.4       0.3       0.0       0.0
 5 C  s               0.1       0.2       0.3       0.2       6.6      14.7
 5 C  px              0.4       0.2       1.1       0.6       0.0       0.0
 5 C  py              0.0       2.4       0.2       0.3       0.0       0.0
 5 C  dz2             0.1       0.1       0.3       0.1       0.0       0.0
 5 C  dx2y2           0.6       4.5       1.1       2.0       0.0       0.0
 5 C  dxy             0.7       0.2       5.8       3.6       0.0       0.0
 6 C  s               0.1       0.2       0.3       0.2       6.6      14.7
 6 C  px              0.4       0.2       1.1       0.6       0.0       0.0
 6 C  py              0.0       2.4       0.2       0.3       0.0       0.0
 6 C  dz2             0.1       0.1       0.3       0.1       0.0       0.0
 6 C  dx2y2           0.6       4.5       1.1       2.0       0.0       0.0
 6 C  dxy             0.7       0.2       5.8       3.6       0.0       0.0
 7 C  s               0.4       0.1       0.2       0.2       8.5      10.2
 7 C  px              0.0       2.1       0.3       0.1       0.0       0.0
 7 C  py              2.6       0.0       0.4       1.2       0.0       0.0
 7 C  dz2             0.3       0.0       0.2       0.0       0.0       0.0
 7 C  dx2y2           5.5       0.0       3.9       5.5       0.0       0.0
 7 C  dxy             0.3       5.3       0.4       0.3       0.0       0.0
 8 C  s               0.0       0.2       0.4       0.0      19.7       0.0
 8 C  px              0.9       0.0       0.0       0.9       0.0       0.0
 8 C  py              0.0       5.8       0.2       0.0       0.0       0.0
 8 C  dx2y2           0.0      11.0       2.9       0.0       0.0       0.0
 8 C  dxy             1.3       0.0       0.0       5.5       0.0       0.0
 9 C  s               0.4       0.1       0.2       0.2       8.5      10.2
 9 C  px              0.0       2.1       0.3       0.1       0.0       0.0
 9 C  py              2.6       0.0       0.4       1.2       0.0       0.0
 9 C  dz2             0.3       0.0       0.2       0.0       0.0       0.0
 9 C  dx2y2           5.5       0.0       3.9       5.5       0.0       0.0
 9 C  dxy             0.3       5.3       0.4       0.3       0.0       0.0
10 H  s               0.5       0.3       1.9       1.3       0.0       0.0
10 H  px              0.7       0.7       3.2       1.7       0.0       0.0
10 H  py              0.8       0.3       0.8       0.6       0.0       0.0
11 H  s               0.5       0.3       1.9       1.3       0.0       0.0
11 H  px              0.7       0.7       3.2       1.7       0.0       0.0
11 H  py              0.8       0.3       0.8       0.6       0.0       0.0
12 H  s               2.7       0.0       1.0       1.3       0.0       0.0
12 H  px              0.0       0.2       0.0       0.0       0.0       0.0
12 H  py              8.2       0.0       2.1       2.5       0.0       0.0
13 H  s               2.7       0.0       1.0       1.3       0.0       0.0
13 H  px              0.0       0.2       0.0       0.0       0.0       0.0
13 H  py              8.2       0.0       2.1       2.5       0.0       0.0
14 H  s               0.5       0.3       1.9       1.3       0.0       0.0
14 H  px              0.7       0.7       3.2       1.7       0.0       0.0
14 H  py              0.8       0.3       0.8       0.6       0.0       0.0
15 H  s               0.5       0.3       1.9       1.3       0.0       0.0
15 H  px              0.7       0.7       3.2       1.7       0.0       0.0
15 H  py              0.8       0.3       0.8       0.6       0.0       0.0
16 H  s               2.7       0.0       1.0       1.3       0.0       0.0
16 H  px              0.0       0.2       0.0       0.0       0.0       0.0
16 H  py              8.2       0.0       2.1       2.5       0.0       0.0
17 H  s               2.7       0.0       1.0       1.3       0.0       0.0
17 H  px              0.0       0.2       0.0       0.0       0.0       0.0
17 H  py              8.2       0.0       2.1       2.5       0.0       0.0

                    222       223       224       225       226       227   
                  21.89513  21.96157  22.01391  22.14871  22.18218  22.21968
                   0.00000   0.00000   0.00000   0.00000   0.00000   0.00000
                  --------  --------  --------  --------  --------  --------
 0 C  s               2.8      15.4      10.4      16.1      10.2       2.9
 1 C  s               2.8      15.4      10.4      16.1      10.2       2.9
 2 C  s              14.7       0.0      14.5       0.1      14.7      16.4
 3 C  s              14.7      18.9       0.0      17.4       0.0      11.2
 3 C  py              0.2       0.0       0.0       0.0       0.0       0.1
 4 C  s              14.7       0.0      14.5       0.1      14.7      16.4
 5 C  s               2.8      15.4      10.4      16.1      10.2       2.9
 6 C  s               2.8      15.4      10.4      16.1      10.2       2.9
 7 C  s              14.7       0.0      14.5       0.1      14.7      16.4
 8 C  s              14.7      18.9       0.0      17.4       0.0      11.2
 8 C  py              0.2       0.0       0.0       0.0       0.0       0.1
 9 C  s              14.7       0.0      14.5       0.1      14.7      16.4

                    228       229   
                  22.30648  22.36103
                   0.00000   0.00000
                  --------  --------
 0 C  s              14.5       6.0
 1 C  s              14.5       6.0
 2 C  s              10.4      10.0
 3 C  s               0.0      17.9
 4 C  s              10.4      10.0
 5 C  s              14.5       6.0
 6 C  s              14.5       6.0
 7 C  s              10.4      10.0
 8 C  s               0.0      17.9
 9 C  s              10.4      10.0


                      *****************************
                      * MAYER POPULATION ANALYSIS *
                      *****************************

  NA   - Mulliken gross atomic population
  ZA   - Total nuclear charge
  QA   - Mulliken gross atomic charge
  VA   - Mayer's total valence
  BVA  - Mayer's bonded valence
  FA   - Mayer's free valence

  ATOM       NA         ZA         QA         VA         BVA        FA
  0 C      6.1474     6.0000    -0.1474     3.8112     3.8112    -0.0000
  1 C      6.1474     6.0000    -0.1474     3.8112     3.8112     0.0000
  2 C      6.2313     6.0000    -0.2313     3.7211     3.7211    -0.0000
  3 C      5.8225     6.0000     0.1775     3.8425     3.8425     0.0000
  4 C      6.2313     6.0000    -0.2313     3.7210     3.7210     0.0000
  5 C      6.1474     6.0000    -0.1474     3.8112     3.8112     0.0000
  6 C      6.1474     6.0000    -0.1474     3.8112     3.8112    -0.0000
  7 C      6.2313     6.0000    -0.2313     3.7211     3.7211    -0.0000
  8 C      5.8225     6.0000     0.1775     3.8425     3.8425    -0.0000
  9 C      6.2313     6.0000    -0.2313     3.7210     3.7210    -0.0000
 10 H      0.8540     1.0000     0.1460     0.9686     0.9686    -0.0000
 11 H      0.8540     1.0000     0.1460     0.9686     0.9686    -0.0000
 12 H      0.8560     1.0000     0.1440     0.9710     0.9710    -0.0000
 13 H      0.8560     1.0000     0.1440     0.9710     0.9710     0.0000
 14 H      0.8540     1.0000     0.1460     0.9686     0.9686    -0.0000
 15 H      0.8540     1.0000     0.1460     0.9686     0.9686    -0.0000
 16 H      0.8560     1.0000     0.1440     0.9710     0.9710     0.0000
 17 H      0.8560     1.0000     0.1440     0.9710     0.9710    -0.0000

  Mayer bond orders larger than 0.100000
B(  0-C ,  1-C ) :   1.2765 B(  0-C ,  9-C ) :   1.5179 B(  0-C , 10-H ) :   0.9488 
B(  1-C ,  2-C ) :   1.5179 B(  1-C , 11-H ) :   0.9488 B(  2-C ,  3-C ) :   1.2028 
B(  2-C , 12-H ) :   0.9522 B(  3-C ,  4-C ) :   1.2028 B(  3-C ,  8-C ) :   1.4738 
B(  4-C ,  5-C ) :   1.5179 B(  4-C , 13-H ) :   0.9522 B(  5-C ,  6-C ) :   1.2765 
B(  5-C , 14-H ) :   0.9488 B(  6-C ,  7-C ) :   1.5179 B(  6-C , 15-H ) :   0.9488 
B(  7-C ,  8-C ) :   1.2028 B(  7-C , 16-H ) :   0.9522 B(  8-C ,  9-C ) :   1.2028 
B(  9-C , 17-H ) :   0.9522 

-------
TIMINGS
-------

Total SCF time: 0 days 0 hours 0 min 10 sec 

Total time                  ....      10.457 sec
Sum of individual times     ....      10.440 sec  ( 99.8%)

SCF preparation             ....       0.034 sec  (  0.3%)
Fock matrix formation       ....      10.223 sec  ( 97.8%)
  Startup                   ....       0.002 sec  (  0.0% of F)
  Split-RI-J                ....       2.412 sec  ( 23.6% of F)
  XC integration            ....       7.789 sec  ( 76.2% of F)
    Basis function eval.    ....       1.359 sec  ( 17.4% of XC)
    Density eval.           ....       2.625 sec  ( 33.7% of XC)
    XC-Functional eval.     ....       0.782 sec  ( 10.0% of XC)
    XC-Potential eval.      ....       2.895 sec  ( 37.2% of XC)
Diagonalization             ....       0.000 sec  (  0.0%)
Density matrix formation    ....       0.009 sec  (  0.1%)
Total Energy calculation    ....       0.001 sec  (  0.0%)
Population analysis         ....       0.092 sec  (  0.9%)
Orbital Transformation      ....       0.012 sec  (  0.1%)
Orbital Orthonormalization  ....       0.000 sec  (  0.0%)
DIIS solution               ....       0.054 sec  (  0.5%)
  MO trafo                  ....       0.000 sec  (  0.0 % of DIIS)
  Orb grad                  ....       0.000 sec  (  0.0 % of DIIS)
  Energy W gradient         ....       0.000 sec  (  0.0 % of DIIS)
  DIIS error                ....       0.009 sec  ( 15.9 % of DIIS)
  DIIS work                 ....       0.038 sec  ( 71.1 % of DIIS)
  Form Q                    ....       0.000 sec  (  0.0 % of DIIS)
  Form QpQm                 ....       0.000 sec  (  0.0 % of DIIS)
  Exp/Cayley                ....       0.000 sec  (  0.0 % of DIIS)
  Orb update                ....       0.000 sec  (  0.0 % of DIIS)
  Wake-sleep                ....       0.001 sec  (  1.1 % of DIIS)
SOSCF solution              ....       0.014 sec  (  0.1%)
  MO trafo                  ....       0.009 sec  ( 63.8 % of SOSCF)
  Orb grad                  ....       0.000 sec  (  0.6 % of SOSCF)
  Rot update                ....       0.000 sec  (  1.4 % of SOSCF)
  Step                      ....       0.005 sec  ( 33.9 % of SOSCF)
Finished LeanSCF after  10.5 sec

Maximum memory used throughout the entire LEANSCF-calculation: 26.6 MB


-------------------------------------------------------------------------------
                          DFT DISPERSION CORRECTION                            
                                                                               
                                DFTD4 V3.4.0                                   
-------------------------------------------------------------------------------
The R2SCAN3C composite method is recognized
Using three-body term ABC
Active option DFTDOPT                   ...         5   

-------------------------   ----------------
Dispersion correction           -0.006938048
-------------------------   ----------------

------------------   -----------------
gCP correction             0.003525849
------------------   -----------------

-------------------------   --------------------
FINAL SINGLE POINT ENERGY      -385.783375918448
-------------------------   --------------------


------------------------------------------------------------------------------
                              ORCA PROPERTY CALCULATIONS
------------------------------------------------------------------------------

GBWName                                 ... sp.gbw
Number of atoms                         ...     18
Number of basis functions               ...    230
Max core memory                         ...   1024 MB

Electric properties:
Dipole moment                           ... YES
Quadrupole moment                       ...  NO
Static polarizability (Dipole/Dipole)   ...  NO
Static polarizability (Dipole/Quad.)    ...  NO
Static polarizability (Quad./Quad.)     ...  NO
Static polarizability (Velocity)        ...  NO

Atomic electric properties:
Dipole moment                           ...  NO
Quadrupole moment                       ...  NO
Static polarizability                   ...  NO

Choice of electric origin               ... Center of mass
Position of electric origin             ...    -0.000000     0.000000     0.000000

General magnetic properties:
Magnetizability                         ...  NO

EPR properties:
g-Tensor (aka g-matrix)                 ...  NO
Zero-Field splitting spin-orbit         ...  NO
Zero-field splitting spin-spin          ...  NO
Hyperfine couplings                     ...  NO (   0 nuclei)
Quadrupole couplings                    ...  NO (   0 nuclei)
Contact density                         ...  NO (   0 nuclei)

NMR properties:
Chemical shifts                         ...  NO (   0 nuclei)
Spin-rotation constants                 ...  NO (   0 nuclei)
Spin-spin couplings                     ...  NO (   0 nuclei,    0 pairs)

Choice of magnetic origin               ... GIAO
Position of magnetic origin             ...     0.000000     0.000000     0.000000

Properties with geometric perturbations:
SCF Hessian                             ...  NO
IR spectrum                             ...  NO
VCD spectrum                            ...  NO
X-ray spectroscopy properties:
SCF XES/XAS/RIXS spectra                ...  NO


-------------
DIPOLE MOMENT
-------------

Method             : SCF
Type of density    : Electron Density
Multiplicity       :   1
Irrep              :   0
Energy             :  -385.7799637194727325 Eh
Relativity type    : 
Basis              : AO
                                X                 Y                 Z
Electronic contribution:     -0.000001494      -0.000011544      -0.000009277
Nuclear contribution   :      0.000000595       0.000014582       0.000023421
                        -----------------------------------------
Total Dipole Moment    :     -0.000000899       0.000003038       0.000014144
                        -----------------------------------------
Magnitude (a.u.)       :      0.000014494
Magnitude (Debye)      :      0.000036841



--------------------
Rotational spectrum 
--------------------
 
Rotational constants in cm-1:             0.105606             0.041645             0.029867 
Rotational constants in MHz :          3165.979487          1248.477843           895.388707 

Dipole components along the rotational axes: 
x,y,z [a.u.] :    -0.000001     0.000003     0.000014 
x,y,z [Debye]:    -0.000002     0.000008     0.000036 

 

Dipole moment calculation done in   0.0 sec 

Maximum memory used throughout the entire PROP-calculation: 16.1 MB

--------------------------------
SUGGESTED CITATIONS FOR THIS RUN
--------------------------------

Below you find a list of papers that are relevant to this ORCA run
We neither can nor want to force you to cite these papers, but we appreciate if you do
You receive ORCA, which is the product of decades of hard work by many enthusiastic individuals, for free
The only thing we kindly ask in return is that you cite our papers,
We deeply appreciate it, if you show your appreciation for ORCA by not just citing the generic ORCA reference.

Please note that relegating all ORCA citations to the supporting information does *not* help us.
SI sections are not indexed - citations you put there will not count into any citation statistics
But we need these citations in order to attract the funding resources that allow us to do what we are doing

Therefore, if you are a happy ORCA user, please consider citing a few of the papers listed below in the main body of your paper

In addition to the list printed below, the program has created the file sp.bibtex that contains the list in bibtex format
You can import this file easily into all common literature databanks and citation aid programs


List of essential papers. We consider these as the minimum necessary citations

  1. Neese,F.
     Software update: the ORCA program system, version 5.0
     WIRES Comput. Molec. Sci., 2022 12(1)e1606
     doi.org/10.1002/wcms.1606
  2. Grimme,S.; Hansen,A.; Ehlert,S.; Mewes,J.
     r2SCAN-3c: A 'Swiss army knife' composite electronic-structure method
     J. Chem. Phys., 2021 154 064103
     doi.org/10.1063/5.0040021

List of papers to cite with high priority. The work reported in these papers was absolutely
necessary for this run to complete.
Our perspective: the developers of density functionals and basis sets usually get cited in chemistry papers
Good! But without the algorithms to do something with them, the functionals or basis sets would not do anything.
Hence, in our opinion, the algorithm design and method developments papers are equally worthy of getting cited

  1. Neese,F.
     An improvement of the resolution of the identity approximation for the formation of the Coulomb matrix
     J. Comp. Chem., 2003 24(14)1740-1747
     doi.org/10.1002/jcc.10318
  2. Neese,F.
     The SHARK Integral Generation and Digestion System
     J. Comp. Chem., 2022  1-16
     doi.org/10.1002/jcc.26942
  3. Lehtola,S.; Steigemann,C.; Oliveira,M.; Marques,M.
     Recent developments in Libxc - A comprehensive library of functionals for density functional theory
     Software X, 2018 7 
     doi.org/10.1016/j.softx.2017.11.002
  4. Caldeweyher,E.; Bannwarth,C.; Grimme,S.
     Extension of the D3 dispersion coefficient model
     J. Chem. Phys., 2017 147 034112
     doi.org/10.1063/1.4993215
  5. Caldeweyher,E.; Ehlert,S.; Hansen,A.; Neugebauer,H.; Spicher,S.; Bannwarth,C.; Grimme,S.
     A generally applicable atomic-charge dependent London dispersion correction
     J. Chem. Phys., 2019 150 154122
     doi.org/10.1063/1.5090222
  6. Caldeweyher,E.; Mewes,J.; Ehlert,S.; Grimme,S.
     Extension and evaluation of the D4 London-dispersion model for periodic systems
     Phys. Chem. Chem. Phys., 2020 22(16)8499-8512
     doi.org/10.1039/D0CP00502A
  7. Wittmann,L.; Gordiy,I.; Friede,M.; Helmich-Paris,B.; Grimme,S.; Hansen,A.; Bursch,M.
     Extension of the D3 and D4 London Dispersion Corrections to the full Actinides Series
     Phys. Chem. Chem. Phys., 2024 26(32)21379-21394
     doi.org/https://doi.org/10.1039/D4CP01514B 

List of suggested additional citations. These are papers that are important in the 'surrounding' of 
of this run, or papers that preceded the highly important papers. If you like your results we are grateful for a citation.

  1. Neese,F.
     The ORCA program system
     WIRES Comput. Molec. Sci., 2012 2(1)73-78
     doi.org/10.1002/wcms.81
  2. Neese,F.
     Software update: the ORCA program system, version 4.0
     WIRES Comput. Molec. Sci., 2018 8(1)1-6
     doi.org/10.1002/wcms.1327
  3. Neese,F.; Wennmohs,F.; Becker,U.; Riplinger,C.
     The ORCA quantum chemistry program package
     J. Chem. Phys., 2020 152 Art. No. L224108
     doi.org/10.1063/5.0004608

List of optional additional citations

  1. Neese,F.
     Approximate second-order SCF convergence for spin unrestricted wavefunctions
     Chem. Phys. Lett., 2000 325(1-3)93-98
     doi.org/10.1016/s0009-2614(00)00662-x

Timings for individual modules:

Sum of individual times          ...       11.170 sec (=   0.186 min)
Startup calculation              ...        0.596 sec (=   0.010 min)   5.3 %
SCF iterations                   ...       10.534 sec (=   0.176 min)  94.3 %
Property calculations            ...        0.039 sec (=   0.001 min)   0.4 %
                             ****ORCA TERMINATED NORMALLY****
TOTAL RUN TIME: 0 days 0 hours 0 minutes 11 seconds 237 msec
