
                                 *****************
                                 * O   R   C   A *
                                 *****************

                                            #,                                       
                                            ###                                      
                                            ####                                     
                                            #####                                    
                                            ######                                   
                                           ########,                                 
                                     ,,################,,,,,                         
                               ,,#################################,,                 
                          ,,##########################################,,             
                       ,#########################################, ''#####,          
                    ,#############################################,,   '####,        
                  ,##################################################,,,,####,       
                ,###########''''           ''''###############################       
              ,#####''   ,,,,##########,,,,          '''####'''          '####       
            ,##' ,,,,###########################,,,                        '##       
           ' ,,###''''                  '''############,,,                           
         ,,##''                                '''############,,,,        ,,,,,,###''
      ,#''                                            '''#######################'''  
     '                                                          ''''####''''         
             ,#######,   #######,   ,#######,      ##                                
            ,#'     '#,  ##    ##  ,#'     '#,    #''#        ,####,   ,####,        
            ##       ##  ##   ,#'  ##            #'  '#       #'       #'  '#        
            ##       ##  #######   ##           ,######,      #####,   #    #        
            '#,     ,#'  ##    ##  '#,     ,#' ,#      #,     #,   #   #,  ,#        
             '#######'   ##     ##  '#######'  #'      '#     '####' # '####'        



                #########################################################
                #                        -***-                          #
                #          Department of theory and spectroscopy        #
                #                                                       #
                #                      Frank Neese                      #
                #                                                       #
                #     Directorship, Architecture, Infrastructure        #
                #                    SHARK, DRIVERS                     #
                #        Core code/Algorithms in most modules           #
                #                                                       #
                #        Max Planck Institute fuer Kohlenforschung      #
                #                Kaiser Wilhelm Platz 1                 #
                #                 D-45470 Muelheim/Ruhr                 #
                #                      Germany                          #
                #                                                       #
                #                  All rights reserved                  #
                #                        -***-                          #
                #########################################################


                         Program Version 6.0.1  -  RELEASE   -


 With contributions from (in alphabetic order):
[Max-Planck-Institut fuer Kohlenforschung]                               
  Daniel Aravena         : Magnetic Suceptibility                        
  Michael Atanasov       : Ab Initio Ligand Field Theory (pilot matlab implementation)
  Alexander A. Auer      : GIAO ZORA, VPT2 properties, NMR spectrum      
  Ute Becker             : All parallelization in ORCA, NUMFREQ, NUMCALC 
  Giovanni Bistoni       : ED, misc. LED, open-shell LED, HFLD           
  Martin Brehm           : Molecular dynamics                            
  Dmytro Bykov           : pre 5.0 version of the SCF Hessian            
  Marcos Casanova-Páez   : Triplet and SCS-CIS(D). UHF-(DLPNO)-IP/EA/STEOM-CCSD. UHF-CVS-IP/STEOM-CCSD   
  Vijay G. Chilkuri      : MRCI spin determinant printing, contributions to CSF-ICE 
  Pauline Colinet        : FMM embedding                                 
  Dipayan Datta          : RHF DLPNO-CCSD density                        
  Achintya Kumar Dutta   : EOM-CC, STEOM-CC                              
  Nicolas Foglia         : Exact transition moments, OPA infrastructure, MCD improvements    
  Dmitry Ganyushin       : Spin-Orbit,Spin-Spin,Magnetic field MRCI      
  Miquel Garcia-Rates    : C-PCM and meta-GGA Hessian, CCSD/C-PCM, Gaussian charge scheme 
  Tiago L. C. Gouveia    : GS-ROHF, GS-ROCIS                             
  Yang Guo               : DLPNO-NEVPT2, F12-NEVPT2, CIM, IAO-localization        
  Andreas Hansen         : Spin unrestricted coupled pair/coupled cluster methods 
  Ingolf Harden          : AUTO-CI MPn and infrastructure                
  Benjamin Helmich-Paris : MC-RPA, TRAH-(SCF,CASSCF), AVAS, COSX integrals, SCF dyn. polar. 
  Lee Huntington         : MR-EOM, pCC                                   
  Robert Izsak           : Overlap fitted RIJCOSX, COSX-SCS-MP3, EOM     
  Riya Kayal             : Wick's Theorem for AUTO-CI, AUTO-CI UHF-CCSDT 
  Emily Kempfer          : AUTO-CI, RHF CISDT and CCSDT                  
  Christian Kollmar      : KDIIS, OOCD, Brueckner-CCSD(T), CCSD density, CASPT2, CASPT2-K, improved NEVPT2 
  Axel Koslowski         : Symmetry handling                             
  Simone Kossmann        : meta-GGA functionals, TD-DFT gradient, OOMP2, (MP2 Hessian; deprecated post 5.0) 
  Lucas Lang             : DCDCAS                                        
  Marvin Lechner         : AUTO-CI (C++ implementation), FIC-MRCC        
  Spencer Leger          : CASSCF response                               
  Dagmar Lenk            : GEPOL surface, SMD, ORCA-2-JSON               
  Dimitrios Liakos       : Extrapolation schemes; Compound Job, initial MDCI parallelization 
  Dimitrios Manganas     : Further ROCIS development; embedding schemes. LFT, Crystal Embedding 
  Dimitrios Pantazis     : SARC Basis sets                               
  Anastasios Papadopoulos: AUTO-CI, single reference methods and gradients 
  Taras Petrenko         : pre 6.0 DFT Hessian and TD-DFT gradient, (ASA, deprecated), ECA, 1-Electron XAS/XES, NRVS 
  Peter Pinski           : DLPNO-MP2, DLPNO-MP2 Gradient                 
  Christoph Reimann      : Effective Core Potentials                     
  Marius Retegan         : Local ZFS, SOC                                
  Christoph Riplinger    : Optimizer, TS searches, QM/MM, DLPNO-CCSD(T), (RO)-DLPNO pert. Triples 
  Michael Roemelt        : Original ROCIS implementation                 
  Masaaki Saitow         : Open-shell DLPNO-CCSD energy and density      
  Barbara Sandhoefer     : DKH picture change effects                    
  Kantharuban Sivalingam : CASSCF convergence/infrastructure, NEVPT2 and variants, FIC-MRCI 
  Bernardo de Souza      : ESD, SOC TD-DFT                               
  Georgi L. Stoychev     : AutoAux, RI-MP2 NMR, DLPNO-MP2 response, X2C  
  Van Anh Tran           : RI-MP2 g-tensors                              
  Willem Van den Heuvel  : Paramagnetic NMR                              
  Zikuan Wang            : NOTCH, Electric field optimization            
  Frank Wennmohs         : Technical directorship and infrastructure     
  Hang Xu                : AUTO-CI-Response properties                   
                                                                         
[FACCTs GmbH]                                                            
  Markus Bursch, Miquel Garcia-Rates, Christoph Riplinger, Bernardo de Souza, Georgi L. Stoychev 
                                                                 
  APM, Basis sets (HGBS, AHGBS, def-TZVP (Ac-Lr), def2-XVPD (La-Lu)), CI-OPT, improved COSX, DLPNO-Multilevel,           
  DOCKER, DRACO, updates on ESD, GOAT, IRC, LR-CPCM, MBIS, meta-GGA TD-DFT gradient, ML-optimized integration grids, 
  MM, NACMEs, nearIR, NEB, NEB-TS, NL-DFT gradient (VV10), 2- and 3-layer-ONIOM, interface openCOSMO-RS, QMMM,   
  Crystal-QMMM, SF, symmetry and pop. for TD-DFT, r2SCAN hybrids, SOLVATOR                                   
                                                                         
[Other institutions]                                                     
  V. Asgeirsson          : NEB                                           
  Christoph Bannwarth    : sTDA-DFT, sTD-DFT, PBEh-3c, B97-3c, D3        
  Sebastian Ehlert       : rSCAN, r2SCAN, r2SCAN-3c, D4, dhf basis sets  
  Marvin Friede          : D4 for Fr, Ra, Ac-Lr                          
  Lars Goerigk           : TD-DFT with DH, B97 family of functionals     
  Stefan Grimme          : VdW corrections, initial TS optimization, DFT functionals, gCP, sTDA/sTD-DF 
  Waldemar Hujo          : DFT-NL                                        
  H. Jonsson             : NEB                                           
  Holger Kruse           : gCP                                           
  Marcel Mueller         : wB97X-3c, vDZP basis set                      
  Hagen Neugebauer       : wr2SCAN                                       
  Tobias Risthaus        : range-separated hybrid DFT                    
  Lukas Wittmann         : regularized MP2, r2SCAN double-hybrids, wr2SCAN        
                                                                         
We gratefully acknowledge several colleagues who have allowed us to      
interface, adapt or use parts of their codes:                            
  Ed Valeev, F. Pavosevic, A. Kumar             : LibInt (2-el integral package), F12 methods 
  Garnet Chan, S. Sharma, J. Yang, R. Olivares  : DMRG                   
  Ulf Ekstrom                                   : XCFun DFT Library      
  Mihaly Kallay                                 : mrcc  (arbitrary order and MRCC methods)
  Frank Weinhold                                : gennbo (NPA and NBO analysis)           
  Simon Mueller                                 : openCOSMO-RS                            
  Christopher J. Cramer and Donald G. Truhlar   : smd solvation model                     
  S Lehtola, MJT Oliveira, MAL Marques          : LibXC Library                           
  Liviu Ungur et al                             : ANISO software                          


 Your calculation uses the libint2 library for the computation of 2-el integrals
 For citations please refer to: http://libint.valeyev.net

 Your ORCA version has been built with support for libXC version: 6.2.2
 For citations please refer to: https://libxc.gitlab.io

 This ORCA versions uses:
   CBLAS   interface :  Fast vector & matrix operations
   LAPACKE interface :  Fast linear algebra routines
   SCALAPACK package :  Parallel linear algebra routines
   Shared memory     :  Shared parallel matrices
   BLAS/LAPACK       :  OpenBLAS 0.3.27  USE64BITINT DYNAMIC_ARCH NO_AFFINITY Zen SINGLE_THREADED
        Core in use  :  Zen
   Copyright (c) 2011-2014, The OpenBLAS Project


Your calculation utilizes the geometrical counterpoise correction gCP
Please cite in your paper:
H.Kruse, S. Grimme J.Chem.Phys., 136, (2012), 154101 
   

Your calculation utilizes the atom-pairwise dispersion correction
based on EEQ partial charges (D4)


================================================================================

----- Orbital basis set information -----
Your calculation utilizes the basis: def2-mTZVPP
   Stefan Grimme, Andreas Hansen, Sebastian Ehlert, and Jan-Michael Mewes 
   J. Chem. Phys. 154, 064103 (2021). DOI: 10.1063/5.0040021

----- AuxJ basis set information -----
Your calculation utilizes the auxiliary basis: def2/J
   F. Weigend, Phys. Chem. Chem. Phys. 8, 1057 (2006).

================================================================================
                                        WARNINGS
                       Please study these warnings very carefully!
================================================================================

WARNING: Old DensityContainer found on disk!
         Will remove this file - 
         If you want to keep old densities, please start your calculation with a different basename. 



WARNING: SCAN, rSCAN, or r2SCAN functional requested.
  ===> : libXC variant has now been activated.



================================================================================
                                       INPUT FILE
================================================================================
NAME = sp.inp
|  1> ! r2scan-3c def2/J RI DEFGRID2 scfconv6 printgap
|  2> %output
|  3>     printlevel normal
|  4> end
|  5> * xyz 0 1
|  6> C -2.3163453743 0.1985398663 -0.563262382
|  7> C -1.2760532298 0.5855096955 0.4873980586
|  8> C 0.0098954602 -0.1692659588 0.2398620713
|  9> O 0.1266002052 -1.365095793 0.2784358952
| 10> O 1.0088254506 0.6739126379 -0.0495300928
| 11> C 2.2885594808 0.118543134 -0.32558088
| 12> H -2.4571115537 -0.8794238859 -0.5642737094
| 13> H -3.2670543471 0.6782234818 -0.3452480188
| 14> H -1.9904388119 0.5069558701 -1.5540195114
| 15> H -1.6414529904 0.3096722765 1.4782689815
| 16> H -1.0726034782 1.6554592079 0.4612679188
| 17> H 2.9507955617 0.3139024541 0.5191104708
| 18> H 2.6741683392 0.605997539 -1.2198326912
| 19> H 2.1996969814 -0.9578984284 -0.4833600508
| 20> *
| 21> 
| 22>                          ****END OF INPUT****
================================================================================

                       ****************************
                       * Single Point Calculation *
                       ****************************

---------------------------------
CARTESIAN COORDINATES (ANGSTROEM)
---------------------------------
  C     -2.316345    0.198540   -0.563262
  C     -1.276053    0.585510    0.487398
  C      0.009895   -0.169266    0.239862
  O      0.126600   -1.365096    0.278436
  O      1.008825    0.673913   -0.049530
  C      2.288559    0.118543   -0.325581
  H     -2.457112   -0.879424   -0.564274
  H     -3.267054    0.678223   -0.345248
  H     -1.990439    0.506956   -1.554020
  H     -1.641453    0.309672    1.478269
  H     -1.072603    1.655459    0.461268
  H      2.950796    0.313902    0.519110
  H      2.674168    0.605998   -1.219833
  H      2.199697   -0.957898   -0.483360

----------------------------
CARTESIAN COORDINATES (A.U.)
----------------------------
  NO LB      ZA    FRAG     MASS         X           Y           Z
   0 C     6.0000    0    12.011   -4.377258    0.375186   -1.064412
   1 C     6.0000    0    12.011   -2.411391    1.106453    0.921049
   2 C     6.0000    0    12.011    0.018700   -0.319866    0.453274
   3 O     8.0000    0    15.999    0.239240   -2.579657    0.526168
   4 O     8.0000    0    15.999    1.906404    1.273510   -0.093598
   5 C     6.0000    0    12.011    4.324751    0.224014   -0.615259
   6 H     1.0000    0     1.008   -4.643268   -1.661870   -1.066323
   7 H     1.0000    0     1.008   -6.173838    1.281657   -0.652424
   8 H     1.0000    0     1.008   -3.761384    0.958008   -2.936671
   9 H     1.0000    0     1.008   -3.101897    0.585196    2.793524
  10 H     1.0000    0     1.008   -2.026927    3.128365    0.871670
  11 H     1.0000    0     1.008    5.576195    0.593190    0.980977
  12 H     1.0000    0     1.008    5.053446    1.145169   -2.305150
  13 H     1.0000    0     1.008    4.156825   -1.810166   -0.913418

--------------------------------
INTERNAL COORDINATES (ANGSTROEM)
--------------------------------
 C      0   0   0     0.000000000000     0.00000000     0.00000000
 C      1   0   0     1.528345758021     0.00000000     0.00000000
 C      2   1   0     1.511497398822   109.88161685     0.00000000
 O      3   2   1     1.202130163401   125.03516213   297.78691786
 O      3   2   1     1.338864853634   110.83544950   116.90765661
 C      5   3   2     1.422096519589   117.86731364   180.72704828
 H      1   2   3     1.087116365024   109.86710089    55.51830818
 H      1   2   3     1.086956385741   110.22601949   175.57613084
 H      1   2   3     1.087628249115   110.51559116   295.68218451
 H      2   1   3     1.091525745283   109.40309051   241.71833049
 H      2   1   3     1.089434047897   111.05667784   120.83290680
 H      6   5   3     1.090974504245   109.02742727   252.88678929
 H      6   5   3     1.089032731586   107.65183058   133.68250840
 H      6   5   3     1.091566419326   109.87181751    13.19991617

---------------------------
INTERNAL COORDINATES (A.U.)
---------------------------
 C      0   0   0     0.000000000000     0.00000000     0.00000000
 C      1   0   0     2.888154920600     0.00000000     0.00000000
 C      2   1   0     2.856316135908   109.88161685     0.00000000
 O      3   2   1     2.271696786154   125.03516213   297.78691786
 O      3   2   1     2.530087903701   110.83544950   116.90765661
 C      5   3   2     2.687372958026   117.86731364   180.72704828
 H      1   2   3     2.054352205599   109.86710089    55.51830818
 H      1   2   3     2.054049888567   110.22601949   175.57613084
 H      1   2   3     2.055319526343   110.51559116   295.68218451
 H      2   1   3     2.062684726709   109.40309051   241.71833049
 H      2   1   3     2.058731991494   111.05667784   120.83290680
 H      6   5   3     2.061643032113   109.02742727   252.88678929
 H      6   5   3     2.057973613573   107.65183058   133.68250840
 H      6   5   3     2.062761589511   109.87181751    13.19991617

---------------------
BASIS SET INFORMATION
---------------------
There are 3 groups of distinct atoms

 Group   1 Type C   : 11s6p1d contracted to 5s3p1d pattern {62111/411/1}
 Group   2 Type O   : 11s6p2d contracted to 5s3p2d pattern {62111/411/11}
 Group   3 Type H   : 4s1p contracted to 2s1p pattern {31/1}

Atom   0C    basis set group =>   1
Atom   1C    basis set group =>   1
Atom   2C    basis set group =>   1
Atom   3O    basis set group =>   2
Atom   4O    basis set group =>   2
Atom   5C    basis set group =>   1
Atom   6H    basis set group =>   3
Atom   7H    basis set group =>   3
Atom   8H    basis set group =>   3
Atom   9H    basis set group =>   3
Atom  10H    basis set group =>   3
Atom  11H    basis set group =>   3
Atom  12H    basis set group =>   3
Atom  13H    basis set group =>   3
---------------------------------
AUXILIARY/J BASIS SET INFORMATION
---------------------------------
There are 3 groups of distinct atoms

 Group   1 Type C   : 12s5p4d2f1g contracted to 6s4p3d1f1g pattern {711111/2111/211/2/1}
 Group   2 Type O   : 12s5p4d2f1g contracted to 6s4p3d1f1g pattern {711111/2111/211/2/1}
 Group   3 Type H   : 5s2p1d contracted to 3s1p1d pattern {311/2/1}

Atom   0C    basis set group =>   1
Atom   1C    basis set group =>   1
Atom   2C    basis set group =>   1
Atom   3O    basis set group =>   2
Atom   4O    basis set group =>   2
Atom   5C    basis set group =>   1
Atom   6H    basis set group =>   3
Atom   7H    basis set group =>   3
Atom   8H    basis set group =>   3
Atom   9H    basis set group =>   3
Atom  10H    basis set group =>   3
Atom  11H    basis set group =>   3
Atom  12H    basis set group =>   3
Atom  13H    basis set group =>   3

Checking for AutoStart:
The File: sp.gbw exists
Trying to determine its content:
     ... Fine, the file contains calculation information
     ... Fine, the calculation information was read
     ... Fine, the file contains a basis set
     ... Fine, the basis set was read
     ... Fine, the file contains a geometry
     ... Fine, the geometry was read
     ... Fine, the file contains a set of orbitals
     ... Fine, the orbitals can be read
     => possible old guess file was deleted
     => GBW file was renamed to GES file
     => GES file is set as startup file
     => Guess is set to MORead
     ... now leaving AutoStart

------------------------------------------------------------------------------
                             ORCA STARTUP CALCULATIONS
                           -- RI-GTO INTEGRALS CHOSEN --
------------------------------------------------------------------------------
------------------------------------------------------------------------------
                   ___                                                        
                  /   \      - P O W E R E D   B Y -                         
                 /     \                                                     
                 |  |  |   _    _      __       _____    __    __             
                 |  |  |  | |  | |    /  \     |  _  \  |  |  /  |          
                  \  \/   | |  | |   /    \    | | | |  |  | /  /          
                 / \  \   | |__| |  /  /\  \   | |_| |  |  |/  /          
                |  |  |   |  __  | /  /__\  \  |    /   |      \           
                |  |  |   | |  | | |   __   |  |    \   |  |\   \          
                \     /   | |  | | |  |  |  |  | |\  \  |  | \   \       
                 \___/    |_|  |_| |__|  |__|  |_| \__\ |__|  \__/        
                                                                              
                      - O R C A' S   B I G   F R I E N D -                    
                                      &                                       
                       - I N T E G R A L  F E E D E R -                       
                                                                              
 v1 FN, 2020, v2 2021, v3 2022-2024                                           
------------------------------------------------------------------------------


----------------------
SHARK INTEGRAL PACKAGE
----------------------

Number of atoms                             ...     14
Number of basis functions                   ...    164
Number of shells                            ...     80
Maximum angular momentum                    ...      2
Integral batch strategy                     ... SHARK/LIBINT Hybrid
RI-J (if used) integral strategy            ... SPLIT-RIJ (Revised 2003 algorithm where possible)
Printlevel                                  ...      1
Contraction scheme used                     ... SEGMENTED contraction
Prescreening option                         ... SCHWARTZ
   Thresh                                   ... 1.000e-10
   Tcut                                     ... 1.000e-11
   Tpresel                                  ... 1.000e-11 
Coulomb Range Separation                    ... NOT USED
Exchange Range Separation                   ... NOT USED
Multipole approximations                    ... NOT USED
Finite Nucleus Model                        ... NOT USED
CABS basis                                  ... NOT available
Auxiliary Coulomb fitting basis             ... AVAILABLE
   # of basis functions in Aux-J            ...    382
   # of shells in Aux-J                     ...    130
   Maximum angular momentum in Aux-J        ...      4
Auxiliary J/K fitting basis                 ... NOT available
Auxiliary Correlation fitting basis         ... NOT available
Auxiliary 'external' fitting basis          ... NOT available

Checking pre-screening integrals            ... done (  0.0 sec) Dimension = 80
Check shell pair data                       ... done (  0.0 sec)
Shell pair information
Shell pair cut-off parameter TPreSel        ...   1.0e-11
Total number of shell pairs                 ...      3240
Shell pairs after pre-screening             ...      2981
Total number of primitive shell pairs       ...     11481
Primitive shell pairs kept                  ...      7803
          la=0 lb=0:    976 shell pairs
          la=1 lb=0:   1097 shell pairs
          la=1 lb=1:    324 shell pairs
          la=2 lb=0:    350 shell pairs
          la=2 lb=1:    198 shell pairs
          la=2 lb=2:     36 shell pairs

Calculating one electron integrals          ... done (  0.0 sec)
Calculating RI/J V-Matrix + Cholesky decomp.... done (  0.0 sec)
Calculating Nuclear repulsion               ... done (  0.0 sec) ENN=    246.433496976465 Eh

Diagonalization of the overlap matrix:
Smallest eigenvalue                        ... 2.688e-04
Time for diagonalization                   ...    0.011 sec
Threshold for overlap eigenvalues          ... 1.000e-07
Number of eigenvalues below threshold      ... 0
Time for construction of square roots      ...    0.004 sec
Total time needed                          ...    0.016 sec

-------------------
DFT GRID GENERATION
-------------------

General Integration Accuracy     IntAcc      ... 4.388
Radial Grid Type                 RadialGrid  ... OptM3 with GC (2021)
Angular Grid (max. ang.)         AngularGrid ... 4 (Lebedev-302)
Angular grid pruning method      GridPruning ... 4 (adaptive)
Weight generation scheme         WeightScheme... mBecke (2022)
Basis function cutoff            BFCut       ... 1.0000e-10
Integration weight cutoff        WCut        ... 1.0000e-14
Partially contracted basis set               ... off
Rotationally invariant grid construction     ... off
Angular grids for H and He will be reduced by one unit
Diffuse basis detected: some atoms will have their outermost
                        angular grid increased by 1.

Total number of grid points                  ...    62803
Total number of batches                      ...      986
Average number of points per batch           ...       63
Average number of grid points per atom       ...     4486
Initializing property integral containers    ... done (  0.0 sec)

SHARK setup successfully completed in   0.7 seconds

Maximum memory used throughout the entire STARTUP-calculation: 28.4 MB
-------------------------------------------------------------------------------
                                 ORCA GUESS
                   Start orbitals & Density for SCF / CASSCF
-------------------------------------------------------------------------------

------------
SCF SETTINGS
------------
Hamiltonian:
 Density Functional     Method          .... DFT(GTOs)
  Functional kind                       .... Exchange
  Functional name                       .... Re-regularized SCAN exchange by Furness et al
  Functional family                     .... MGGA
  Functional refs                              
    [ 0] J. W. Furness, A. D. Kaplan, J. Ning, J. P. Perdew, and J. Sun.,  J. Phys. Chem. Lett. 11, 8208-8215 (2020), doi: 10.1021/acs.jpclett.0c02405
    [ 1] J. W. Furness, A. D. Kaplan, J. Ning, J. P. Perdew, and J. Sun.,  J. Phys. Chem. Lett. 11, 9248-9248 (2020), doi: 10.1021/acs.jpclett.0c03077
  Functional external parameters        .... 6
    Parameter  0 _c1        =  6.670000e-01 : c1 parameter        
    Parameter  1 _c2        =  8.000000e-01 : c2 parameter        
    Parameter  2 _d         =  1.240000e+00 : d parameter         
    Parameter  3 _k1        =  6.500000e-02 : k1 parameter        
    Parameter  4 _eta       =  1.000000e-03 : eta parameter       
    Parameter  5 _dp2       =  3.610000e-01 : dp2 parameter       
  Functional kind                       .... Correlation
  Functional name                       .... Re-regularized SCAN correlation by Furness et al
  Functional family                     .... MGGA
  Functional refs                              
    [ 0] J. W. Furness, A. D. Kaplan, J. Ning, J. P. Perdew, and J. Sun.,  J. Phys. Chem. Lett. 11, 8208-8215 (2020), doi: 10.1021/acs.jpclett.0c02405
    [ 1] J. W. Furness, A. D. Kaplan, J. Ning, J. P. Perdew, and J. Sun.,  J. Phys. Chem. Lett. 11, 9248-9248 (2020), doi: 10.1021/acs.jpclett.0c03077
  Functional external parameters        .... 1
    Parameter  0 _eta       =  1.000000e-03 : Regularization parameter
 Gradients option       PostSCFGGA      .... off
 RI-approximation to the Coulomb term is turned on
   Number of AuxJ basis functions       .... 382


General Settings:
 Integral files         IntName         .... sp
 Hartree-Fock type      HFTyp           .... RHF
 Total Charge           Charge          ....    0
 Multiplicity           Mult            ....    1
 Number of Electrons    NEL             ....   48
 Basis Dimension        Dim             ....  164
 Nuclear Repulsion      ENuc            ....    246.4334969765 Eh

Convergence Acceleration:
 AO-DIIS                CNVDIIS         .... on
   Start iteration      DIISMaxIt       ....    12
   Startup error        DIISStart       ....  0.200000
   # of expansion vecs  DIISMaxEq       ....     5
   Bias factor          DIISBfac        ....   1.050
   Max. coefficient     DIISMaxC        ....  10.000
 MO-DIIS                CNVKDIIS        .... off
 Trust-Rad. Augm. Hess. CNVTRAH         .... auto
   Auto Start mean grad. ratio tolernc. ....  1.125000
   Auto Start start iteration           ....     1
   Auto Start num. interpolation iter.  ....    10
   Max. Number of Micro iterations      ....    24
   Max. Number of Macro iterations      .... Maxiter - #DIIS iter
   Number of Davidson start vectors     ....     2
   Converg. threshold    (grad. norm)   ....   3.330e-04
   Grad. Scal. Fac. for Micro threshold ....   0.100
   Minimum threshold for Micro iter.    ....   1.000e-02
   NR start threshold (gradient norm)   ....   1.000e-04
   Initial trust radius                 ....   0.400
   Minimum AH scaling param. (alpha)    ....   1.000
   Maximum AH scaling param. (alpha)    .... 1000.000
   Quad. conv. algorithm                .... NR
   White noise on init. David. guess    .... on
   Maximum white noise                  ....   0.010
   Pseudo random numbers                .... off
   Inactive MOs                         .... canonical
   Orbital update algorithm             .... Taylor
   Preconditioner                       .... Diag
   Full preconditioner red. dimension   ....   250
   COSX micro iterations for RIJONX calc.... off
 SOSCF                  CNVSOSCF        .... on
   Start iteration      SOSCFMaxIt      ....   150
   Startup grad/error   SOSCFStart      ....  0.003300
   Hessian update       SOSCFHessUp     .... L-BFGS
 Level Shifting         CNVShift        .... on
   Level shift para.    LevelShift      ....    0.2500
   Turn off err/grad.   ShiftErr        ....    0.0010
 Zerner damping         CNVZerner       .... off
 Static damping         CNVDamp         .... on
   Fraction old density DampFac         ....    0.7000
   Max. Damping (<1)    DampMax         ....    0.9800
   Min. Damping (>=0)   DampMin         ....    0.0000
   Turn off err/grad.   DampErr         ....    0.1000

SCF Procedure:
 Maximum # iterations   MaxIter         ....   125
 SCF integral mode      SCFMode         .... Direct
   Integral package                     .... SHARK and LIBINT hybrid scheme
 Reset frequency        DirectResetFreq ....    20
 Integral Threshold     Thresh          ....  1.000e-10 Eh
 Primitive CutOff       TCut            ....  1.000e-11 Eh

Convergence Tolerance:
 Convergence Check Mode ConvCheckMode   .... Total+1el-Energy
 Convergence forced     ConvForced      .... 0
 Energy Change          TolE            ....  1.000e-06 Eh
 1-El. energy change                    ....  1.000e-03 Eh
 Orbital Gradient       TolG            ....  3.330e-04
 Orbital Rotation angle TolX            ....  3.330e-04
 DIIS Error             TolErr          ....  1.000e-06

---------------------
INITIAL GUESS: MOREAD
---------------------
Guess MOs are being read from file: sp.ges
Input Geometry matches current geometry (good)
Atom 0: N(Shells)= 9 and 6 - projection required
Input basis set needs projection
NBasis(read)= 100
NBasis(calc)= 164
Basis set overlap was calculated
Using GuessMode=FMatrix for the initial guess
C*T matrix was formed
Effective Fockian was calculated
Effective Fockian was diagonalized
Initial density was built
                      ------------------
                      INITIAL GUESS DONE (   0.0 sec)
                      ------------------
             **** ENERGY FILE WAS UPDATED (sp.en.tmp) ****
Finished Guess after   0.1 sec
Maximum memory used throughout the entire GUESS-calculation: 11.5 MB

-------------------------------------------------------------------------------------------
                                      ORCA LEAN-SCF
                              memory conserving SCF solver
-------------------------------------------------------------------------------------------

----------------------------------------D-I-I-S--------------------------------------------
Iteration    Energy (Eh)           Delta-E    RMSDP     MaxDP     DIISErr   Damp  Time(sec)
-------------------------------------------------------------------------------------------
               ***  Starting incremental Fock matrix formation  ***
    1    -307.4831123400164756     0.00e+00  3.58e-03  1.18e-01  6.25e-01  0.700   1.2
    2    -307.5289377465315397    -4.58e-02  2.95e-03  8.82e-02  4.39e-01  0.700   1.1
    3    -307.5613184515737544    -3.24e-02  2.17e-03  6.26e-02  3.08e-01  0.700   1.0
    4    -307.5840500598117728    -2.27e-02  1.56e-03  4.42e-02  2.16e-01  0.700   1.2
                               ***Turning on AO-DIIS***
    5    -307.5999932393889935    -1.59e-02  1.13e-03  3.17e-02  1.51e-01  0.700   1.2
    6    -307.6111675563586800    -1.12e-02  8.00e-04  2.24e-02  1.06e-01  0.700   1.1
    7    -307.6190005065025730    -7.83e-03  5.64e-04  1.57e-02  7.40e-02  0.700   1.1
    8    -307.6244880458856983    -5.49e-03  1.32e-03  3.67e-02  5.18e-02  0.000   1.0
                              *** Initializing SOSCF ***
---------------------------------------S-O-S-C-F--------------------------------------
Iteration    Energy (Eh)           Delta-E    RMSDP     MaxDP     MaxGrad    Time(sec)
--------------------------------------------------------------------------------------
    9    -307.6373078632855709    -1.28e-02  8.07e-06  2.87e-04  7.29e-05     1.2
                  *** Gradient check signals convergence ***

               *****************************************************
               *                     SUCCESS                       *
               *           SCF CONVERGED AFTER   9 CYCLES          *
               *****************************************************

             **** ENERGY FILE WAS UPDATED (sp.en.tmp) ****

----------------
TOTAL SCF ENERGY
----------------

Total Energy       :       -307.63730786328557 Eh           -8371.23673 eV

Components:
Nuclear Repulsion  :        246.43349697646528 Eh            6705.79637 eV
Electronic Energy  :       -554.07080483975096 Eh          -15077.03310 eV
One Electron Energy:       -906.31988552572329 Eh          -24662.21789 eV
Two Electron Energy:        352.24908068597239 Eh            9585.18479 eV

Virial components:
Potential Energy   :       -614.07868009737194 Eh          -16709.93040 eV
Kinetic Energy     :        306.44137223408637 Eh            8338.69367 eV
Virial Ratio       :          2.00390265720480

DFT components:
N(Alpha)           :       24.000012272883 electrons
N(Beta)            :       24.000012272883 electrons
N(Total)           :       48.000024545766 electrons
E(X)               :      -40.238062252397 Eh       
E(C)               :       -1.539031255335 Eh       
E(XC)              :      -41.777093507733 Eh       

---------------
SCF CONVERGENCE
---------------

  Last Energy change         ...    1.2820e-02  Tolerance :   1.0000e-06
  Last MAX-Density change    ...    2.8719e-04  Tolerance :   1.0000e-05
  Last RMS-Density change    ...    8.0749e-06  Tolerance :   1.0000e-06
  Last DIIS Error            ...    7.2892e-05  Tolerance :   1.0000e-06
  Last Orbital Gradient      ...    7.2892e-05  Tolerance :   3.3300e-04
  Last Orbital Rotation      ...    7.2892e-05  Tolerance :   3.3300e-04


----------------
ORBITAL ENERGIES
----------------

  NO   OCC          E(Eh)            E(eV) 
   0   2.0000     -18.999606      -517.0056 
   1   2.0000     -18.932291      -515.1738 
   2   2.0000     -10.153976      -276.3037 
   3   2.0000     -10.083258      -274.3794 
   4   2.0000     -10.044697      -273.3301 
   5   2.0000     -10.029578      -272.9187 
   6   2.0000      -1.073610       -29.2144 
   7   2.0000      -0.983910       -26.7735 
   8   2.0000      -0.759586       -20.6694 
   9   2.0000      -0.695482       -18.9250 
  10   2.0000      -0.610522       -16.6131 
  11   2.0000      -0.531993       -14.4763 
  12   2.0000      -0.471863       -12.8400 
  13   2.0000      -0.454515       -12.3680 
  14   2.0000      -0.446736       -12.1563 
  15   2.0000      -0.414615       -11.2823 
  16   2.0000      -0.401393       -10.9225 
  17   2.0000      -0.376485       -10.2447 
  18   2.0000      -0.346076        -9.4172 
  19   2.0000      -0.336633        -9.1602 
  20   2.0000      -0.323946        -8.8150 
  21   2.0000      -0.314937        -8.5699 
  22   2.0000      -0.273802        -7.4505 
  23   2.0000      -0.241887        -6.5821 
  24   0.0000      -0.015555        -0.4233 
  25   0.0000       0.068632         1.8676 
  26   0.0000       0.099266         2.7012 
  27   0.0000       0.121221         3.2986 
  28   0.0000       0.130428         3.5491 
  29   0.0000       0.144652         3.9362 
  30   0.0000       0.159681         4.3451 
  31   0.0000       0.168837         4.5943 
  32   0.0000       0.172242         4.6869 
  33   0.0000       0.180361         4.9079 
  34   0.0000       0.184366         5.0169 
*Only the first 10 virtual orbitals were printed.

                    ********************************
                    * MULLIKEN POPULATION ANALYSIS *
                    ********************************

-----------------------
MULLIKEN ATOMIC CHARGES
-----------------------
   0 C :   -0.462680
   1 C :   -0.291445
   2 C :    0.419146
   3 O :   -0.433279
   4 O :   -0.192391
   5 C :   -0.307038
   6 H :    0.170381
   7 H :    0.151026
   8 H :    0.145481
   9 H :    0.160138
  10 H :    0.160612
  11 H :    0.147589
  12 H :    0.146595
  13 H :    0.185866
Sum of atomic charges:    0.0000000

--------------------------------
MULLIKEN REDUCED ORBITAL CHARGES
--------------------------------
  0 C s       :     3.319893  s :     3.319893
      pz      :     1.003054  p :     3.116016
      px      :     1.014306
      py      :     1.098655
      dz2     :     0.007827  d :     0.026771
      dxz     :     0.005615
      dyz     :     0.002539
      dx2y2   :     0.006557
      dxy     :     0.004232

  1 C s       :     3.213535  s :     3.213535
      pz      :     1.035661  p :     3.043113
      px      :     0.959806
      py      :     1.047647
      dz2     :     0.009277  d :     0.034797
      dxz     :     0.006298
      dyz     :     0.003404
      dx2y2   :     0.007832
      dxy     :     0.007986

  2 C s       :     3.129176  s :     3.129176
      pz      :     0.755070  p :     2.326276
      px      :     0.810976
      py      :     0.760230
      dz2     :     0.007251  d :     0.125402
      dxz     :     0.009463
      dyz     :     0.027447
      dx2y2   :     0.028053
      dxy     :     0.053188

  3 O s       :     3.838659  s :     3.838659
      pz      :     1.472586  p :     4.572347
      px      :     1.787864
      py      :     1.311897
      dz2     :     0.003459  d :     0.022272
      dxz     :     0.001442
      dyz     :     0.008972
      dx2y2   :     0.008479
      dxy     :    -0.000080

  4 O s       :     3.704850  s :     3.704850
      pz      :     1.709558  p :     4.465895
      px      :     1.137929
      py      :     1.618408
      dz2     :     0.004566  d :     0.021646
      dxz     :     0.004929
      dyz     :     0.004143
      dx2y2   :     0.005765
      dxy     :     0.002242

  5 C s       :     3.318892  s :     3.318892
      pz      :     1.085485  p :     2.944548
      px      :     0.777529
      py      :     1.081533
      dz2     :     0.006417  d :     0.043598
      dxz     :     0.012931
      dyz     :     0.003655
      dx2y2   :     0.011980
      dxy     :     0.008615

  6 H s       :     0.811422  s :     0.811422
      pz      :     0.003528  p :     0.018197
      px      :     0.003587
      py      :     0.011082

  7 H s       :     0.830673  s :     0.830673
      pz      :     0.003839  p :     0.018301
      px      :     0.009386
      py      :     0.005076

  8 H s       :     0.836306  s :     0.836306
      pz      :     0.009839  p :     0.018213
      px      :     0.004129
      py      :     0.004245

  9 H s       :     0.821841  s :     0.821841
      pz      :     0.009868  p :     0.018021
      px      :     0.004327
      py      :     0.003826

 10 H s       :     0.821596  s :     0.821596
      pz      :     0.003330  p :     0.017792
      px      :     0.003494
      py      :     0.010968

 11 H s       :     0.834754  s :     0.834754
      pz      :     0.008122  p :     0.017657
      px      :     0.005796
      py      :     0.003740

 12 H s       :     0.835706  s :     0.835706
      pz      :     0.009127  p :     0.017699
      px      :     0.003651
      py      :     0.004920

 13 H s       :     0.795461  s :     0.795461
      pz      :     0.003629  p :     0.018673
      px      :     0.002829
      py      :     0.012216


------------------------
MULLIKEN OVERLAP CHARGES
------------------------
B(  0-C ,  1-C ) :   0.4733 B(  0-C ,  2-C ) :  -0.1196 B(  0-C ,  6-H ) :   0.8465 
B(  0-C ,  7-H ) :   0.8208 B(  0-C ,  8-H ) :   0.8250 B(  0-C ,  9-H ) :  -0.0642 
B(  1-C ,  2-C ) :   0.5427 B(  1-C ,  3-O ) :  -0.1401 B(  1-C ,  4-O ) :  -0.0941 
B(  1-C ,  6-H ) :  -0.0634 B(  1-C ,  7-H ) :  -0.0990 B(  1-C ,  8-H ) :  -0.0725 
B(  1-C ,  9-H ) :   0.8262 B(  1-C , 10-H ) :   0.8575 B(  2-C ,  3-O ) :   0.9716 
B(  2-C ,  4-O ) :   0.3791 B(  2-C ,  5-C ) :  -0.2342 B(  2-C , 10-H ) :  -0.1344 
B(  2-C , 13-H ) :  -0.0533 B(  3-O ,  4-O ) :  -0.2206 B(  4-O ,  5-C ) :   0.3606 
B(  4-O , 11-H ) :  -0.0753 B(  4-O , 12-H ) :  -0.0821 B(  4-O , 13-H ) :  -0.0604 
B(  5-C , 11-H ) :   0.7928 B(  5-C , 12-H ) :   0.7924 B(  5-C , 13-H ) :   0.8516 



                     *******************************
                     * LOEWDIN POPULATION ANALYSIS *
                     *******************************

----------------------
LOEWDIN ATOMIC CHARGES
----------------------
   0 C :   -0.394207
   1 C :   -0.237280
   2 C :    0.357093
   3 O :   -0.430345
   4 O :   -0.606151
   5 C :   -0.049572
   6 H :    0.164136
   7 H :    0.152403
   8 H :    0.154834
   9 H :    0.176748
  10 H :    0.174285
  11 H :    0.171775
  12 H :    0.173263
  13 H :    0.193017

-------------------------------
LOEWDIN REDUCED ORBITAL CHARGES
-------------------------------
  0 C s       :     2.969382  s :     2.969382
      pz      :     1.108597  p :     3.362070
      px      :     1.095099
      py      :     1.158374
      dz2     :     0.018217  d :     0.062755
      dxz     :     0.013360
      dyz     :     0.005597
      dx2y2   :     0.015764
      dxy     :     0.009818

  1 C s       :     2.927241  s :     2.927241
      pz      :     1.109850  p :     3.236358
      px      :     1.026097
      py      :     1.100411
      dz2     :     0.019696  d :     0.073681
      dxz     :     0.014178
      dyz     :     0.006156
      dx2y2   :     0.017860
      dxy     :     0.015792

  2 C s       :     2.738920  s :     2.738920
      pz      :     0.718020  p :     2.631157
      px      :     0.925123
      py      :     0.988013
      dz2     :     0.019059  d :     0.272831
      dxz     :     0.016849
      dyz     :     0.052199
      dx2y2   :     0.065347
      dxy     :     0.119376

  3 O s       :     3.541666  s :     3.541666
      pz      :     1.453029  p :     4.665116
      px      :     1.725246
      py      :     1.486842
      dz2     :     0.027580  d :     0.223563
      dxz     :     0.010896
      dyz     :     0.044837
      dx2y2   :     0.069085
      dxy     :     0.071165

  4 O s       :     3.473481  s :     3.473481
      pz      :     1.693341  p :     4.667529
      px      :     1.339303
      py      :     1.634884
      dz2     :     0.053349  d :     0.465140
      dxz     :     0.108844
      dyz     :     0.037691
      dx2y2   :     0.140187
      dxy     :     0.125070

  5 C s       :     2.903664  s :     2.903664
      pz      :     1.096493  p :     3.040694
      px      :     0.861697
      py      :     1.082504
      dz2     :     0.015442  d :     0.105214
      dxz     :     0.031867
      dyz     :     0.008005
      dx2y2   :     0.029746
      dxy     :     0.020155

  6 H s       :     0.791742  s :     0.791742
      pz      :     0.007752  p :     0.044123
      px      :     0.007878
      py      :     0.028493

  7 H s       :     0.804071  s :     0.804071
      pz      :     0.008594  p :     0.043526
      px      :     0.022942
      py      :     0.011990

  8 H s       :     0.801815  s :     0.801815
      pz      :     0.024199  p :     0.043351
      px      :     0.009478
      py      :     0.009673

  9 H s       :     0.779516  s :     0.779516
      pz      :     0.024306  p :     0.043735
      px      :     0.010399
      py      :     0.009030

 10 H s       :     0.781873  s :     0.781873
      pz      :     0.007884  p :     0.043842
      px      :     0.008211
      py      :     0.027747

 11 H s       :     0.787797  s :     0.787797
      pz      :     0.019723  p :     0.040428
      px      :     0.012076
      py      :     0.008630

 12 H s       :     0.786492  s :     0.786492
      pz      :     0.021150  p :     0.040245
      px      :     0.007050
      py      :     0.012044

 13 H s       :     0.761604  s :     0.761604
      pz      :     0.007948  p :     0.045379
      px      :     0.007155
      py      :     0.030277


---------------------------------
LOEWDIN BOND ORDERS (THRESH 0.050000)
---------------------------------
B(  0-C ,  1-C ) :   1.1203 B(  0-C ,  2-C ) :   0.0773 B(  0-C ,  6-H ) :   0.9210 
B(  0-C ,  7-H ) :   0.9278 B(  0-C ,  8-H ) :   0.9279 B(  1-C ,  2-C ) :   0.9212 
B(  1-C ,  3-O ) :   0.1813 B(  1-C ,  4-O ) :   0.1867 B(  1-C ,  9-H ) :   0.8719 
B(  1-C , 10-H ) :   0.8715 B(  2-C ,  3-O ) :   2.2016 B(  2-C ,  4-O ) :   1.4339 
B(  2-C ,  5-C ) :   0.0869 B(  3-O ,  4-O ) :   0.4589 B(  3-O ,  5-C ) :   0.0765 
B(  4-O ,  5-C ) :   1.3649 B(  4-O , 11-H ) :   0.1014 B(  4-O , 12-H ) :   0.1009 
B(  4-O , 13-H ) :   0.0956 B(  5-C , 11-H ) :   0.8653 B(  5-C , 12-H ) :   0.8662 
B(  5-C , 13-H ) :   0.8375 

------------------------------------------
LOEWDIN REDUCED ORBITAL POPULATIONS PER MO
-------------------------------------------
THRESHOLD FOR PRINTING IS 0.1%%
                      0         1         2         3         4         5   
                 -18.99961 -18.93229 -10.15398 -10.08326 -10.04470 -10.02958
                   2.00000   2.00000   2.00000   2.00000   2.00000   2.00000
                  --------  --------  --------  --------  --------  --------
 0 C  s               0.0       0.0       0.0       0.0       0.0      99.7
 1 C  s               0.0       0.0       0.0       0.0      99.7       0.0
 2 C  s               0.0       0.0      98.9       0.0       0.0       0.0
 3 O  s               0.0      99.9       0.0       0.0       0.0       0.0
 3 O  py              0.0       0.0       0.2       0.0       0.0       0.0
 3 O  dx2y2           0.0       0.0       0.2       0.0       0.0       0.0
 4 O  s              99.9       0.0       0.0       0.0       0.0       0.0
 4 O  dxy             0.0       0.0       0.2       0.1       0.0       0.0
 5 C  s               0.0       0.0       0.0      99.4       0.0       0.0

                      6         7         8         9        10        11   
                  -1.07361  -0.98391  -0.75959  -0.69548  -0.61052  -0.53199
                   2.00000   2.00000   2.00000   2.00000   2.00000   2.00000
                  --------  --------  --------  --------  --------  --------
 0 C  s               0.1       0.0      17.0      10.7      18.9       0.8
 0 C  pz              0.1       0.0       1.3       0.1       2.5       1.9
 0 C  px              0.2       0.1       1.6       0.0       2.8       0.2
 0 C  py              0.0       0.0       0.2       0.0       0.2       0.2
 1 C  s               1.0       0.2      27.8       2.1       8.8       2.7
 1 C  pz              0.1       0.0       0.9       0.4       4.4       2.2
 1 C  px              1.6       0.0       0.1       4.1       5.5       1.3
 1 C  py              0.3       0.5       0.2       0.1       0.2       0.4
 1 C  dxz             0.0       0.0       0.0       0.1       0.1       0.0
 2 C  s              16.6       3.7       3.9       2.2       1.8       3.6
 2 C  pz              0.3       0.3       0.1       0.1       1.2       0.8
 2 C  px              4.4       1.7       6.7       1.4       4.9       2.2
 2 C  py              0.1      21.5       5.9       2.9       1.2       1.9
 2 C  dz2             0.5       0.1       0.0       0.0       0.0       0.0
 2 C  dx2y2           0.1       1.3       0.1       0.0       0.0       0.0
 2 C  dxy             0.3       0.5       0.0       0.2       0.2       0.0
 3 O  s              13.6      40.3       1.8       0.3       0.5       2.1
 3 O  pz              0.0       0.0       0.0       0.0       0.1       0.3
 3 O  px              0.0       0.1       0.2       0.0       0.3       0.9
 3 O  py              3.3       3.5       0.5       0.3       0.4       2.4
 3 O  dz2             0.4       0.0       0.2       0.0       0.1       0.1
 3 O  dx2y2           0.8       0.1       0.3       0.5       0.0       0.2
 3 O  dxy             0.2       0.2       0.5       0.0       0.3       0.1
 4 O  s              40.5      18.3       0.1       0.7       1.7       5.0
 4 O  pz              0.0       0.0       0.3       1.3       0.0       0.9
 4 O  px              0.2       0.7       6.4      21.0       0.0      16.8
 4 O  py              2.6       0.4       0.0       0.2       0.1       8.9
 4 O  dz2             0.4       0.1       0.0       0.2       0.3       0.3
 4 O  dxz             0.1       0.0       0.0       0.1       0.4       0.0
 4 O  dx2y2           0.0       0.4       0.3       0.6       1.4       0.1
 4 O  dxy             0.3       0.8       0.3       1.3       0.1       0.2
 5 C  s               4.5       2.1       3.6      23.7       5.7       5.0
 5 C  pz              0.2       0.1       0.0       0.0       0.1       0.4
 5 C  px              4.9       1.4       0.2       0.4       1.9       8.8
 5 C  py              0.3       0.7       0.1       0.1       0.2       9.5
 5 C  dx2y2           0.2       0.1       0.0       0.0       0.0       0.1
 5 C  dxy             0.1       0.1       0.0       0.0       0.0       0.5
 6 H  s               0.0       0.0       2.4       2.0       5.7       0.5
 6 H  py              0.0       0.0       0.2       0.2       0.5       0.0
 7 H  s               0.0       0.0       2.4       2.2       6.5       0.3
 7 H  px              0.0       0.0       0.2       0.1       0.3       0.0
 7 H  py              0.0       0.0       0.0       0.0       0.1       0.0
 8 H  s               0.0       0.0       2.4       2.0       6.1       0.9
 8 H  pz              0.0       0.0       0.2       0.1       0.4       0.0
 9 H  s               0.0       0.0       4.1       0.5       3.5       2.7
 9 H  pz              0.0       0.0       0.3       0.0       0.2       0.1
10 H  s               0.1       0.0       4.4       0.2       2.9       1.2
10 H  py              0.0       0.0       0.4       0.0       0.3       0.1
11 H  s               0.3       0.2       0.6       5.4       2.2       3.0
11 H  pz              0.0       0.0       0.0       0.3       0.1       0.1
11 H  px              0.0       0.0       0.0       0.2       0.0       0.0
12 H  s               0.3       0.2       0.6       5.8       2.2       2.0
12 H  pz              0.0       0.0       0.0       0.3       0.1       0.0
12 H  py              0.0       0.0       0.0       0.1       0.0       0.1
13 H  s               0.4       0.1       0.5       4.5       1.7       7.2
13 H  py              0.0       0.0       0.1       0.4       0.1       0.3

                     12        13        14        15        16        17   
                  -0.47186  -0.45451  -0.44674  -0.41462  -0.40139  -0.37649
                   2.00000   2.00000   2.00000   2.00000   2.00000   2.00000
                  --------  --------  --------  --------  --------  --------
 0 C  s               0.0       0.2       0.1       0.0       0.0       0.1
 0 C  pz              2.6       0.0       2.1       6.0       0.1      16.7
 0 C  px              1.5       1.7       0.3       8.4       8.3       0.2
 0 C  py              4.3       2.6       0.8       8.4       8.5       0.0
 0 C  dxz             0.0       0.0       0.0       0.0       0.1       0.1
 1 C  s               1.9       0.3       0.2       0.1       0.3       0.1
 1 C  pz              4.5       3.5       0.6      11.6       1.3       2.0
 1 C  px              7.0       0.1       2.0       1.5       0.1       8.8
 1 C  py             10.7       6.4       4.2       6.8       5.1       0.1
 1 C  dxy             0.2       0.0       0.0       0.0       0.0       0.1
 2 C  s               1.8       0.8       0.8       0.2       0.9       0.1
 2 C  pz              0.8      12.1       1.7       0.6       1.1      11.7
 2 C  px             12.8       0.0       0.1       0.2       1.5       0.6
 2 C  py              0.1       0.3       2.9       1.5       3.9       0.7
 2 C  dx2y2           0.0       0.1       0.4       0.0       0.2       0.0
 2 C  dxy             0.0       0.0       0.0       0.2       0.0       0.1
 3 O  s               1.1       2.8       8.1       1.4       3.6       0.2
 3 O  pz              0.1       4.9       1.5       0.6       1.2      13.0
 3 O  px              9.3       0.2       0.0       0.0       0.0       0.2
 3 O  py              2.1       6.4      16.2       5.5      21.0       1.0
 3 O  dz2             0.0       0.1       0.1       0.0       0.1       0.0
 3 O  dyz             0.0       0.8       0.2       0.0       0.1       0.6
 3 O  dx2y2           0.1       0.1       0.1       0.0       0.4       0.0
 3 O  dxy             1.2       0.0       0.0       0.0       0.0       0.0
 4 O  s               0.5       0.0       1.2       0.5       0.0       0.1
 4 O  pz              3.0      20.2       7.4       0.9       0.2       0.1
 4 O  px              0.2       3.2       3.3       5.4       0.3       2.0
 4 O  py              7.2       0.3      15.9       1.2       1.0       0.3
 4 O  dz2             0.0       0.0       0.0       0.3       0.1       0.2
 4 O  dxz             0.1       0.1       0.0       0.6       0.7       1.9
 4 O  dyz             0.0       0.6       0.1       0.0       0.1       0.0
 4 O  dx2y2           1.0       0.0       0.8       0.0       0.0       0.1
 4 O  dxy             0.8       0.1       0.1       0.0       0.6       0.4
 5 C  s               0.0       0.0       0.4       0.1       0.0       0.0
 5 C  pz              1.8      16.8       2.4       9.2       6.2       7.1
 5 C  px              0.4       0.3      11.1       1.2       2.1       6.7
 5 C  py              6.4       0.2       2.6       0.0       8.9       3.8
 5 C  dz2             0.0       0.0       0.1       0.0       0.1       0.1
 5 C  dxz             0.0       0.0       0.0       0.0       0.0       0.2
 6 H  s               1.1       1.4       0.1       4.3       2.2       0.0
 6 H  pz              0.0       0.0       0.0       0.0       0.0       0.1
 6 H  py              0.0       0.1       0.0       0.1       0.0       0.0
 7 H  s               1.2       0.2       0.3       1.4       6.3       0.0
 7 H  pz              0.0       0.0       0.0       0.0       0.0       0.1
 7 H  px              0.1       0.0       0.0       0.0       0.1       0.0
 7 H  py              0.0       0.0       0.0       0.1       0.0       0.0
 8 H  s               0.5       0.1       1.0       5.0       0.1       6.9
 8 H  pz              0.0       0.0       0.0       0.2       0.0       0.1
 9 H  s               3.5       0.8       1.5       5.9       0.0       0.0
 9 H  pz              0.1       0.0       0.1       0.1       0.0       0.0
 9 H  px              0.0       0.0       0.0       0.0       0.0       0.1
 9 H  py              0.1       0.0       0.0       0.0       0.0       0.0
10 H  s               4.9       3.2       1.5       3.7       1.2       0.2
10 H  px              0.1       0.0       0.0       0.0       0.0       0.0
10 H  py              0.2       0.1       0.0       0.1       0.0       0.0
11 H  s               0.0       4.1       5.7       1.0       0.1       8.8
11 H  pz              0.0       0.0       0.2       0.0       0.0       0.1
11 H  px              0.0       0.1       0.0       0.1       0.0       0.0
12 H  s               2.1       3.2       0.5       4.2       7.4       0.1
12 H  pz              0.1       0.0       0.1       0.0       0.1       0.0
13 H  s               1.9       0.6       0.7       0.2       3.3       3.0
13 H  py              0.0       0.0       0.1       0.0       0.1       0.1

                     18        19        20        21        22        23   
                  -0.34608  -0.33663  -0.32395  -0.31494  -0.27380  -0.24189
                   2.00000   2.00000   2.00000   2.00000   2.00000   2.00000
                  --------  --------  --------  --------  --------  --------
 0 C  s               0.0       0.5       0.1       0.0       0.0       0.0
 0 C  pz              1.9       8.1      11.0       0.9       0.0       0.0
 0 C  px             17.9       6.7       0.1       4.4       0.0       0.5
 0 C  py              9.0      13.5       9.6       0.3       0.2       0.0
 0 C  dz2             0.1       0.0       0.4       0.2       0.0       0.0
 0 C  dxz             0.0       0.1       0.1       0.0       0.0       0.0
 0 C  dx2y2           0.2       0.3       0.1       0.0       0.0       0.1
 0 C  dxy             0.3       0.0       0.1       0.0       0.0       0.0
 1 C  s               0.2       0.3       0.0       0.1       0.0       0.6
 1 C  pz              0.2      11.2      11.1       1.3       0.1       0.1
 1 C  px              3.3       5.3       0.4       5.8       0.0       4.2
 1 C  py              0.5       9.1       6.5       0.4       0.1       3.5
 1 C  dz2             0.2       0.0       0.5       0.2       0.0       0.0
 1 C  dxz             0.0       0.3       0.1       0.0       0.0       0.0
 1 C  dx2y2           0.1       0.3       0.1       0.0       0.0       0.1
 1 C  dxy             0.2       0.0       0.1       0.0       0.0       0.0
 2 C  s               0.4       0.0       0.0       0.7       0.0       0.4
 2 C  pz              0.2       3.1       1.5       0.0       0.3       0.0
 2 C  px              7.9       0.1       0.2       0.2       0.0       1.3
 2 C  py              0.2       0.7       0.8       4.0       0.0       0.7
 2 C  dz2             0.0       0.0       0.0       0.0       0.1       0.0
 2 C  dxz             0.0       0.1       0.2       0.0       0.2       0.0
 2 C  dyz             0.0       0.3       0.0       0.0       1.8       0.2
 2 C  dx2y2           0.0       0.2       0.1       0.6       0.0       0.1
 2 C  dxy             0.0       0.0       0.1       0.1       0.1       4.0
 3 O  s               0.0       0.2       0.2       0.9       0.0       0.0
 3 O  pz              0.6      11.3       3.2       0.0      32.2       3.6
 3 O  px              6.9       0.3       0.2       0.0       1.3      66.1
 3 O  py              0.3       1.1       2.7       7.1       0.1       0.2
 3 O  dyz             0.0       0.1       0.0       0.0       0.1       0.0
 3 O  dx2y2           0.0       0.0       0.2       0.5       0.0       0.0
 3 O  dxy             0.3       0.0       0.0       0.0       0.0       0.6
 4 O  s               0.3       0.0       0.1       4.3       0.0       0.4
 4 O  pz              1.3       2.3       2.1       0.0      44.0       0.5
 4 O  px              0.2       0.1       0.4       2.8       2.6       1.3
 4 O  py              2.0       0.3       3.6      31.4       0.2       6.2
 4 O  dz2             0.1       0.2       0.0       0.1       0.0       0.3
 4 O  dxz             0.1       0.2       0.3       0.3       0.4       0.0
 4 O  dyz             0.1       0.2       0.0       0.0       0.4       0.0
 4 O  dx2y2           0.0       0.0       0.1       1.9       0.0       0.1
 4 O  dxy             0.2       0.1       0.3       0.3       0.1       0.3
 5 C  s               0.0       0.0       0.0       0.3       0.0       0.2
 5 C  pz              1.8       2.3       1.1       0.0       5.0       0.2
 5 C  px              1.4       0.0       0.5       1.1       0.3       0.6
 5 C  py              7.8       0.0       1.8      11.2       0.0       0.6
 5 C  dxz             0.1       0.1       0.1       0.0       0.9       0.0
 5 C  dx2y2           0.1       0.0       0.1       0.5       0.1       0.1
 6 H  s               3.4       8.6       7.2       0.4       0.2       0.1
 6 H  px              0.2       0.0       0.0       0.0       0.0       0.0
 7 H  s              16.4       0.0       0.1       2.2       0.1       0.6
 7 H  pz              0.0       0.1       0.1       0.0       0.0       0.0
 7 H  px              0.2       0.1       0.0       0.0       0.0       0.0
 7 H  py              0.0       0.1       0.1       0.0       0.0       0.0
 8 H  s               2.0       0.2      10.5       2.3       0.0       0.1
 8 H  py              0.1       0.1       0.0       0.0       0.0       0.0
 9 H  s               1.1       1.2      11.2       2.8       0.0       0.0
 9 H  py              0.0       0.1       0.0       0.0       0.0       0.0
10 H  s               0.4       7.1       6.1       0.6       0.1       1.4
10 H  pz              0.0       0.1       0.1       0.0       0.0       0.0
10 H  px              0.0       0.0       0.0       0.0       0.0       0.1
11 H  s               0.0       1.0       1.8       0.0       5.2       0.0
11 H  py              0.1       0.0       0.0       0.1       0.0       0.0
12 H  s               4.9       1.4       0.0       1.3       3.0       0.0
13 H  s               4.1       0.0       1.7       7.8       0.4       0.1

                     24        25        26        27        28        29   
                  -0.01556   0.06863   0.09927   0.12122   0.13043   0.14465
                   0.00000   0.00000   0.00000   0.00000   0.00000   0.00000
                  --------  --------  --------  --------  --------  --------
 0 C  s               2.0       3.2       5.3      23.7       6.8       0.1
 0 C  pz              0.8       1.5       0.1       0.4      10.4       1.7
 0 C  px              1.0       2.8       0.5       5.7      11.5       1.1
 0 C  py              0.5       0.1       0.1       0.7       0.6       5.3
 0 C  dz2             0.0       0.0       0.1       0.0       0.5       0.0
 0 C  dxz             0.0       0.4       0.0       0.0       0.9       0.0
 0 C  dyz             0.0       0.0       0.0       0.1       0.0       0.9
 0 C  dx2y2           0.1       0.0       0.0       0.1       0.0       0.1
 0 C  dxy             0.0       0.0       0.1       0.0       0.4       0.0
 1 C  s               0.1       9.3       2.7       3.7      11.3       2.7
 1 C  pz              0.1       0.8       0.2       1.3      11.9       1.5
 1 C  px              0.7       0.7       0.2       6.2       3.7       5.7
 1 C  py              0.0       0.5       0.6       1.0       2.2      12.3
 1 C  dz2             0.1       0.0       0.0       0.1       0.6       0.0
 1 C  dxz             1.8       0.0       0.0       0.2       0.2       0.0
 1 C  dyz             0.0       0.0       0.0       0.1       0.2       0.2
 1 C  dx2y2           0.1       0.1       0.3       0.1       0.0       1.8
 1 C  dxy             0.0       0.0       0.0       0.1       0.0       1.3
 2 C  s               0.0       8.6       4.8       0.3       0.7       4.7
 2 C  pz             37.2       0.1       0.2       2.2       2.7       2.2
 2 C  px              2.1       1.5       0.1       2.8       0.7       0.5
 2 C  py              0.1       0.4       2.6       0.5       0.2       3.7
 2 C  dz2             0.0       1.2       0.2       0.0       0.2       0.8
 2 C  dxz             0.3       0.3       0.0       0.0       0.0       0.3
 2 C  dyz             0.7       0.0       0.0       0.0       0.0       0.0
 2 C  dx2y2           0.0       0.1       1.0       0.0       0.0       0.1
 3 O  s               0.0       1.4       1.5       0.0       0.0       0.4
 3 O  pz             21.7       0.1       0.0       0.6       0.0       0.9
 3 O  px              1.2       0.6       0.2       1.7       0.3       0.1
 3 O  py              0.1       0.2       0.5       0.0       0.0       0.0
 3 O  dz2             0.0       1.2       0.5       0.1       0.4       1.1
 3 O  dxz             0.2       0.1       0.1       0.0       0.4       1.0
 3 O  dyz             5.9       0.0       0.1       0.5       0.2       0.0
 3 O  dx2y2           0.1       0.1       0.1       0.0       0.2       1.5
 3 O  dxy             0.3       0.3       0.2       0.0       0.0       0.0
 4 O  s               0.0       9.4       1.7       0.6       0.2       0.1
 4 O  pz              9.8       0.0       0.2       0.1       0.4       0.1
 4 O  px              0.5       1.7       4.7       0.1       1.4       1.4
 4 O  py              0.0       1.7       1.1       0.2       0.1       2.1
 4 O  dz2             1.1       1.6       3.0       0.7       0.0       0.4
 4 O  dxz             3.7       0.4       1.0       0.1       0.2       0.2
 4 O  dyz             0.8       0.0       0.1       0.3       0.5       0.0
 4 O  dx2y2           0.2       0.2       2.5       0.5       0.0       1.9
 4 O  dxy             0.1       0.0       1.5       0.5       0.0       5.6
 5 C  s               0.0       3.2      21.7      11.9       4.7       0.1
 5 C  pz              0.1       0.8       1.2       0.0       0.8       0.4
 5 C  px              0.0      26.6      16.4       3.3       3.8       0.7
 5 C  py              0.0       4.8       3.4       0.8       1.8       8.6
 5 C  dz2             0.0       0.7       0.1       0.1       0.3       0.1
 5 C  dxz             0.3       0.4       0.1       0.0       0.1       0.0
 5 C  dyz             0.0       0.0       0.0       0.0       0.0       0.2
 5 C  dx2y2           0.0       1.2       0.5       0.0       0.1       0.1
 5 C  dxy             0.0       0.9       0.3       0.1       0.3       0.3
 6 H  s               0.1       0.4       0.7       3.8       0.4       0.4
 6 H  pz              0.0       0.1       0.0       0.1       0.0       0.4
 6 H  px              0.0       0.1       0.0       0.0       0.5       0.0
 6 H  py              0.0       0.1       0.3       1.9       0.3       0.3
 7 H  s               0.6       0.6       1.7       2.1       1.5       0.1
 7 H  pz              0.0       0.3       0.1       0.2       0.2       0.1
 7 H  px              0.2       0.0       0.3       1.1       0.1       0.1
 7 H  py              0.0       0.1       0.2       0.6       0.1       0.0
 8 H  s               0.1       0.8       0.3       2.9       1.3       0.3
 8 H  pz              0.1       0.1       0.1       1.1       1.4       0.0
 8 H  px              0.0       0.3       0.1       0.2       0.2       0.0
 8 H  py              0.0       0.0       0.0       0.4       0.1       0.3
 9 H  s               2.7       1.2       0.3       0.7       1.7       0.5
 9 H  pz              0.1       0.6       0.1       0.1       2.5       0.0
 9 H  px              0.2       0.1       0.0       0.4       0.0       0.1
 9 H  py              0.0       0.0       0.1       0.2       0.0       1.6
10 H  s               0.0       0.5       1.5       1.2       0.2      11.5
10 H  pz              0.0       0.0       0.0       0.2       0.2       0.3
10 H  px              0.0       0.0       0.0       0.1       0.2       1.0
10 H  py              0.0       0.4       0.4       0.7       0.4       3.1
11 H  s               0.9       1.0       2.9       3.3       1.8       0.0
11 H  pz              0.0       0.7       0.4       1.2       0.7       0.1
11 H  px              0.0       0.3       1.3       0.2       0.0       0.0
11 H  py              0.0       0.2       0.0       0.1       0.1       0.0
12 H  s               0.4       0.5       2.3       2.7       2.1       2.8
12 H  pz              0.0       0.1       0.7       1.0       0.8       0.4
12 H  px              0.0       0.7       0.7       0.0       0.0       0.1
12 H  py              0.0       0.4       0.0       0.3       0.4       0.2
13 H  s               0.0       0.4       1.9       0.8       0.3       1.3
13 H  pz              0.0       0.0       0.1       0.0       0.0       0.2
13 H  px              0.0       0.9       0.1       0.1       0.2       0.1
13 H  py              0.0       0.0       1.1       0.3       0.1       0.4

                     30        31        32        33        34        35   
                   0.15968   0.16884   0.17224   0.18036   0.18437   0.19053
                   0.00000   0.00000   0.00000   0.00000   0.00000   0.00000
                  --------  --------  --------  --------  --------  --------
 0 C  s               0.2       1.1       0.1       0.5       0.2       0.1
 0 C  pz              4.2       4.0       8.8       1.6       4.3       5.3
 0 C  px              4.6       0.3       3.4      13.5       2.2       5.1
 0 C  py              7.3       3.8       0.8       3.6       0.5       0.2
 0 C  dz2             0.8       0.1       0.2       0.0       0.2       1.9
 0 C  dxz             0.3       0.6       0.6       0.1       0.2       0.4
 0 C  dyz             0.0       0.2       0.6       0.0       0.1       0.2
 0 C  dx2y2           0.2       0.3       0.4       0.8       0.0       0.3
 0 C  dxy             0.7       0.1       0.3       0.0       0.1       0.5
 1 C  s               0.3       0.1       1.5       0.0       0.3       1.0
 1 C  pz              8.3       1.2       1.9       5.7       0.3       0.1
 1 C  px              1.1       5.9       0.6       3.2       6.8       7.0
 1 C  py             11.0      13.2       1.5       1.9       3.4       0.7
 1 C  dz2             1.4       0.5       0.1       0.1       0.1       1.0
 1 C  dxz             0.2       0.0       0.0       0.0       0.1       0.3
 1 C  dyz             0.9       0.2       0.2       0.2       0.1       0.0
 1 C  dx2y2           0.1       0.2       0.1       0.2       0.3       0.5
 1 C  dxy             0.0       1.1       0.1       0.0       0.3       0.2
 2 C  s               0.1       1.8       1.4       0.6       0.5       1.7
 2 C  pz             10.6       2.1       3.6       1.6       3.6       2.8
 2 C  px              0.8       1.6       1.0       0.1       0.6       5.0
 2 C  py              0.9       5.9       0.5       5.6       0.5       2.2
 2 C  dz2             0.0       0.0       0.0       0.3       0.1       0.0
 2 C  dx2y2           0.1       0.4       0.1       0.3       0.2       0.2
 2 C  dxy             0.1       0.4       0.0       0.1       0.0       0.0
 3 O  s               0.2       0.9       0.0       2.0       0.6       0.2
 3 O  pz              1.5       0.0       0.4       0.3       0.2       1.5
 3 O  px              0.4       0.1       0.3       0.2       0.0       0.7
 3 O  py              0.9       0.2       0.3       0.8       0.5       0.4
 3 O  dz2             0.0       1.3       0.2       0.4       0.8       0.9
 3 O  dxz             0.1       0.0       4.1       0.2       0.5       1.2
 3 O  dyz             0.1       0.0       0.0       0.0       0.2       0.0
 3 O  dx2y2           0.7       0.5       0.0       0.2       0.0       0.1
 3 O  dxy             0.7       1.4       0.0       0.0       0.1       0.2
 4 O  s               0.0       0.1       0.3       0.1       0.0       0.0
 4 O  pz              0.4       0.3       0.3       0.1       0.3       0.7
 4 O  px              0.0       1.4       0.5       0.0       0.2       0.4
 4 O  py              0.1       0.0       0.9       0.5       0.1       0.1
 4 O  dz2             1.0       2.6       3.8       0.1       0.1       0.1
 4 O  dxz             0.0       0.6       0.0       0.8       0.1       0.0
 4 O  dyz             1.0       0.1       0.0       1.3       4.0       1.0
 4 O  dx2y2           0.1       0.2       0.1       0.0       0.1       0.4
 4 O  dxy             0.1       3.4       1.9       0.7       0.2       0.0
 5 C  s               0.3       0.1       0.2       0.5       0.3       0.1
 5 C  pz              3.9       5.9       9.1       7.2      25.7      14.5
 5 C  px              1.2       0.3       2.9       7.3       0.5       4.0
 5 C  py              0.3       5.0       8.2      10.5       3.9       2.9
 5 C  dz2             0.1       0.4       1.5       0.2       0.2       0.1
 5 C  dxz             0.1       0.0       0.0       0.5       0.8       0.2
 5 C  dyz             0.1       0.0       0.7       0.3       0.8       0.7
 5 C  dx2y2           0.2       0.9       0.7       0.0       0.0       0.0
 5 C  dxy             0.0       0.2       0.0       0.1       0.0       0.1
 6 H  s               4.7       1.0       0.3       2.5       0.3       0.4
 6 H  pz              0.0       0.4       0.9       0.0       0.1       0.4
 6 H  px              0.3       0.1       0.1       0.0       0.1       0.4
 6 H  py              1.4       0.0       0.0       0.3       0.0       0.1
 7 H  s               1.0       0.2       4.3       3.9       1.9       7.2
 7 H  pz              0.4       0.2       0.1       0.4       0.2       0.4
 7 H  px              0.0       0.0       0.8       1.7       0.2       1.3
 7 H  py              0.0       0.4       0.3       0.0       0.3       0.7
 8 H  s               3.2       5.2       4.5       0.4       0.8      11.3
 8 H  pz              1.2       0.7       0.3       0.0       0.3       1.9
 8 H  px              0.3       0.7       0.1       0.1       0.1       0.0
 8 H  py              0.1       0.1       0.7       0.4       0.1       0.2
 9 H  s               9.6       2.9       0.3       0.5       0.1       0.5
 9 H  pz              2.2       0.5       0.0       0.3       0.1       0.0
 9 H  px              0.1       0.0       0.1       0.4       0.1       0.9
 9 H  py              0.5       0.2       0.1       0.2       0.4       0.0
10 H  s               1.9       2.6       0.1       1.5       2.8       0.0
10 H  pz              1.0       0.2       0.1       0.1       0.0       0.0
10 H  px              0.0       0.8       0.1       0.0       0.1       0.1
10 H  py              1.2       1.4       0.0       0.2       0.3       0.0
11 H  s               1.1       1.5       1.5       4.7       3.3       1.0
11 H  pz              0.0       0.1       1.0       0.7       0.2       0.4
11 H  px              0.0       0.0       0.0       1.3       1.1       0.0
11 H  py              0.0       0.3       1.0       0.7       0.4       0.4
12 H  s               0.9       0.1       4.0       3.1      14.4       3.3
12 H  pz              0.0       0.4       0.6       0.3       3.6       0.2
12 H  px              0.1       0.0       0.1       0.1       0.9       0.0
12 H  py              0.3       0.6       0.3       0.0       1.2       0.0
13 H  s               0.8       7.2      11.5       1.0       0.5       0.9
13 H  pz              0.2       0.1       0.3       0.2       0.8       0.6
13 H  py              0.2       1.2       2.0       0.0       0.1       0.0

                     36        37        38        39        40        41   
                   0.19362   0.20510   0.21108   0.22717   0.24289   0.25186
                   0.00000   0.00000   0.00000   0.00000   0.00000   0.00000
                  --------  --------  --------  --------  --------  --------
 0 C  s               0.5       1.7       1.0       0.0       2.4       0.0
 0 C  pz              8.6       5.4      11.7       8.2       5.0       9.8
 0 C  px              0.8       5.8       5.3       0.1       8.3       4.9
 0 C  py              8.8       5.0       0.7      52.6       3.7       3.2
 0 C  dz2             0.5       0.4       0.1       0.4       0.0       0.1
 0 C  dxz             0.0       0.1       1.4       0.1       0.0       0.0
 0 C  dyz             0.0       0.0       0.2       0.0       0.3       0.0
 0 C  dx2y2           1.7       1.3       0.1       0.1       0.5       0.0
 0 C  dxy             0.0       0.0       0.9       0.0       0.1       0.6
 1 C  s               1.0       0.3       4.1       0.1       0.1       0.0
 1 C  pz              1.5       4.4      13.9       1.6       9.7      16.9
 1 C  px              6.4       2.2       2.3       0.4       5.3       5.9
 1 C  py              0.1       0.5       6.2       0.5       3.4      12.4
 1 C  dz2             0.0       0.1       0.0       0.6       0.1       0.5
 1 C  dxz             0.1       0.3       0.1       0.1       1.5       0.1
 1 C  dyz             0.2       0.0       0.0       0.1       0.5       0.1
 1 C  dx2y2           0.0       0.4       0.2       0.2       0.3       0.1
 1 C  dxy             0.4       0.1       0.4       0.1       0.2       0.1
 2 C  s               2.4       0.1       0.9       0.0       4.2       0.9
 2 C  pz              0.9       0.8       0.4       0.7       3.0       0.3
 2 C  px              1.8       0.1       1.0       1.5       0.1       1.1
 2 C  py              0.6       0.6       2.2       4.1       2.2       9.6
 2 C  dz2             0.3       0.0       0.1       0.0       0.6       0.6
 2 C  dxz             0.0       0.0       0.1       0.1       0.3       0.1
 2 C  dx2y2           0.1       0.0       0.0       0.4       0.6       0.0
 2 C  dxy             0.0       0.1       0.0       0.1       0.0       0.1
 3 O  s               0.3       0.1       0.4       0.8       1.3       0.3
 3 O  pz              0.1       0.4       0.1       0.1       1.1       0.1
 3 O  px              1.5       0.9       0.1       1.9       0.2       0.8
 3 O  py              0.2       0.3       1.0       1.0       0.9       1.3
 3 O  dz2             0.1       0.0       0.3       0.0       0.8       0.2
 3 O  dxz             0.6       1.2       0.7       0.0       0.1       0.7
 3 O  dyz             0.0       0.3       0.1       0.0       0.4       0.0
 3 O  dx2y2           0.0       0.0       1.9       0.1       1.0       2.2
 3 O  dxy             0.1       1.0       0.0       0.1       0.2       0.1
 4 O  s               0.3       0.0       0.1       0.5       0.2       1.8
 4 O  pz              2.1       0.1       0.0       0.1       0.6       0.2
 4 O  px              0.3       0.6       0.6       0.3       1.3       2.2
 4 O  py              0.4       0.0       0.0       0.2       0.3       1.9
 4 O  dz2             0.4       0.0       0.2       0.2       0.0       0.7
 4 O  dxz             0.0       0.0       0.2       0.3       1.3       1.3
 4 O  dyz             1.0       0.3       0.1       0.7       2.0       0.7
 4 O  dx2y2           0.4       0.9       0.1       0.6       0.6       0.8
 4 O  dxy             0.4       0.3       0.0       0.3       0.3       0.5
[...]
 5 C  dyz             0.0       2.9       0.1       0.0       0.3       0.3
 5 C  dx2y2           0.9       7.6       1.8       0.0       1.4       3.3
 5 C  dxy             0.0       0.1       0.0       0.0       1.1       5.0
 6 H  s               3.9       1.9       1.9       2.6       0.0       0.0
 6 H  pz              0.2       0.0       0.3       0.0       0.0       0.0
 6 H  px              0.0       0.0       0.2       0.5       0.0       0.0
 6 H  py             10.5       4.5       5.0       6.1       0.0       0.0
 7 H  s               1.2       0.8       4.2       0.3       0.4       0.0
 7 H  pz              0.0       0.1       0.1       0.0       0.0       0.0
 7 H  px              1.5       1.6       8.2       0.4       0.7       0.0
 7 H  py              2.6       0.1       1.3       0.3       0.2       0.0
 8 H  s               6.4       0.1       3.0       0.9       0.2       0.0
 8 H  pz             12.4       0.1       6.4       2.3       0.5       0.0
 8 H  px              1.3       0.1       0.4       0.0       0.0       0.0
 8 H  py              0.9       0.1       1.8       0.1       0.0       0.0
 9 H  s               2.2       0.2       1.9       5.9       0.2       0.0
 9 H  pz              4.1       0.3       4.8      12.0       0.4       0.0
 9 H  px              0.9       0.2       1.0       0.8       0.0       0.0
 9 H  py              0.2       0.0       0.4       0.3       0.0       0.0
10 H  s               0.5       0.4       0.4       6.6       0.4       0.0
10 H  pz              0.2       0.0       0.0       0.0       0.0       0.0
10 H  px              0.0       0.1       0.0       0.6       0.1       0.0
10 H  py              0.8       0.7       1.8      14.5       1.1       0.0
11 H  s               0.6       1.0       0.7       0.0       0.0       0.4
11 H  pz              0.9       1.8       1.0       0.0       0.2       0.9
11 H  px              0.4       0.7       0.4       0.0       0.0       0.0
11 H  py              0.0       0.0       0.0       0.0       0.1       0.1
12 H  s               0.0       2.6       0.1       0.0       0.3       0.4
12 H  pz              0.0       4.8       0.2       0.0       0.6       0.5
12 H  px              0.0       0.7       0.0       0.0       0.0       0.1
12 H  py              0.1       0.4       0.0       0.0       0.1       0.4
13 H  s               0.6       7.9       1.0       0.0       0.3       0.1
13 H  pz              0.0       0.5       0.0       0.0       0.0       0.0
13 H  px              0.0       0.0       0.1       0.0       1.4       0.2
13 H  py              1.5      19.6       2.4       0.0       0.6       0.1

                    156       157       158       159       160       161   
                   4.29051   4.43969  21.89459  21.96093  22.02645  22.25431
                   0.00000   0.00000   0.00000   0.00000   0.00000   0.00000
                  --------  --------  --------  --------  --------  --------
 0 C  s               0.1       0.0      83.0      12.0       1.2       3.5
 1 C  s               0.0       0.0       9.1      29.3      61.1       0.1
 1 C  py              0.1       0.0       0.0       0.0       0.0       0.0
 1 C  dz2             0.0       0.1       0.0       0.0       0.0       0.0
 1 C  dx2y2           0.2       0.0       0.0       0.0       0.0       0.0
 1 C  dxy             0.3       0.0       0.0       0.0       0.0       0.0
 2 C  s               2.2       6.0       2.2       1.9       0.0      94.9
 2 C  pz              0.3       0.0       0.0       0.0       0.0       0.0
 2 C  px              3.9       0.1       0.0       0.0       0.0       0.0
 2 C  py              2.6       7.6       0.0       0.0       0.0       0.1
 2 C  dz2             1.1       1.6       0.0       0.0       0.0       0.0
 2 C  dxz             0.6       0.0       0.0       0.0       0.0       0.0
 2 C  dyz             0.8       0.0       0.0       0.0       0.0       0.0
 2 C  dx2y2           0.2       4.3       0.0       0.0       0.0       0.0
 2 C  dxy            10.8       0.1       0.0       0.0       0.0       0.0
 3 O  s               0.3      18.7       0.0       0.0       0.0       0.2
 3 O  px              0.4       0.2       0.0       0.0       0.0       0.0
 3 O  py              0.2      22.0       0.0       0.0       0.0       0.2
 3 O  dz2             0.3       8.3       0.0       0.0       0.0       0.0
 3 O  dyz             0.1       0.1       0.0       0.0       0.0       0.0
 3 O  dx2y2           0.2      25.3       0.0       0.0       0.0       0.0
 3 O  dxy             2.2       0.9       0.0       0.0       0.0       0.0
 4 O  s               5.6       0.9       0.0       0.0       0.1       0.1
 4 O  pz              1.6       0.0       0.0       0.0       0.0       0.0
 4 O  px             25.3       0.3       0.0       0.0       0.0       0.1
 4 O  py              3.2       0.3       0.0       0.0       0.0       0.0
 4 O  dz2             1.7       0.5       0.0       0.0       0.0       0.0
 4 O  dxz             0.7       0.2       0.0       0.0       0.0       0.0
 4 O  dyz             1.9       0.0       0.0       0.0       0.0       0.0
 4 O  dx2y2           0.0       0.5       0.0       0.0       0.0       0.0
 4 O  dxy            25.8       0.3       0.0       0.0       0.0       0.0
 5 C  s               0.6       0.2       5.2      56.5      37.3       0.6
 5 C  pz              0.1       0.0       0.0       0.0       0.0       0.0
 5 C  px              1.5       0.2       0.0       0.0       0.0       0.0
 5 C  py              0.6       0.0       0.0       0.0       0.0       0.0
 5 C  dz2             0.3       0.0       0.0       0.0       0.0       0.0
 5 C  dxz             0.2       0.0       0.0       0.0       0.0       0.0
 5 C  dx2y2           1.6       0.1       0.0       0.0       0.0       0.0
 5 C  dxy             1.0       0.2       0.0       0.0       0.0       0.0
10 H  s               0.1       0.0       0.0       0.0       0.0       0.0
10 H  px              0.1       0.0       0.0       0.0       0.0       0.0
13 H  s               0.2       0.0       0.0       0.0       0.0       0.0
13 H  px              0.1       0.0       0.0       0.0       0.0       0.0
13 H  py              0.2       0.0       0.0       0.0       0.0       0.0

                    162       163   
                  43.65847  43.69901
                   0.00000   0.00000
                  --------  --------
 3 O  s              71.1      28.8
 4 O  s              28.8      71.1


                      *****************************
                      * MAYER POPULATION ANALYSIS *
                      *****************************

  NA   - Mulliken gross atomic population
  ZA   - Total nuclear charge
  QA   - Mulliken gross atomic charge
  VA   - Mayer's total valence
  BVA  - Mayer's bonded valence
  FA   - Mayer's free valence

  ATOM       NA         ZA         QA         VA         BVA        FA
  0 C      6.4627     6.0000    -0.4627     3.8194     3.8194     0.0000
  1 C      6.2914     6.0000    -0.2914     3.7754     3.7754     0.0000
  2 C      5.5809     6.0000     0.4191     3.7551     3.7551     0.0000
  3 O      8.4333     8.0000    -0.4333     1.9541     1.9541     0.0000
  4 O      8.1924     8.0000    -0.1924     1.9420     1.9420     0.0000
  5 C      6.3070     6.0000    -0.3070     3.7481     3.7481     0.0000
  6 H      0.8296     1.0000     0.1704     0.9586     0.9586    -0.0000
  7 H      0.8490     1.0000     0.1510     0.9610     0.9610    -0.0000
  8 H      0.8545     1.0000     0.1455     0.9642     0.9642    -0.0000
  9 H      0.8399     1.0000     0.1601     0.9593     0.9593     0.0000
 10 H      0.8394     1.0000     0.1606     0.9611     0.9611    -0.0000
 11 H      0.8524     1.0000     0.1476     0.9576     0.9576     0.0000
 12 H      0.8534     1.0000     0.1466     0.9579     0.9579    -0.0000
 13 H      0.8141     1.0000     0.1859     0.9596     0.9596    -0.0000

  Mayer bond orders larger than 0.100000
B(  0-C ,  1-C ) :   0.8999 B(  0-C ,  6-H ) :   0.9733 B(  0-C ,  7-H ) :   0.9722 
B(  0-C ,  8-H ) :   0.9746 B(  1-C ,  2-C ) :   0.9652 B(  1-C ,  9-H ) :   0.9541 
B(  1-C , 10-H ) :   0.9787 B(  2-C ,  3-O ) :   1.8395 B(  2-C ,  4-O ) :   1.0450 
B(  4-O ,  5-C ) :   0.8482 B(  5-C , 11-H ) :   0.9618 B(  5-C , 12-H ) :   0.9672 
B(  5-C , 13-H ) :   0.9671 

-------
TIMINGS
-------

Total SCF time: 0 days 0 hours 0 min 10 sec 

Total time                  ....      10.301 sec
Sum of individual times     ....      10.267 sec  ( 99.7%)

SCF preparation             ....       0.043 sec  (  0.4%)
Fock matrix formation       ....      10.041 sec  ( 97.5%)
  Startup                   ....       0.002 sec  (  0.0% of F)
  Split-RI-J                ....       1.824 sec  ( 18.2% of F)
  XC integration            ....       8.191 sec  ( 81.6% of F)
    XC Preparation          ....       0.000 sec  (  0.0% of XC)
    Basis function eval.    ....       1.536 sec  ( 18.7% of XC)
    Density eval.           ....       2.712 sec  ( 33.1% of XC)
    XC-Functional eval.     ....       1.201 sec  ( 14.7% of XC)
    XC-Potential eval.      ....       2.539 sec  ( 31.0% of XC)
Diagonalization             ....       0.000 sec  (  0.0%)
Density matrix formation    ....       0.014 sec  (  0.1%)
Total Energy calculation    ....       0.001 sec  (  0.0%)
Population analysis         ....       0.088 sec  (  0.9%)
Orbital Transformation      ....       0.011 sec  (  0.1%)
Orbital Orthonormalization  ....       0.000 sec  (  0.0%)
DIIS solution               ....       0.060 sec  (  0.6%)
  MO trafo                  ....       0.000 sec  (  0.0 % of DIIS)
  Orb grad                  ....       0.000 sec  (  0.0 % of DIIS)
  Energy W gradient         ....       0.000 sec  (  0.0 % of DIIS)
  DIIS error                ....       0.008 sec  ( 13.5 % of DIIS)
  DIIS work                 ....       0.046 sec  ( 76.3 % of DIIS)
  Form Q                    ....       0.000 sec  (  0.0 % of DIIS)
  Form QpQm                 ....       0.000 sec  (  0.0 % of DIIS)
  Exp/Cayley                ....       0.000 sec  (  0.0 % of DIIS)
  Orb update                ....       0.000 sec  (  0.0 % of DIIS)
  Wake-sleep                ....       0.001 sec  (  1.4 % of DIIS)
SOSCF solution              ....       0.007 sec  (  0.1%)
  MO trafo                  ....       0.007 sec  ( 99.4 % of SOSCF)
  Orb grad                  ....       0.000 sec  (  0.0 % of SOSCF)
  Rot update                ....       0.000 sec  (  0.0 % of SOSCF)
  Step                      ....       0.000 sec  (  0.0 % of SOSCF)
Finished LeanSCF after  10.3 sec

Maximum memory used throughout the entire LEANSCF-calculation: 17.2 MB


-------------------------------------------------------------------------------
                          DFT DISPERSION CORRECTION                            
                                                                               
                                DFTD4 V3.4.0                                   
-------------------------------------------------------------------------------
The R2SCAN3C composite method is recognized
Using three-body term ABC
Active option DFTDOPT                   ...         5   

-------------------------   ----------------
Dispersion correction           -0.002968275
-------------------------   ----------------

------------------   -----------------
gCP correction             0.009534429
------------------   -----------------

-------------------------   --------------------
FINAL SINGLE POINT ENERGY      -307.630741709633
-------------------------   --------------------


------------------------------------------------------------------------------
                              ORCA PROPERTY CALCULATIONS
------------------------------------------------------------------------------

GBWName                                 ... sp.gbw
Number of atoms                         ...     14
Number of basis functions               ...    164
Max core memory                         ...   1024 MB

Electric properties:
Dipole moment                           ... YES
Quadrupole moment                       ...  NO
Static polarizability (Dipole/Dipole)   ...  NO
Static polarizability (Dipole/Quad.)    ...  NO
Static polarizability (Quad./Quad.)     ...  NO
Static polarizability (Velocity)        ...  NO

Atomic electric properties:
Dipole moment                           ...  NO
Quadrupole moment                       ...  NO
Static polarizability                   ...  NO

Choice of electric origin               ... Center of mass
Position of electric origin             ...    -0.000015     0.000011    -0.000006

General magnetic properties:
Magnetizability                         ...  NO

EPR properties:
g-Tensor (aka g-matrix)                 ...  NO
Zero-Field splitting spin-orbit         ...  NO
Zero-field splitting spin-spin          ...  NO
Hyperfine couplings                     ...  NO (   0 nuclei)
Quadrupole couplings                    ...  NO (   0 nuclei)
Contact density                         ...  NO (   0 nuclei)

NMR properties:
Chemical shifts                         ...  NO (   0 nuclei)
Spin-rotation constants                 ...  NO (   0 nuclei)
Spin-spin couplings                     ...  NO (   0 nuclei,    0 pairs)

Choice of magnetic origin               ... GIAO
Position of magnetic origin             ...     0.000000     0.000000     0.000000

Properties with geometric perturbations:
SCF Hessian                             ...  NO
IR spectrum                             ...  NO
VCD spectrum                            ...  NO
X-ray spectroscopy properties:
SCF XES/XAS/RIXS spectra                ...  NO


-------------
DIPOLE MOMENT
-------------

Method             : SCF
Type of density    : Electron Density
Multiplicity       :   1
Irrep              :   0
Energy             :  -307.6373078632855709 Eh
Relativity type    : 
Basis              : AO
                                X                 Y                 Z
Electronic contribution:      2.554205536      -1.395377735       1.477099745
Nuclear contribution   :     -2.426158409       2.084578491      -1.599078781
                        -----------------------------------------
Total Dipole Moment    :      0.128047127       0.689200756      -0.121979036
                        -----------------------------------------
Magnitude (a.u.)       :      0.711528379
Magnitude (Debye)      :      1.808561410



--------------------
Rotational spectrum 
--------------------
 
Rotational constants in cm-1:             0.259691             0.074695             0.065404 
Rotational constants in MHz :          7785.344409          2239.306223          1960.752495 

Dipole components along the rotational axes: 
x,y,z [a.u.] :     0.102659     0.703981    -0.012044 
x,y,z [Debye]:     0.260938     1.789377    -0.030612 

 

Dipole moment calculation done in   0.0 sec 

Maximum memory used throughout the entire PROP-calculation: 9.9 MB

--------------------------------
SUGGESTED CITATIONS FOR THIS RUN
--------------------------------

Below you find a list of papers that are relevant to this ORCA run
We neither can nor want to force you to cite these papers, but we appreciate if you do
You receive ORCA, which is the product of decades of hard work by many enthusiastic individuals, for free
The only thing we kindly ask in return is that you cite our papers,
We deeply appreciate it, if you show your appreciation for ORCA by not just citing the generic ORCA reference.

Please note that relegating all ORCA citations to the supporting information does *not* help us.
SI sections are not indexed - citations you put there will not count into any citation statistics
But we need these citations in order to attract the funding resources that allow us to do what we are doing

Therefore, if you are a happy ORCA user, please consider citing a few of the papers listed below in the main body of your paper

In addition to the list printed below, the program has created the file sp.bibtex that contains the list in bibtex format
You can import this file easily into all common literature databanks and citation aid programs


List of essential papers. We consider these as the minimum necessary citations

  1. Neese,F.
     Software update: the ORCA program system, version 5.0
     WIRES Comput. Molec. Sci., 2022 12(1)e1606
     doi.org/10.1002/wcms.1606
  2. Grimme,S.; Hansen,A.; Ehlert,S.; Mewes,J.
     r2SCAN-3c: A 'Swiss army knife' composite electronic-structure method
     J. Chem. Phys., 2021 154 064103
     doi.org/10.1063/5.0040021

List of papers to cite with high priority. The work reported in these papers was absolutely
necessary for this run to complete.
Our perspective: the developers of density functionals and basis sets usually get cited in chemistry papers
Good! But without the algorithms to do something with them, the functionals or basis sets would not do anything.
Hence, in our opinion, the algorithm design and method developments papers are equally worthy of getting cited

  1. Neese,F.
     An improvement of the resolution of the identity approximation for the formation of the Coulomb matrix
     J. Comp. Chem., 2003 24(14)1740-1747
     doi.org/10.1002/jcc.10318
  2. Neese,F.
     The SHARK Integral Generation and Digestion System
     J. Comp. Chem., 2022  1-16
     doi.org/10.1002/jcc.26942
  3. Lehtola,S.; Steigemann,C.; Oliveira,M.; Marques,M.
     Recent developments in Libxc - A comprehensive library of functionals for density functional theory
     Software X, 2018 7 
     doi.org/10.1016/j.softx.2017.11.002
  4. Caldeweyher,E.; Bannwarth,C.; Grimme,S.
     Extension of the D3 dispersion coefficient model
     J. Chem. Phys., 2017 147 034112
     doi.org/10.1063/1.4993215
  5. Caldeweyher,E.; Ehlert,S.; Hansen,A.; Neugebauer,H.; Spicher,S.; Bannwarth,C.; Grimme,S.
     A generally applicable atomic-charge dependent London dispersion correction
     J. Chem. Phys., 2019 150 154122
     doi.org/10.1063/1.5090222
  6. Caldeweyher,E.; Mewes,J.; Ehlert,S.; Grimme,S.
     Extension and evaluation of the D4 London-dispersion model for periodic systems
     Phys. Chem. Chem. Phys., 2020 22(16)8499-8512
     doi.org/10.1039/D0CP00502A
  7. Wittmann,L.; Gordiy,I.; Friede,M.; Helmich-Paris,B.; Grimme,S.; Hansen,A.; Bursch,M.
     Extension of the D3 and D4 London Dispersion Corrections to the full Actinides Series
     Phys. Chem. Chem. Phys., 2024 26(32)21379-21394
     doi.org/https://doi.org/10.1039/D4CP01514B 

List of suggested additional citations. These are papers that are important in the 'surrounding' of 
of this run, or papers that preceded the highly important papers. If you like your results we are grateful for a citation.

  1. Neese,F.
     The ORCA program system
     WIRES Comput. Molec. Sci., 2012 2(1)73-78
     doi.org/10.1002/wcms.81
  2. Neese,F.
     Software update: the ORCA program system, version 4.0
     WIRES Comput. Molec. Sci., 2018 8(1)1-6
     doi.org/10.1002/wcms.1327
  3. Neese,F.; Wennmohs,F.; Becker,U.; Riplinger,C.
     The ORCA quantum chemistry program package
     J. Chem. Phys., 2020 152 Art. No. L224108
     doi.org/10.1063/5.0004608

List of optional additional citations

  1. Neese,F.
     Approximate second-order SCF convergence for spin unrestricted wavefunctions
     Chem. Phys. Lett., 2000 325(1-3)93-98
     doi.org/10.1016/s0009-2614(00)00662-x

Timings for individual modules:

Sum of individual times          ...       11.226 sec (=   0.187 min)
Startup calculation              ...        0.718 sec (=   0.012 min)   6.4 %
SCF iterations                   ...       10.444 sec (=   0.174 min)  93.0 %
Property calculations            ...        0.064 sec (=   0.001 min)   0.6 %
                             ****ORCA TERMINATED NORMALLY****
TOTAL RUN TIME: 0 days 0 hours 0 minutes 11 seconds 412 msec
