
                                 *****************
                                 * O   R   C   A *
                                 *****************

                                            #,                                       
                                            ###                                      
                                            ####                                     
                                            #####                                    
                                            ######                                   
                                           ########,                                 
                                     ,,################,,,,,                         
                               ,,#################################,,                 
                          ,,##########################################,,             
                       ,#########################################, ''#####,          
                    ,#############################################,,   '####,        
                  ,##################################################,,,,####,       
                ,###########''''           ''''###############################       
              ,#####''   ,,,,##########,,,,          '''####'''          '####       
            ,##' ,,,,###########################,,,                        '##       
           ' ,,###''''                  '''############,,,                           
         ,,##''                                '''############,,,,        ,,,,,,###''
      ,#''                                            '''#######################'''  
     '                                                          ''''####''''         
             ,#######,   #######,   ,#######,      ##                                
            ,#'     '#,  ##    ##  ,#'     '#,    #''#        ,####,   ,####,        
            ##       ##  ##   ,#'  ##            #'  '#       #'       #'  '#        
            ##       ##  #######   ##           ,######,      #####,   #    #        
            '#,     ,#'  ##    ##  '#,     ,#' ,#      #,     #,   #   #,  ,#        
             '#######'   ##     ##  '#######'  #'      '#     '####' # '####'        



                #########################################################
                #                        -***-                          #
                #          Department of theory and spectroscopy        #
                #                                                       #
                #                      Frank Neese                      #
                #                                                       #
                #     Directorship, Architecture, Infrastructure        #
                #                    SHARK, DRIVERS                     #
                #        Core code/Algorithms in most modules           #
                #                                                       #
                #        Max Planck Institute fuer Kohlenforschung      #
                #                Kaiser Wilhelm Platz 1                 #
                #                 D-45470 Muelheim/Ruhr                 #
                #                      Germany                          #
                #                                                       #
                #                  All rights reserved                  #
                #                        -***-                          #
                #########################################################


                         Program Version 6.0.1  -  RELEASE   -


 With contributions from (in alphabetic order):
[Max-Planck-Institut fuer Kohlenforschung]                               
  Daniel Aravena         : Magnetic Suceptibility                        
  Michael Atanasov       : Ab Initio Ligand Field Theory (pilot matlab implementation)
  Alexander A. Auer      : GIAO ZORA, VPT2 properties, NMR spectrum      
  Ute Becker             : All parallelization in ORCA, NUMFREQ, NUMCALC 
  Giovanni Bistoni       : ED, misc. LED, open-shell LED, HFLD           
  Martin Brehm           : Molecular dynamics                            
  Dmytro Bykov           : pre 5.0 version of the SCF Hessian            
  Marcos Casanova-Páez   : Triplet and SCS-CIS(D). UHF-(DLPNO)-IP/EA/STEOM-CCSD. UHF-CVS-IP/STEOM-CCSD   
  Vijay G. Chilkuri      : MRCI spin determinant printing, contributions to CSF-ICE 
  Pauline Colinet        : FMM embedding                                 
  Dipayan Datta          : RHF DLPNO-CCSD density                        
  Achintya Kumar Dutta   : EOM-CC, STEOM-CC                              
  Nicolas Foglia         : Exact transition moments, OPA infrastructure, MCD improvements    
  Dmitry Ganyushin       : Spin-Orbit,Spin-Spin,Magnetic field MRCI      
  Miquel Garcia-Rates    : C-PCM and meta-GGA Hessian, CCSD/C-PCM, Gaussian charge scheme 
  Tiago L. C. Gouveia    : GS-ROHF, GS-ROCIS                             
  Yang Guo               : DLPNO-NEVPT2, F12-NEVPT2, CIM, IAO-localization        
  Andreas Hansen         : Spin unrestricted coupled pair/coupled cluster methods 
  Ingolf Harden          : AUTO-CI MPn and infrastructure                
  Benjamin Helmich-Paris : MC-RPA, TRAH-(SCF,CASSCF), AVAS, COSX integrals, SCF dyn. polar. 
  Lee Huntington         : MR-EOM, pCC                                   
  Robert Izsak           : Overlap fitted RIJCOSX, COSX-SCS-MP3, EOM     
  Riya Kayal             : Wick's Theorem for AUTO-CI, AUTO-CI UHF-CCSDT 
  Emily Kempfer          : AUTO-CI, RHF CISDT and CCSDT                  
  Christian Kollmar      : KDIIS, OOCD, Brueckner-CCSD(T), CCSD density, CASPT2, CASPT2-K, improved NEVPT2 
  Axel Koslowski         : Symmetry handling                             
  Simone Kossmann        : meta-GGA functionals, TD-DFT gradient, OOMP2, (MP2 Hessian; deprecated post 5.0) 
  Lucas Lang             : DCDCAS                                        
  Marvin Lechner         : AUTO-CI (C++ implementation), FIC-MRCC        
  Spencer Leger          : CASSCF response                               
  Dagmar Lenk            : GEPOL surface, SMD, ORCA-2-JSON               
  Dimitrios Liakos       : Extrapolation schemes; Compound Job, initial MDCI parallelization 
  Dimitrios Manganas     : Further ROCIS development; embedding schemes. LFT, Crystal Embedding 
  Dimitrios Pantazis     : SARC Basis sets                               
  Anastasios Papadopoulos: AUTO-CI, single reference methods and gradients 
  Taras Petrenko         : pre 6.0 DFT Hessian and TD-DFT gradient, (ASA, deprecated), ECA, 1-Electron XAS/XES, NRVS 
  Peter Pinski           : DLPNO-MP2, DLPNO-MP2 Gradient                 
  Christoph Reimann      : Effective Core Potentials                     
  Marius Retegan         : Local ZFS, SOC                                
  Christoph Riplinger    : Optimizer, TS searches, QM/MM, DLPNO-CCSD(T), (RO)-DLPNO pert. Triples 
  Michael Roemelt        : Original ROCIS implementation                 
  Masaaki Saitow         : Open-shell DLPNO-CCSD energy and density      
  Barbara Sandhoefer     : DKH picture change effects                    
  Kantharuban Sivalingam : CASSCF convergence/infrastructure, NEVPT2 and variants, FIC-MRCI 
  Bernardo de Souza      : ESD, SOC TD-DFT                               
  Georgi L. Stoychev     : AutoAux, RI-MP2 NMR, DLPNO-MP2 response, X2C  
  Van Anh Tran           : RI-MP2 g-tensors                              
  Willem Van den Heuvel  : Paramagnetic NMR                              
  Zikuan Wang            : NOTCH, Electric field optimization            
  Frank Wennmohs         : Technical directorship and infrastructure     
  Hang Xu                : AUTO-CI-Response properties                   
                                                                         
[FACCTs GmbH]                                                            
  Markus Bursch, Miquel Garcia-Rates, Christoph Riplinger, Bernardo de Souza, Georgi L. Stoychev 
                                                                 
  APM, Basis sets (HGBS, AHGBS, def-TZVP (Ac-Lr), def2-XVPD (La-Lu)), CI-OPT, improved COSX, DLPNO-Multilevel,           
  DOCKER, DRACO, updates on ESD, GOAT, IRC, LR-CPCM, MBIS, meta-GGA TD-DFT gradient, ML-optimized integration grids, 
  MM, NACMEs, nearIR, NEB, NEB-TS, NL-DFT gradient (VV10), 2- and 3-layer-ONIOM, interface openCOSMO-RS, QMMM,   
  Crystal-QMMM, SF, symmetry and pop. for TD-DFT, r2SCAN hybrids, SOLVATOR                                   
                                                                         
[Other institutions]                                                     
  V. Asgeirsson          : NEB                                           
  Christoph Bannwarth    : sTDA-DFT, sTD-DFT, PBEh-3c, B97-3c, D3        
  Sebastian Ehlert       : rSCAN, r2SCAN, r2SCAN-3c, D4, dhf basis sets  
  Marvin Friede          : D4 for Fr, Ra, Ac-Lr                          
  Lars Goerigk           : TD-DFT with DH, B97 family of functionals     
  Stefan Grimme          : VdW corrections, initial TS optimization, DFT functionals, gCP, sTDA/sTD-DF 
  Waldemar Hujo          : DFT-NL                                        
  H. Jonsson             : NEB                                           
  Holger Kruse           : gCP                                           
  Marcel Mueller         : wB97X-3c, vDZP basis set                      
  Hagen Neugebauer       : wr2SCAN                                       
  Tobias Risthaus        : range-separated hybrid DFT                    
  Lukas Wittmann         : regularized MP2, r2SCAN double-hybrids, wr2SCAN        
                                                                         
We gratefully acknowledge several colleagues who have allowed us to      
interface, adapt or use parts of their codes:                            
  Ed Valeev, F. Pavosevic, A. Kumar             : LibInt (2-el integral package), F12 methods 
  Garnet Chan, S. Sharma, J. Yang, R. Olivares  : DMRG                   
  Ulf Ekstrom                                   : XCFun DFT Library      
  Mihaly Kallay                                 : mrcc  (arbitrary order and MRCC methods)
  Frank Weinhold                                : gennbo (NPA and NBO analysis)           
  Simon Mueller                                 : openCOSMO-RS                            
  Christopher J. Cramer and Donald G. Truhlar   : smd solvation model                     
  S Lehtola, MJT Oliveira, MAL Marques          : LibXC Library                           
  Liviu Ungur et al                             : ANISO software                          


 Your calculation uses the libint2 library for the computation of 2-el integrals
 For citations please refer to: http://libint.valeyev.net

 Your ORCA version has been built with support for libXC version: 6.2.2
 For citations please refer to: https://libxc.gitlab.io

 This ORCA versions uses:
   CBLAS   interface :  Fast vector & matrix operations
   LAPACKE interface :  Fast linear algebra routines
   SCALAPACK package :  Parallel linear algebra routines
   Shared memory     :  Shared parallel matrices
   BLAS/LAPACK       :  OpenBLAS 0.3.27  USE64BITINT DYNAMIC_ARCH NO_AFFINITY Zen SINGLE_THREADED
        Core in use  :  Zen
   Copyright (c) 2011-2014, The OpenBLAS Project


Your calculation utilizes the geometrical counterpoise correction gCP
Please cite in your paper:
H.Kruse, S. Grimme J.Chem.Phys., 136, (2012), 154101 
   

Your calculation utilizes the DFT-NL dispersion correction.
Cite in your paper:
Vydrov, O. A.; Van Voorhis, T. J. Chem. Phys. 2010, 133, 244103
Hujo, W.; Grimme, S. J. Chem. Theory Comput. 2011, 7, 3866 
   

================================================================================

----- Orbital basis set information -----
Your calculation utilizes the basis: def2-TZVP
   F. Weigend and R. Ahlrichs, Phys. Chem. Chem. Phys. 7, 3297 (2005).

----- AuxJ basis set information -----
Your calculation utilizes the auxiliary basis: def2/J
   F. Weigend, Phys. Chem. Chem. Phys. 8, 1057 (2006).

================================================================================
                                        WARNINGS
                       Please study these warnings very carefully!
================================================================================

WARNING: Old DensityContainer found on disk!
         Will remove this file - 
         If you want to keep old densities, please start your calculation with a different basename. 


================================================================================
                                       INPUT FILE
================================================================================
NAME = sp.inp
|  1> ! wb97x-v def2-tzvp def2/J RIJCOSX DEFGRID2 scfconv7 GCP(DFT/TZ) printgap
|  2> %output
|  3>     printlevel normal
|  4> end
|  5> * xyz 0 1
|  6> C -0.6793976536883845 -2.1820957593801666 -5.276083880982733e-06
|  7> C 0.2021891264585931 -0.9693908859968402 -1.8745032067235668e-05
|  8> C 1.5953804886010505 -1.0857740968942482 -3.216391545376685e-05
|  9> C 2.425788314879145 0.029274560950559584 -8.295140136882137e-05
| 10> C 1.87201928063799 1.3048601815007126 -0.00010353541852663891
| 11> C 0.4901239891664182 1.4585984327632517 -8.474278812290981e-05
| 12> C -0.3181565807574412 0.3287770144638111 -5.2033102625481126e-05
| 13> Cl -2.0630980661473606 0.5554535443613808 -8.627363949392482e-05
| 14> H -1.3318092417093934 -2.1955995316127104 -0.8792198689832679
| 15> H -0.07753262540719935 -3.09324466075545 0.0003725103093176818
| 16> H -1.3323470412612959 -2.1952086756130025 0.8788110564438408
| 17> H 2.0302247117799657 -2.081190980547391 -9.246478552952588e-06
| 18> H 3.5030542443407415 -0.09929705829445472 -0.00010289036500085105
| 19> H 2.508547598169632 2.183467961254638 -0.00013965507275614448
| 20> H 0.03811946361546853 2.443673121547207 -0.00010389992180080152
| 21> *
| 22> 
| 23>                          ****END OF INPUT****
================================================================================

                       ****************************
                       * Single Point Calculation *
                       ****************************

---------------------------------
CARTESIAN COORDINATES (ANGSTROEM)
---------------------------------
  C     -0.679398   -2.182096   -0.000005
  C      0.202189   -0.969391   -0.000019
  C      1.595380   -1.085774   -0.000032
  C      2.425788    0.029275   -0.000083
  C      1.872019    1.304860   -0.000104
  C      0.490124    1.458598   -0.000085
  C     -0.318157    0.328777   -0.000052
  Cl    -2.063098    0.555454   -0.000086
  H     -1.331809   -2.195600   -0.879220
  H     -0.077533   -3.093245    0.000373
  H     -1.332347   -2.195209    0.878811
  H      2.030225   -2.081191   -0.000009
  H      3.503054   -0.099297   -0.000103
  H      2.508548    2.183468   -0.000140
  H      0.038119    2.443673   -0.000104

----------------------------
CARTESIAN COORDINATES (A.U.)
----------------------------
  NO LB      ZA    FRAG     MASS         X           Y           Z
   0 C     6.0000    0    12.011   -1.283876   -4.123563   -0.000010
   1 C     6.0000    0    12.011    0.382082   -1.831883   -0.000035
   2 C     6.0000    0    12.011    3.014832   -2.051816   -0.000061
   3 C     6.0000    0    12.011    4.584076    0.055321   -0.000157
   4 C     6.0000    0    12.011    3.537604    2.465828   -0.000196
   5 C     6.0000    0    12.011    0.926200    2.756352   -0.000160
   6 C     6.0000    0    12.011   -0.601229    0.621299   -0.000098
   7 Cl   17.0000    0    35.453   -3.898690    1.049655   -0.000163
   8 H     1.0000    0     1.008   -2.516755   -4.149082   -1.661485
   9 H     1.0000    0     1.008   -0.146515   -5.845385    0.000704
  10 H     1.0000    0     1.008   -2.517771   -4.148343    1.660712
  11 H     1.0000    0     1.008    3.836569   -3.932881   -0.000017
  12 H     1.0000    0     1.008    6.619813   -0.187644   -0.000194
  13 H     1.0000    0     1.008    4.740468    4.126156   -0.000264
  14 H     1.0000    0     1.008    0.072035    4.617873   -0.000196

--------------------------------
INTERNAL COORDINATES (ANGSTROEM)
--------------------------------
 C      0   0   0     0.000000000000     0.00000000     0.00000000
 C      1   0   0     1.499282615466     0.00000000     0.00000000
 C      2   1   0     1.398044070660   121.24037887     0.00000000
 C      3   2   1     1.390291577290   121.90084530   179.99814537
 C      4   3   2     1.390603760624   119.85684181     0.00000000
 C      5   4   3     1.390420816460   119.81522573     0.00000000
 C      6   5   4     1.389177424966   119.23199214     0.00000000
 Cl     7   6   5     1.759603090988   118.17858631   180.00212001
 H      1   2   3     1.094916221642   111.12076192   239.41003304
 H      1   2   3     1.091986252417   110.53737964     0.00000000
 H      1   2   3     1.094912324171   111.12173132   120.63430587
 H      3   2   1     1.086252397567   118.37317289     0.00000000
 H      4   3   2     1.084911307182   119.87002972   180.00066729
 H      5   4   3     1.084951580011   120.61057969   179.99978803
 H      6   5   4     1.083826662326   120.99631870   180.00022541

---------------------------
INTERNAL COORDINATES (A.U.)
---------------------------
 C      0   0   0     0.000000000000     0.00000000     0.00000000
 C      1   0   0     2.833233540580     0.00000000     0.00000000
 C      2   1   0     2.641920416700   121.24037887     0.00000000
 C      3   2   1     2.627270327376   121.90084530   179.99814537
 C      4   3   2     2.627860268381   119.85684181     0.00000000
 C      5   4   3     2.627514554013   119.81522573     0.00000000
 C      6   5   4     2.625164884611   119.23199214     0.00000000
 Cl     7   6   5     3.325167946368   118.17858631   180.00212001
 H      1   2   3     2.069091798492   111.12076192   239.41003304
 H      1   2   3     2.063554959075   110.53737964     0.00000000
 H      1   2   3     2.069084433338   111.12173132   120.63430587
 H      3   2   1     2.052719543716   118.37317289     0.00000000
 H      4   3   2     2.050185250169   119.87002972   180.00066729
 H      5   4   3     2.050261354786   120.61057969   179.99978803
 H      6   5   4     2.048135568438   120.99631870   180.00022541

---------------------
BASIS SET INFORMATION
---------------------
There are 3 groups of distinct atoms

 Group   1 Type C   : 11s6p2d1f contracted to 5s3p2d1f pattern {62111/411/11/1}
 Group   2 Type Cl  : 14s9p3d1f contracted to 5s5p2d1f pattern {73211/51111/21/1}
 Group   3 Type H   : 5s1p contracted to 3s1p pattern {311/1}

Atom   0C    basis set group =>   1
Atom   1C    basis set group =>   1
Atom   2C    basis set group =>   1
Atom   3C    basis set group =>   1
Atom   4C    basis set group =>   1
Atom   5C    basis set group =>   1
Atom   6C    basis set group =>   1
Atom   7Cl   basis set group =>   2
Atom   8H    basis set group =>   3
Atom   9H    basis set group =>   3
Atom  10H    basis set group =>   3
Atom  11H    basis set group =>   3
Atom  12H    basis set group =>   3
Atom  13H    basis set group =>   3
Atom  14H    basis set group =>   3
---------------------------------
AUXILIARY/J BASIS SET INFORMATION
---------------------------------
There are 3 groups of distinct atoms

 Group   1 Type C   : 12s5p4d2f1g contracted to 6s4p3d1f1g pattern {711111/2111/211/2/1}
 Group   2 Type Cl  : 14s5p5d2f1g contracted to 8s4p3d1f1g pattern {71111111/2111/311/2/1}
 Group   3 Type H   : 5s2p1d contracted to 3s1p1d pattern {311/2/1}

Atom   0C    basis set group =>   1
Atom   1C    basis set group =>   1
Atom   2C    basis set group =>   1
Atom   3C    basis set group =>   1
Atom   4C    basis set group =>   1
Atom   5C    basis set group =>   1
Atom   6C    basis set group =>   1
Atom   7Cl   basis set group =>   2
Atom   8H    basis set group =>   3
Atom   9H    basis set group =>   3
Atom  10H    basis set group =>   3
Atom  11H    basis set group =>   3
Atom  12H    basis set group =>   3
Atom  13H    basis set group =>   3
Atom  14H    basis set group =>   3

Checking for AutoStart:
The File: sp.gbw exists
Trying to determine its content:
     ... Fine, the file contains calculation information
     ... Fine, the calculation information was read
     ... Fine, the file contains a basis set
     ... Fine, the basis set was read
     ... Fine, the file contains a geometry
     ... Fine, the geometry was read
     ... Fine, the file contains a set of orbitals
     ... Fine, the orbitals can be read
     => possible old guess file was deleted
     => GBW file was renamed to GES file
     => GES file is set as startup file
     => Guess is set to MORead
     ... now leaving AutoStart

------------------------------------------------------------------------------
                             ORCA STARTUP CALCULATIONS
                           -- RI-GTO INTEGRALS CHOSEN --
------------------------------------------------------------------------------
------------------------------------------------------------------------------
                   ___                                                        
                  /   \      - P O W E R E D   B Y -                         
                 /     \                                                     
                 |  |  |   _    _      __       _____    __    __             
                 |  |  |  | |  | |    /  \     |  _  \  |  |  /  |          
                  \  \/   | |  | |   /    \    | | | |  |  | /  /          
                 / \  \   | |__| |  /  /\  \   | |_| |  |  |/  /          
                |  |  |   |  __  | /  /__\  \  |    /   |      \           
                |  |  |   | |  | | |   __   |  |    \   |  |\   \          
                \     /   | |  | | |  |  |  |  | |\  \  |  | \   \       
                 \___/    |_|  |_| |__|  |__|  |_| \__\ |__|  \__/        
                                                                              
                      - O R C A' S   B I G   F R I E N D -                    
                                      &                                       
                       - I N T E G R A L  F E E D E R -                       
                                                                              
 v1 FN, 2020, v2 2021, v3 2022-2024                                           
------------------------------------------------------------------------------


----------------------
SHARK INTEGRAL PACKAGE
----------------------

Number of atoms                             ...     15
Number of basis functions                   ...    296
Number of shells                            ...    118
Maximum angular momentum                    ...      3
Integral batch strategy                     ... SHARK/LIBINT Hybrid
RI-J (if used) integral strategy            ... SPLIT-RIJ (Revised 2003 algorithm where possible)
Printlevel                                  ...      1
Contraction scheme used                     ... SEGMENTED contraction
Prescreening option                         ... SCHWARTZ
   Thresh                                   ... 3.000e-11
   Tcut                                     ... 1.000e-12
   Tpresel                                  ... 1.000e-12 
Coulomb Range Separation                    ... NOT USED
Exchange Range Separation                   ... Long Range
   Mu parameter                             ... 3.000e-01
   Scaling (regular/separated)              ... 1.670e-01 8.330e-01
Multipole approximations                    ... NOT USED
Finite Nucleus Model                        ... NOT USED
CABS basis                                  ... NOT available
Auxiliary Coulomb fitting basis             ... AVAILABLE
   # of basis functions in Aux-J            ...    471
   # of shells in Aux-J                     ...    157
   Maximum angular momentum in Aux-J        ...      4
Auxiliary J/K fitting basis                 ... NOT available
Auxiliary Correlation fitting basis         ... NOT available
Auxiliary 'external' fitting basis          ... NOT available

Checking pre-screening integrals            ... done (  0.0 sec) Dimension = 118
Check shell pair data                       ... done (  0.0 sec)
Shell pair information
Shell pair cut-off parameter TPreSel        ...   1.0e-12
Total number of shell pairs                 ...      7021
Shell pairs after pre-screening             ...      6481
Total number of primitive shell pairs       ...     22156
Primitive shell pairs kept                  ...     15312
          la=0 lb=0:   1655 shell pairs
          la=1 lb=0:   1848 shell pairs
          la=1 lb=1:    528 shell pairs
          la=2 lb=0:    930 shell pairs
          la=2 lb=1:    510 shell pairs
          la=2 lb=2:    134 shell pairs
          la=3 lb=0:    456 shell pairs
          la=3 lb=1:    256 shell pairs
          la=3 lb=2:    128 shell pairs
          la=3 lb=3:     36 shell pairs

Calculating one electron integrals          ... done (  0.0 sec)
Calculating RI/J V-Matrix + Cholesky decomp.... done (  0.0 sec)
Calculating Nuclear repulsion               ... done (  0.0 sec) ENN=    402.254749885644 Eh

Diagonalization of the overlap matrix:
Smallest eigenvalue                        ... 8.563e-06
Time for diagonalization                   ...    0.005 sec
Threshold for overlap eigenvalues          ... 1.000e-07
Number of eigenvalues below threshold      ... 0
Time for construction of square roots      ...    0.002 sec
Total time needed                          ...    0.009 sec

-------------------
DFT GRID GENERATION
-------------------

General Integration Accuracy     IntAcc      ... 4.388
Radial Grid Type                 RadialGrid  ... OptM3 with GC (2021)
Angular Grid (max. ang.)         AngularGrid ... 4 (Lebedev-302)
Angular grid pruning method      GridPruning ... 4 (adaptive)
Weight generation scheme         WeightScheme... mBecke (2022)
Basis function cutoff            BFCut       ... 1.0000e-11
Integration weight cutoff        WCut        ... 1.0000e-14
Partially contracted basis set               ... off
Rotationally invariant grid construction     ... off
Angular grids for H and He will be reduced by one unit

Total number of grid points                  ...    71896
Total number of batches                      ...     1131
Average number of points per batch           ...       63
Average number of grid points per atom       ...     4793

--------------------
COSX GRID GENERATION
--------------------

GRIDX 1
-------
General Integration Accuracy     IntAcc      ... 3.816
Radial Grid Type                 RadialGrid  ... OptM3 with GC (2021)
Angular Grid (max. ang.)         AngularGrid ... 1 (Lebedev-50)
Angular grid pruning method      GridPruning ... 4 (adaptive)
Weight generation scheme         WeightScheme... mBecke (2022)
Basis function cutoff            BFCut       ... 1.0000e-11
Integration weight cutoff        WCut        ... 1.0000e-14
Partially contracted basis set               ... on
Rotationally invariant grid construction     ... off
Angular grids for H and He will be reduced by one unit

Total number of grid points                  ...    10237
Total number of batches                      ...       86
Average number of points per batch           ...      119
Average number of grid points per atom       ...      682
UseSFitting                                  ... on

GRIDX 2
-------
General Integration Accuracy     IntAcc      ... 4.020
Radial Grid Type                 RadialGrid  ... OptM3 with GC (2021)
Angular Grid (max. ang.)         AngularGrid ... 2 (Lebedev-110)
Angular grid pruning method      GridPruning ... 4 (adaptive)
Weight generation scheme         WeightScheme... mBecke (2022)
Basis function cutoff            BFCut       ... 1.0000e-11
Integration weight cutoff        WCut        ... 1.0000e-14
Partially contracted basis set               ... on
Rotationally invariant grid construction     ... off
Angular grids for H and He will be reduced by one unit

Total number of grid points                  ...    19882
Total number of batches                      ...      163
Average number of points per batch           ...      121
Average number of grid points per atom       ...     1325
UseSFitting                                  ... on

GRIDX 3
-------
General Integration Accuracy     IntAcc      ... 4.338
Radial Grid Type                 RadialGrid  ... OptM3 with GC (2021)
Angular Grid (max. ang.)         AngularGrid ... 3 (Lebedev-194)
Angular grid pruning method      GridPruning ... 4 (adaptive)
Weight generation scheme         WeightScheme... mBecke (2022)
Basis function cutoff            BFCut       ... 1.0000e-11
Integration weight cutoff        WCut        ... 1.0000e-14
Partially contracted basis set               ... on
Rotationally invariant grid construction     ... off
Angular grids for H and He will be reduced by one unit

Total number of grid points                  ...    44273
Total number of batches                      ...      355
Average number of points per batch           ...      124
Average number of grid points per atom       ...     2952
UseSFitting                                  ... on
Initializing property integral containers    ... done (  0.0 sec)

SHARK setup successfully completed in   1.1 seconds

Maximum memory used throughout the entire STARTUP-calculation: 45.3 MB
-------------------------------------------------------------------------------
                                 ORCA GUESS
                   Start orbitals & Density for SCF / CASSCF
-------------------------------------------------------------------------------

------------
SCF SETTINGS
------------
Hamiltonian:
 Density Functional     Method          .... DFT(GTOs)
 Exchange Functional    Exchange        .... WB97X-V
 Correlation Functional Correlation     .... WB97X-V
 Gradients option       PostSCFGGA      .... off
 Hybrid DFT is turned on
   Fraction HF Exchange ScalHFX         ....  0.167000
   Scaling of DF-GGA-X  ScalDFX         ....  0.000000
   Scaling of DF-GGA-C  ScalDFC         ....  1.000000
   Scaling of DF-LDA-C  ScalLDAC        ....  1.000000
   Perturbative correction              ....  0.000000
 Long-range corrected/Screened/Range-Separated Hybrid DFT is turned on
   Amount of maximum screened exact exchange              ....  0.833000
   Range separation parameter mu (erf(mu*r12)/r12)        ....  0.300000
   NL short-range parameter             ....  6.000000
   NL long-range parameter              ....  0.010000
 RI-approximation to the Coulomb term is turned on
   Number of AuxJ basis functions       .... 471
   RIJ-COSX (HFX calculated with COS-X)).... on


General Settings:
 Integral files         IntName         .... sp
 Hartree-Fock type      HFTyp           .... RHF
 Total Charge           Charge          ....    0
 Multiplicity           Mult            ....    1
 Number of Electrons    NEL             ....   66
 Basis Dimension        Dim             ....  296
 Nuclear Repulsion      ENuc            ....    402.2547498856 Eh

Convergence Acceleration:
 AO-DIIS                CNVDIIS         .... on
   Start iteration      DIISMaxIt       ....    12
   Startup error        DIISStart       ....  0.200000
   # of expansion vecs  DIISMaxEq       ....     5
   Bias factor          DIISBfac        ....   1.050
   Max. coefficient     DIISMaxC        ....  10.000
 MO-DIIS                CNVKDIIS        .... off
 Trust-Rad. Augm. Hess. CNVTRAH         .... auto
   Auto Start mean grad. ratio tolernc. ....  1.125000
   Auto Start start iteration           ....     1
   Auto Start num. interpolation iter.  ....    10
   Max. Number of Micro iterations      ....    24
   Max. Number of Macro iterations      .... Maxiter - #DIIS iter
   Number of Davidson start vectors     ....     2
   Converg. threshold    (grad. norm)   ....   1.000e-04
   Grad. Scal. Fac. for Micro threshold ....   0.100
   Minimum threshold for Micro iter.    ....   1.000e-02
   NR start threshold (gradient norm)   ....   1.000e-04
   Initial trust radius                 ....   0.400
   Minimum AH scaling param. (alpha)    ....   1.000
   Maximum AH scaling param. (alpha)    .... 1000.000
   Quad. conv. algorithm                .... NR
   White noise on init. David. guess    .... on
   Maximum white noise                  ....   0.010
   Pseudo random numbers                .... off
   Inactive MOs                         .... canonical
   Orbital update algorithm             .... Taylor
   Preconditioner                       .... Diag
   Full preconditioner red. dimension   ....   250
 SOSCF                  CNVSOSCF        .... on
   Start iteration      SOSCFMaxIt      ....   150
   Startup grad/error   SOSCFStart      ....  0.003300
   Hessian update       SOSCFHessUp     .... L-BFGS
 Level Shifting         CNVShift        .... on
   Level shift para.    LevelShift      ....    0.2500
   Turn off err/grad.   ShiftErr        ....    0.0010
 Zerner damping         CNVZerner       .... off
 Static damping         CNVDamp         .... on
   Fraction old density DampFac         ....    0.7000
   Max. Damping (<1)    DampMax         ....    0.9800
   Min. Damping (>=0)   DampMin         ....    0.0000
   Turn off err/grad.   DampErr         ....    0.1000

SCF Procedure:
 Maximum # iterations   MaxIter         ....   125
 SCF integral mode      SCFMode         .... Direct
   Integral package                     .... SHARK and LIBINT hybrid scheme
 Reset frequency        DirectResetFreq ....    20
 Integral Threshold     Thresh          ....  3.000e-11 Eh
 Primitive CutOff       TCut            ....  1.000e-12 Eh

Convergence Tolerance:
 Convergence Check Mode ConvCheckMode   .... Total+1el-Energy
 Convergence forced     ConvForced      .... 0
 Energy Change          TolE            ....  1.000e-07 Eh
 1-El. energy change                    ....  1.000e-04 Eh
 Orbital Gradient       TolG            ....  1.000e-04
 Orbital Rotation angle TolX            ....  1.000e-04
 DIIS Error             TolErr          ....  1.000e-07

---------------------
INITIAL GUESS: MOREAD
---------------------
Guess MOs are being read from file: sp.ges
Input Geometry matches current geometry (good)
Atom 0: N(Shells)= 11 and 9 - projection required
Input basis set needs projection
NBasis(read)= 195
NBasis(calc)= 296
Basis set overlap was calculated
Using GuessMode=FMatrix for the initial guess
C*T matrix was formed
Effective Fockian was calculated
Effective Fockian was diagonalized
Initial density was built
                      ------------------
                      INITIAL GUESS DONE (   0.0 sec)
                      ------------------
             **** ENERGY FILE WAS UPDATED (sp.en.tmp) ****
Finished Guess after   0.1 sec
Maximum memory used throughout the entire GUESS-calculation: 28.0 MB

-------------------------------------------------------------------------------------------
                                      ORCA LEAN-SCF
                              memory conserving SCF solver
-------------------------------------------------------------------------------------------

----------------------------------------D-I-I-S--------------------------------------------
Iteration    Energy (Eh)           Delta-E    RMSDP     MaxDP     DIISErr   Damp  Time(sec)
-------------------------------------------------------------------------------------------
               ***  Starting incremental Fock matrix formation  ***
    1    -731.3639056874535527     0.00e+00  1.63e-03  4.66e-02  5.46e-02  0.700   9.7
    2    -731.3692976977556555    -5.39e-03  1.40e-03  4.20e-02  4.06e-02  0.700   4.9
                               ***Turning on AO-DIIS***
    3    -731.3733437137436795    -4.05e-03  1.16e-03  3.55e-02  2.94e-02  0.700   4.9
    4    -731.3763108037558140    -2.97e-03  2.90e-03  8.94e-02  2.08e-02  0.000   4.9
                              *** Initializing SOSCF ***
---------------------------------------S-O-S-C-F--------------------------------------
Iteration    Energy (Eh)           Delta-E    RMSDP     MaxDP     MaxGrad    Time(sec)
--------------------------------------------------------------------------------------
    5    -731.3838161676442269    -7.51e-03  1.62e-04  7.08e-03  1.36e-03     6.4
               *** Restarting incremental Fock matrix formation ***
    6    -731.3838278699397506    -1.17e-05  7.55e-05  2.85e-03  4.75e-04    28.8
    7    -731.3838341887860679    -6.32e-06  3.88e-05  1.41e-03  1.72e-04    26.8
    8    -731.3838351215838429    -9.33e-07  3.63e-06  9.88e-05  4.78e-05    26.6
    9    -731.3838351716046873    -5.00e-08  2.31e-06  7.69e-05  3.47e-05    11.6
                 **** Energy Check signals convergence ****

               *****************************************************
               *                     SUCCESS                       *
               *           SCF CONVERGED AFTER   9 CYCLES          *
               *****************************************************


------------------
NL GRID GENERATION
------------------

General Integration Accuracy     IntAcc      ... 4.004
Radial Grid Type                 RadialGrid  ... OptM3 with GC (2021)
Angular Grid (max. ang.)         AngularGrid ... 2 (Lebedev-110)
Angular grid pruning method      GridPruning ... 4 (adaptive)
Weight generation scheme         WeightScheme... mBecke (2022)
Basis function cutoff            BFCut       ... 1.0000e-10
Integration weight cutoff        WCut        ... 1.0000e-14
Partially contracted basis set               ... off
Rotationally invariant grid construction     ... off
Angular grids for H and He will be reduced by one unit

Total number of grid points                  ...    22654
Total number of batches                      ...      362
Average number of points per batch           ...       62
Average number of grid points per atom       ...     1510
Final grid set up in    1.4 sec

-------------------------------------------------------------------------------
                    post-SCF DFT-NL dispersion correction                      
-------------------------------------------------------------------------------

SCF Energy:     -731.383835172 
NL    Energy:      0.254227705 
SC+NL Energy:   -731.129607466 
NL done in  :              6.5 sec
-------------------------------------------------------------------------------
Recomputing exchange energy using gridx3       ... done (   68.346 sec)
Old exchange energy                            :    -19.714048426 Eh
New exchange energy                            :    -19.714037887 Eh
Exchange energy change after final integration :      0.000010539 Eh
Total energy after final integration           :   -731.129596928 Eh
             **** ENERGY FILE WAS UPDATED (sp.en.tmp) ****

----------------
TOTAL SCF ENERGY
----------------

Total Energy       :       -731.12959692750542 Eh          -19895.04778 eV

Components:
Nuclear Repulsion  :        402.25474988564361 Eh           10945.90822 eV
Electronic Energy  :      -1133.63858505724829 Eh          -30847.87418 eV
One Electron Energy:      -1797.85031728908302 Eh          -48921.99428 eV
Two Electron Energy:        664.21173223183473 Eh           18074.12010 eV

Virial components:
Potential Energy   :      -1460.45752508853548 Eh          -39741.06965 eV
Kinetic Energy     :        729.32792816102994 Eh           19846.02188 eV
Virial Ratio       :          2.00247031369143

DFT components:
N(Alpha)           :       32.999986341694 electrons
N(Beta)            :       32.999986341694 electrons
N(Total)           :       65.999972683387 electrons
E(X)               :      -46.408589644221 Eh       
E(C)               :       -2.901373592052 Eh       
NL Energy, E(C,NL) :        0.254227705176 Eh       
E(XC)              :      -49.055735531097 Eh       

---------------
SCF CONVERGENCE
---------------

  Last Energy change         ...    5.0021e-08  Tolerance :   1.0000e-07
  Last MAX-Density change    ...    7.6869e-05  Tolerance :   1.0000e-05
  Last RMS-Density change    ...    2.3119e-06  Tolerance :   1.0000e-06
  Last DIIS Error            ...    1.3643e-03  Tolerance :   1.0000e-07
  Last Orbital Gradient      ...    3.4742e-05  Tolerance :   1.0000e-04
  Last Orbital Rotation      ...    5.1553e-05  Tolerance :   1.0000e-04


----------------
ORBITAL ENERGIES
----------------

  NO   OCC          E(Eh)            E(eV) 
   0   2.0000    -101.519704     -2762.4916 
   1   2.0000     -10.338499      -281.3249 
   2   2.0000     -10.299104      -280.2529 
   3   2.0000     -10.287892      -279.9478 
   4   2.0000     -10.284633      -279.8591 
   5   2.0000     -10.284163      -279.8463 
   6   2.0000     -10.283104      -279.8175 
   7   2.0000     -10.273953      -279.5685 
   8   2.0000      -9.559291      -260.1215 
   9   2.0000      -7.314201      -199.0295 
  10   2.0000      -7.305396      -198.7899 
  11   2.0000      -7.304994      -198.7790 
  12   2.0000      -1.031637       -28.0723 
  13   2.0000      -0.970824       -26.4175 
  14   2.0000      -0.919302       -25.0155 
  15   2.0000      -0.870214       -23.6797 
  16   2.0000      -0.823886       -22.4191 
  17   2.0000      -0.739068       -20.1111 
  18   2.0000      -0.714147       -19.4329 
  19   2.0000      -0.634117       -17.2552 
  20   2.0000      -0.597125       -16.2486 
  21   2.0000      -0.574978       -15.6459 
  22   2.0000      -0.549328       -14.9480 
  23   2.0000      -0.538791       -14.6612 
  24   2.0000      -0.529331       -14.4038 
  25   2.0000      -0.504662       -13.7326 
  26   2.0000      -0.492854       -13.4112 
  27   2.0000      -0.466026       -12.6812 
  28   2.0000      -0.457705       -12.4548 
  29   2.0000      -0.444870       -12.1055 
  30   2.0000      -0.417085       -11.3495 
  31   2.0000      -0.352997        -9.6055 
  32   2.0000      -0.338678        -9.2159 
  33   0.0000       0.056964         1.5501 
  34   0.0000       0.060606         1.6492 
  35   0.0000       0.110818         3.0155 
  36   0.0000       0.125852         3.4246 
  37   0.0000       0.148944         4.0530 
  38   0.0000       0.152770         4.1571 
  39   0.0000       0.177527         4.8307 
  40   0.0000       0.183078         4.9818 
  41   0.0000       0.195715         5.3257 
  42   0.0000       0.206814         5.6277 
  43   0.0000       0.224366         6.1053 
*Only the first 10 virtual orbitals were printed.

                    ********************************
                    * MULLIKEN POPULATION ANALYSIS *
                    ********************************

-----------------------
MULLIKEN ATOMIC CHARGES
-----------------------
   0 C :   -0.345580
   1 C :    0.095009
   2 C :   -0.183469
   3 C :   -0.109627
   4 C :   -0.128040
   5 C :   -0.171951
   6 C :    0.070743
   7 Cl:   -0.099774
   8 H :    0.132573
   9 H :    0.114139
  10 H :    0.132574
  11 H :    0.118574
  12 H :    0.121279
  13 H :    0.121886
  14 H :    0.131664
Sum of atomic charges:    0.0000000

--------------------------------
MULLIKEN REDUCED ORBITAL CHARGES
--------------------------------
  0 C s       :     3.256572  s :     3.256572
      pz      :     1.072380  p :     3.029844
      px      :     1.019619
      py      :     0.937845
      dz2     :     0.005625  d :     0.055839
      dxz     :     0.017107
      dyz     :     0.008412
      dx2y2   :     0.014069
      dxy     :     0.010626
      f0      :     0.000298  f :     0.003324
      f+1     :     0.001009
      f-1     :     0.000021
      f+2     :     0.000040
      f-2     :     0.000374
      f+3     :     0.000842
      f-3     :     0.000739

  1 C s       :     3.179744  s :     3.179744
      pz      :     0.914135  p :     2.565303
      px      :     0.867454
      py      :     0.783714
      dz2     :     0.006128  d :     0.149802
      dxz     :     0.026576
      dyz     :     0.022945
      dx2y2   :     0.044009
      dxy     :     0.050145
      f0      :     0.001779  f :     0.010142
      f+1     :     0.000725
      f-1     :     0.000763
      f+2     :     0.001100
      f-2     :     0.000993
      f+3     :     0.001563
      f-3     :     0.003218

  2 C s       :     3.186664  s :     3.186664
      pz      :     0.981062  p :     2.898183
      px      :     0.918976
      py      :     0.998144
      dz2     :     0.004959  d :     0.091056
      dxz     :     0.021024
      dyz     :     0.007628
      dx2y2   :     0.029648
      dxy     :     0.027796
      f0      :     0.001607  f :     0.007567
      f+1     :     0.000620
      f-1     :     0.000658
      f+2     :     0.000718
      f-2     :     0.000632
      f+3     :     0.001182
      f-3     :     0.002150

  3 C s       :     3.160817  s :     3.160817
      pz      :     0.964693  p :     2.854740
      px      :     0.969484
      py      :     0.920563
      dz2     :     0.004543  d :     0.086594
      dxz     :     0.005495
      dyz     :     0.023430
      dx2y2   :     0.030965
      dxy     :     0.022161
      f0      :     0.001624  f :     0.007475
      f+1     :     0.000696
      f-1     :     0.000599
      f+2     :     0.000236
      f-2     :     0.001115
      f+3     :     0.001163
      f-3     :     0.002042

  4 C s       :     3.176156  s :     3.176156
      pz      :     0.968855  p :     2.859309
      px      :     0.932235
      py      :     0.958218
      dz2     :     0.004665  d :     0.085101
      dxz     :     0.017455
      dyz     :     0.011372
      dx2y2   :     0.023007
      dxy     :     0.028601
      f0      :     0.001635  f :     0.007475
      f+1     :     0.000635
      f-1     :     0.000667
      f+2     :     0.001077
      f-2     :     0.000265
      f+3     :     0.001193
      f-3     :     0.002002

  5 C s       :     3.195100  s :     3.195100
      pz      :     0.971842  p :     2.878798
      px      :     0.961795
      py      :     0.945160
      dz2     :     0.005422  d :     0.090404
      dxz     :     0.020803
      dyz     :     0.009211
      dx2y2   :     0.022383
      dxy     :     0.032585
      f0      :     0.001667  f :     0.007649
      f+1     :     0.000666
      f-1     :     0.000698
      f+2     :     0.000749
      f-2     :     0.000667
      f+3     :     0.001247
      f-3     :     0.001956

  6 C s       :     3.140598  s :     3.140598
      pz      :     1.002123  p :     2.608207
      px      :     0.776191
      py      :     0.829893
      dz2     :     0.006737  d :     0.169692
      dxz     :     0.026534
      dyz     :     0.025713
      dx2y2   :     0.057714
      dxy     :     0.052994
      f0      :     0.002008  f :     0.010760
      f+1     :     0.001033
      f-1     :     0.000678
      f+2     :     0.000963
      f-2     :     0.001078
      f+3     :     0.001758
      f-3     :     0.003241

  7 Cls       :     5.864220  s :     5.864220
      pz      :     3.932527  p :    11.172998
      px      :     3.286807
      py      :     3.953665
      dz2     :     0.007527  d :     0.057250
      dxz     :     0.016368
      dyz     :     0.000499
      dx2y2   :     0.022604
      dxy     :     0.010252
      f0      :     0.000530  f :     0.005305
      f+1     :     0.001020
      f-1     :     0.000093
      f+2     :     0.000769
      f-2     :     0.000068
      f+3     :     0.001692
      f-3     :     0.001133

  8 H s       :     0.846266  s :     0.846266
      pz      :     0.009656  p :     0.021161
      px      :     0.007530
      py      :     0.003974

  9 H s       :     0.864474  s :     0.864474
      pz      :     0.004268  p :     0.021387
      px      :     0.006368
      py      :     0.010751

 10 H s       :     0.846266  s :     0.846266
      pz      :     0.009651  p :     0.021161
      px      :     0.007536
      py      :     0.003974

 11 H s       :     0.859358  s :     0.859358
      pz      :     0.004558  p :     0.022067
      px      :     0.005196
      py      :     0.012314

 12 H s       :     0.856659  s :     0.856659
      pz      :     0.004537  p :     0.022063
      px      :     0.013882
      py      :     0.003644

 13 H s       :     0.856002  s :     0.856002
      pz      :     0.004561  p :     0.022112
      px      :     0.007148
      py      :     0.010403

 14 H s       :     0.846070  s :     0.846070
      pz      :     0.004468  p :     0.022266
      px      :     0.005416
      py      :     0.012382


------------------------
MULLIKEN OVERLAP CHARGES
------------------------
B(  0-C ,  1-C ) :   0.6758 B(  0-C ,  2-C ) :  -0.1915 B(  0-C ,  6-C ) :  -0.2067 
B(  0-C ,  8-H ) :   0.8221 B(  0-C ,  9-H ) :   0.8463 B(  0-C , 10-H ) :   0.8221 
B(  1-C ,  2-C ) :   0.7755 B(  1-C ,  3-C ) :   0.0788 B(  1-C ,  4-C ) :  -0.2536 
B(  1-C ,  5-C ) :   0.1815 B(  1-C ,  6-C ) :   0.5556 B(  1-C ,  7-Cl) :  -0.1874 
B(  1-C ,  8-H ) :  -0.0628 B(  1-C ,  9-H ) :  -0.1255 B(  1-C , 10-H ) :  -0.0628 
B(  1-C , 11-H ) :  -0.0934 B(  2-C ,  3-C ) :   0.8655 B(  2-C ,  4-C ) :   0.1114 
B(  2-C ,  5-C ) :  -0.2961 B(  2-C ,  6-C ) :   0.1658 B(  2-C , 11-H ) :   0.8381 
B(  2-C , 12-H ) :  -0.0942 B(  3-C ,  4-C ) :   0.9057 B(  3-C ,  5-C ) :   0.0836 
B(  3-C ,  6-C ) :  -0.2292 B(  3-C , 11-H ) :  -0.0806 B(  3-C , 12-H ) :   0.8603 
B(  3-C , 13-H ) :  -0.0949 B(  4-C ,  5-C ) :   0.8219 B(  4-C ,  6-C ) :   0.1638 
B(  4-C , 12-H ) :  -0.0940 B(  4-C , 13-H ) :   0.8573 B(  4-C , 14-H ) :  -0.1077 
B(  5-C ,  6-C ) :   0.6146 B(  5-C ,  7-Cl) :  -0.0793 B(  5-C , 13-H ) :  -0.0938 
B(  5-C , 14-H ) :   0.8834 B(  6-C ,  7-Cl) :   0.6723 B(  6-C , 14-H ) :  -0.1335 
B(  8-H , 10-H ) :  -0.0635 


                     *******************************
                     * LOEWDIN POPULATION ANALYSIS *
                     *******************************

----------------------
LOEWDIN ATOMIC CHARGES
----------------------
   0 C :   -0.257908
   1 C :   -0.172553
   2 C :   -0.111446
   3 C :   -0.138745
   4 C :   -0.138792
   5 C :   -0.142724
   6 C :   -0.377398
   7 Cl:    0.375719
   8 H :    0.129722
   9 H :    0.124804
  10 H :    0.129715
  11 H :    0.145699
  12 H :    0.143344
  13 H :    0.143769
  14 H :    0.146794

-------------------------------
LOEWDIN REDUCED ORBITAL CHARGES
-------------------------------
  0 C s       :     2.813903  s :     2.813903
      pz      :     1.074213  p :     3.165214
      px      :     1.054419
      py      :     1.036582
      dz2     :     0.034520  d :     0.253841
      dxz     :     0.072006
      dyz     :     0.024987
      dx2y2   :     0.056504
      dxy     :     0.065824
      f0      :     0.001961  f :     0.024949
      f+1     :     0.003852
      f-1     :     0.002864
      f+2     :     0.003457
      f-2     :     0.002480
      f+3     :     0.005339
      f-3     :     0.004995

  1 C s       :     2.714915  s :     2.714915
      pz      :     0.832984  p :     2.877618
      px      :     1.036575
      py      :     1.008059
      dz2     :     0.033097  d :     0.522205
      dxz     :     0.078572
      dyz     :     0.075670
      dx2y2   :     0.162246
      dxy     :     0.172619
      f0      :     0.004285  f :     0.057815
      f+1     :     0.004096
      f-1     :     0.004220
      f+2     :     0.007696
      f-2     :     0.006634
      f+3     :     0.010140
      f-3     :     0.020744

  2 C s       :     2.756185  s :     2.756185
      pz      :     0.890607  p :     2.927270
      px      :     1.033448
      py      :     1.003215
      dz2     :     0.025874  d :     0.385505
      dxz     :     0.067964
      dyz     :     0.022496
      dx2y2   :     0.132601
      dxy     :     0.136570
      f0      :     0.003003  f :     0.042485
      f+1     :     0.004078
      f-1     :     0.003306
      f+2     :     0.004726
      f-2     :     0.004186
      f+3     :     0.008485
      f-3     :     0.014700

  3 C s       :     2.762176  s :     2.762176
      pz      :     0.884496  p :     2.946604
      px      :     0.991899
      py      :     1.070208
      dz2     :     0.025141  d :     0.386633
      dxz     :     0.013324
      dyz     :     0.079730
      dx2y2   :     0.162451
      dxy     :     0.105987
      f0      :     0.003109  f :     0.043333
      f+1     :     0.003193
      f-1     :     0.004299
      f+2     :     0.001632
      f-2     :     0.007543
      f+3     :     0.008735
      f-3     :     0.014822

  4 C s       :     2.762056  s :     2.762056
      pz      :     0.886926  p :     2.945669
      px      :     1.038606
      py      :     1.020138
      dz2     :     0.025310  d :     0.387569
      dxz     :     0.057457
      dyz     :     0.035802
      dx2y2   :     0.109089
      dxy     :     0.159912
      f0      :     0.003113  f :     0.043499
      f+1     :     0.003923
      f-1     :     0.003586
      f+2     :     0.007383
      f-2     :     0.001850
      f+3     :     0.008720
      f-3     :     0.014925

  5 C s       :     2.764179  s :     2.764179
      pz      :     0.888262  p :     2.950753
      px      :     1.064451
      py      :     0.998040
      dz2     :     0.026283  d :     0.384342
      dxz     :     0.070154
      dyz     :     0.025689
      dx2y2   :     0.120611
      dxy     :     0.141604
      f0      :     0.003287  f :     0.043449
      f+1     :     0.004202
      f-1     :     0.003506
      f+2     :     0.005055
      f-2     :     0.004788
      f+3     :     0.008862
      f-3     :     0.013749

  6 C s       :     2.773221  s :     2.773221
      pz      :     0.926582  p :     2.945936
      px      :     0.931256
      py      :     1.088098
      dz2     :     0.041320  d :     0.596569
      dxz     :     0.084169
      dyz     :     0.080116
      dx2y2   :     0.218225
      dxy     :     0.172740
      f0      :     0.004246  f :     0.061672
      f+1     :     0.005041
      f-1     :     0.004479
      f+2     :     0.006414
      f-2     :     0.007428
      f+3     :     0.012178
      f-3     :     0.021885

  7 Cls       :     5.546019  s :     5.546019
      pz      :     3.858660  p :    10.973326
      px      :     3.272831
      py      :     3.841834
      dz2     :     0.011555  d :     0.094030
      dxz     :     0.027152
      dyz     :     0.000499
      dx2y2   :     0.035264
      dxy     :     0.019560
      f0      :     0.001140  f :     0.010906
      f+1     :     0.001784
      f-1     :     0.000199
      f+2     :     0.001803
      f-2     :     0.000125
      f+3     :     0.003117
      f-3     :     0.002737

  8 H s       :     0.809611  s :     0.809611
      pz      :     0.027886  p :     0.060667
      px      :     0.020666
      py      :     0.012115

  9 H s       :     0.815376  s :     0.815376
      pz      :     0.013299  p :     0.059820
      px      :     0.019497
      py      :     0.027023

 10 H s       :     0.809617  s :     0.809617
      pz      :     0.027873  p :     0.060668
      px      :     0.020680
      py      :     0.012115

 11 H s       :     0.796292  s :     0.796292
      pz      :     0.013354  p :     0.058009
      px      :     0.014155
      py      :     0.030501

 12 H s       :     0.798511  s :     0.798511
      pz      :     0.013115  p :     0.058145
      px      :     0.034064
      py      :     0.010966

 13 H s       :     0.798025  s :     0.798025
      pz      :     0.013142  p :     0.058206
      px      :     0.018767
      py      :     0.026297

 14 H s       :     0.794142  s :     0.794142
      pz      :     0.013198  p :     0.059065
      px      :     0.014775
      py      :     0.031092


---------------------------------
LOEWDIN BOND ORDERS (THRESH 0.050000)
---------------------------------
B(  0-C ,  1-C ) :   1.2178 B(  0-C ,  2-C ) :   0.1769 B(  0-C ,  6-C ) :   0.1702 
B(  0-C ,  7-Cl) :   0.0520 B(  0-C ,  8-H ) :   0.8897 B(  0-C ,  9-H ) :   0.8908 
B(  0-C , 10-H ) :   0.8898 B(  1-C ,  2-C ) :   1.4791 B(  1-C ,  3-C ) :   0.2321 
B(  1-C ,  4-C ) :   0.1001 B(  1-C ,  5-C ) :   0.2254 B(  1-C ,  6-C ) :   1.4498 
B(  1-C ,  7-Cl) :   0.1514 B(  1-C ,  8-H ) :   0.0828 B(  1-C ,  9-H ) :   0.0842 
B(  1-C , 10-H ) :   0.0828 B(  1-C , 11-H ) :   0.0942 B(  2-C ,  3-C ) :   1.5829 
B(  2-C ,  4-C ) :   0.2454 B(  2-C ,  5-C ) :   0.1093 B(  2-C ,  6-C ) :   0.2407 
B(  2-C , 11-H ) :   0.8201 B(  2-C , 12-H ) :   0.0969 B(  3-C ,  4-C ) :   1.5795 
B(  3-C ,  5-C ) :   0.2446 B(  3-C ,  6-C ) :   0.1069 B(  3-C , 11-H ) :   0.0954 
B(  3-C , 12-H ) :   0.8301 B(  3-C , 13-H ) :   0.0949 B(  4-C ,  5-C ) :   1.5784 
B(  4-C ,  6-C ) :   0.2471 B(  4-C , 12-H ) :   0.0954 B(  4-C , 13-H ) :   0.8296 
B(  4-C , 14-H ) :   0.0946 B(  5-C ,  6-C ) :   1.5520 B(  5-C ,  7-Cl) :   0.1689 
B(  5-C , 13-H ) :   0.0972 B(  5-C , 14-H ) :   0.8245 B(  6-C ,  7-Cl) :   1.5737 
B(  6-C , 14-H ) :   0.0979 

------------------------------------------
LOEWDIN REDUCED ORBITAL POPULATIONS PER MO
-------------------------------------------
THRESHOLD FOR PRINTING IS 0.1%%
                      0         1         2         3         4         5   
                 -101.51970 -10.33850 -10.29910 -10.28789 -10.28463 -10.28416
                   2.00000   2.00000   2.00000   2.00000   2.00000   2.00000
                  --------  --------  --------  --------  --------  --------
 0 C  dxy             0.0       0.0       0.1       0.0       0.0       0.0
 1 C  s               0.0       0.0      98.6       0.0       0.0       0.0
 1 C  px              0.0       0.0       0.0       0.0       0.0       0.1
 1 C  py              0.0       0.1       0.0       0.0       0.0       0.0
 1 C  dx2y2           0.0       0.1       0.0       0.0       0.0       0.2
 1 C  dxy             0.0       0.1       0.0       0.0       0.0       0.0
 2 C  s               0.0       0.0       0.0       0.0       0.9      90.9
 2 C  px              0.0       0.0       0.1       0.0       0.0       0.0
 2 C  dx2y2           0.0       0.0       0.2       0.0       0.0       0.0
 3 C  s               0.0       0.0       0.0       0.0       4.3       5.8
 3 C  py              0.0       0.0       0.0       0.0       0.1       0.1
 3 C  dx2y2           0.0       0.0       0.0       0.0       0.1       0.0
 3 C  dxy             0.0       0.0       0.0       0.0       0.1       0.2
 4 C  s               0.0       0.0       0.0       0.7      92.9       2.1
 4 C  px              0.0       0.0       0.0       0.1       0.0       0.0
 4 C  dx2y2           0.0       0.0       0.0       0.2       0.0       0.0
 5 C  s               0.0       0.0       0.0      98.0       0.7       0.0
 5 C  px              0.0       0.0       0.0       0.0       0.1       0.0
 5 C  dx2y2           0.0       0.0       0.0       0.0       0.2       0.0
 5 C  dxy             0.0       0.2       0.0       0.0       0.0       0.0
 6 C  s               0.0      98.8       0.0       0.0       0.0       0.0
 6 C  py              0.0       0.0       0.1       0.1       0.0       0.0
 6 C  dx2y2           0.0       0.0       0.1       0.0       0.0       0.0
 6 C  dxy             0.0       0.0       0.1       0.2       0.0       0.0
 7 Cl s             100.0       0.0       0.0       0.0       0.0       0.0

                      6         7         8         9        10        11   
                 -10.28310 -10.27395  -9.55929  -7.31420  -7.30540  -7.30499
                   2.00000   2.00000   2.00000   2.00000   2.00000   2.00000
                  --------  --------  --------  --------  --------  --------
 0 C  s               0.0      99.4       0.0       0.0       0.0       0.0
 1 C  dxy             0.0       0.1       0.0       0.0       0.0       0.0
 2 C  s               7.0       0.0       0.0       0.0       0.0       0.0
 2 C  dxy             0.2       0.0       0.0       0.0       0.0       0.0
 3 C  s              88.8       0.0       0.0       0.0       0.0       0.0
 4 C  s               3.1       0.0       0.0       0.0       0.0       0.0
 4 C  dxy             0.1       0.0       0.0       0.0       0.0       0.0
 6 C  px              0.0       0.0       0.1       0.0       0.0       0.0
 7 Cl s               0.0       0.0      99.7       0.0       0.0       0.0
 7 Cl pz              0.0       0.0       0.0       0.0     100.0       0.0
 7 Cl px              0.0       0.0       0.0      98.0       0.0       1.9
 7 Cl py              0.0       0.0       0.0       1.9       0.0      98.1

                     12        13        14        15        16        17   
                  -1.03164  -0.97082  -0.91930  -0.87021  -0.82389  -0.73907
                   2.00000   2.00000   2.00000   2.00000   2.00000   2.00000
                  --------  --------  --------  --------  --------  --------
 0 C  s               2.1       0.2      13.6       1.8      19.3       0.7
 0 C  px              0.3       0.4       0.9       0.0       0.5       0.3
 0 C  py              1.6       0.0       1.0       0.1       0.5       2.0
 0 C  dz2             0.1       0.0       0.1       0.0       0.0       0.0
 0 C  dx2y2           0.0       0.0       0.0       0.1       0.0       0.4
 0 C  dxy             0.1       0.1       0.3       0.0       0.1       0.0
 1 C  s              11.1       1.7      13.5       0.8       0.7       1.5
 1 C  px              0.1       4.4       0.1       3.6       5.0       6.9
 1 C  py              2.3       0.2       3.6       0.4       8.4       7.6
 1 C  dz2             0.7       0.1       0.4       0.0       0.0       0.0
 1 C  dx2y2           0.0       0.1       0.1       1.7       0.1       0.4
 1 C  dxy             0.1       0.3       0.1       0.0       1.5       0.1
 1 C  f+3             0.1       0.0       0.2       0.0       0.0       0.0
 2 C  s               5.6       7.8       3.5       8.2       3.4       7.2
 2 C  px              1.0       0.0       3.9       4.3       0.4       0.4
 2 C  py              1.1       1.4       1.4       0.7       0.0       4.4
 2 C  dz2             0.3       0.3       0.1       0.1       0.0       0.0
 2 C  dx2y2           0.1       0.0       0.9       0.1       0.1       0.0
 2 C  dxy             0.0       0.2       0.0       0.7       0.6       0.0
 3 C  s               4.1       9.8       1.5      12.9       1.0       1.4
 3 C  px              1.7       1.3       0.0       0.1       0.5       0.6
 3 C  py              0.0       0.0       4.3       1.8       6.0       7.4
 3 C  dz2             0.2       0.4       0.0       0.2       0.0       0.0
 3 C  dx2y2           0.0       0.1       0.1       0.2       0.2       0.0
 3 C  dxy             0.0       0.0       0.8       0.5       0.7       0.3
 4 C  s               4.8       7.0      10.1       0.0       8.4       1.0
 4 C  px              1.2       0.0       0.7       6.4       0.7       6.7
 4 C  py              0.8       1.6       0.1       3.4       0.2       2.2
 4 C  dz2             0.3       0.3       0.2       0.0       0.0       0.0
 4 C  dx2y2           0.0       0.1       0.2       1.6       0.0       0.3
 4 C  dxy             0.0       0.1       0.1       0.2       0.2       0.0
 5 C  s               9.1       1.1       8.5      10.1       0.1       7.2
 5 C  px              0.3       4.7       1.2       0.3       4.5       0.7
 5 C  py              3.0       0.1       0.1       0.3       1.7       3.6
 5 C  dz2             0.5       0.1       0.2       0.1       0.0       0.0
 5 C  dx2y2           0.0       0.0       0.6       0.1       1.0       0.0
 5 C  dxy             0.3       0.4       0.0       0.3       0.2       0.0
 5 C  f+3             0.1       0.0       0.1       0.1       0.0       0.0
 6 C  s              20.7       1.3       0.0       4.7       3.7       2.5
 6 C  px              0.3      14.7       0.0       5.3       1.6       0.0
 6 C  py              0.0       0.3       9.9       0.5       0.1      13.0
 6 C  dz2             1.3       0.1       0.0       0.0       0.0       0.0
 6 C  dx2y2           0.2       1.3       0.6       1.9       0.1       0.0
 6 C  dxy             0.0       0.1       0.8       0.8       0.3       0.2
 6 C  f+1             0.0       0.1       0.0       0.0       0.0       0.0
 6 C  f+3             0.3       0.1       0.0       0.0       0.0       0.0
 7 Cl s              17.5      33.0       1.0      13.2       1.8       1.3
 7 Cl px              1.5       0.2       0.0       1.5       0.7       0.9
 7 Cl py              0.0       0.0       0.2       0.0       0.0       1.0
 7 Cl dx2y2           0.2       0.1       0.0       0.1       0.1       0.0
 7 Cl dxy             0.0       0.0       0.0       0.0       0.0       0.2
 8 H  s               0.4       0.0       2.7       0.4       6.1       0.2
 8 H  pz              0.0       0.0       0.2       0.0       0.4       0.0
 8 H  px              0.0       0.0       0.1       0.0       0.2       0.0
 9 H  s               0.3       0.1       3.0       0.3       5.8       1.4
 9 H  px              0.0       0.0       0.1       0.0       0.2       0.0
 9 H  py              0.0       0.0       0.2       0.0       0.4       0.1
10 H  s               0.4       0.0       2.7       0.4       6.1       0.2
10 H  pz              0.0       0.0       0.2       0.0       0.4       0.0
10 H  px              0.0       0.0       0.1       0.0       0.2       0.0
11 H  s               0.7       1.1       1.0       2.1       0.6       6.4
11 H  py              0.0       0.1       0.1       0.2       0.1       0.4
12 H  s               0.5       1.5       0.3       3.4       0.5       0.7
12 H  px              0.0       0.1       0.0       0.3       0.0       0.1
13 H  s               0.6       1.0       2.0       0.0       3.3       0.5
13 H  py              0.0       0.1       0.1       0.0       0.2       0.1
14 H  s               1.4       0.0       1.8       2.3       0.1       6.0
14 H  py              0.1       0.0       0.1       0.2       0.0       0.4

                     18        19        20        21        22        23   
                  -0.71415  -0.63412  -0.59713  -0.57498  -0.54933  -0.53879
                   2.00000   2.00000   2.00000   2.00000   2.00000   2.00000
                  --------  --------  --------  --------  --------  --------
 0 C  s               2.5       0.6       0.0       0.1       0.0       0.0
 0 C  pz              0.0       0.0       0.0       0.0      32.1       0.0
 0 C  px              2.4       1.8       6.8       1.9       0.0       0.7
 0 C  py              1.6       3.4       2.7       3.8       0.0       0.0
 0 C  dz2             0.2       0.1       0.1       0.0       0.0       0.0
 0 C  dxz             0.0       0.0       0.0       0.0       0.5       0.0
 0 C  dyz             0.0       0.0       0.0       0.0       0.2       0.0
 0 C  dx2y2           0.0       0.1       0.1       0.0       0.0       0.0
 0 C  dxy             0.3       0.2       0.0       0.4       0.0       0.0
 1 C  s               3.8       0.7       0.0       2.8       0.0       0.0
 1 C  pz              0.0       0.0       0.0       0.0      16.1       0.0
 1 C  px              3.1       1.9       6.8       0.0       0.0       1.4
 1 C  py              0.4       0.8       4.1       1.2       0.0       0.1
 1 C  dz2             0.0       0.0       0.0       0.2       0.0       0.0
 1 C  dxz             0.0       0.0       0.0       0.0       0.3       0.0
 1 C  dx2y2           0.4       0.0       0.5       0.0       0.0       1.6
 1 C  dxy             0.3       1.2       0.0       1.2       0.0       0.1
 1 C  f0              0.0       0.0       0.0       0.0       0.2       0.0
 1 C  f-3             0.0       0.0       0.0       0.0       0.0       0.3
 2 C  s               0.3       0.2       0.2       1.5       0.0       0.5
 2 C  pz              0.0       0.0       0.0       0.0       5.2       0.0
 2 C  px             11.6       0.8      10.2       3.9       0.0       1.3
 2 C  py              1.7       7.4       2.1       5.3       0.0      10.0
 2 C  dz2             0.0       0.0       0.0       0.0       0.0       0.1
 2 C  dxz             0.0       0.0       0.0       0.0       0.3       0.0
 2 C  dx2y2           0.1       0.3       0.0       1.5       0.0       0.1
 2 C  dxy             0.5       0.0       0.1       1.1       0.0       0.4
 3 C  s               6.0       0.4       0.0       1.7       0.0       0.2
 3 C  pz              0.0       0.0       0.0       0.0       2.2       0.0
 3 C  px              2.7      13.0       0.5       3.5       0.0      14.6
 3 C  py              3.2       0.0      13.9       0.1       0.0       0.2
 3 C  dxz             0.0       0.0       0.0       0.0       0.1       0.0
 3 C  dx2y2           0.2       0.2       0.0       2.3       0.0       0.4
 3 C  dxy             0.0       0.1       0.1       0.0       0.0       0.8
 3 C  f-3             0.0       0.0       0.1       0.0       0.0       0.2
 4 C  s               5.3       0.5       0.1       1.7       0.0       0.0
 4 C  pz              0.0       0.0       0.0       0.0       1.9       0.0
 4 C  px              0.3       5.9       9.9       0.2       0.0       2.9
 4 C  py              5.3       9.2       3.7       1.7       0.0       0.4
 4 C  dx2y2           0.0       0.0       0.1       0.1       0.0       1.7
 4 C  dxy             0.2       0.2       0.1       2.2       0.0       0.0
 4 C  f-3             0.0       0.0       0.1       0.0       0.0       0.4
 5 C  s               0.3       0.2       0.3       1.5       0.0       0.4
 5 C  pz              0.0       0.0       0.0       0.0       3.8       0.0
 5 C  px             11.7       1.9       8.1       1.9       0.0       2.6
 5 C  py              1.7       7.6       5.3       7.6       0.0      10.3
 5 C  dz2             0.0       0.0       0.0       0.0       0.0       0.1
 5 C  dyz             0.0       0.0       0.0       0.0       0.3       0.0
 5 C  dx2y2           0.3       0.0       0.1       1.1       0.0       0.0
 5 C  dxy             0.1       0.4       0.1       1.5       0.0       0.5
 6 C  s               3.2       0.6       0.2       2.1       0.0       0.1
 6 C  pz              0.0       0.0       0.0       0.0      10.8       0.0
 6 C  px              0.0       4.1       0.1       1.7       0.0       9.4
 6 C  py              5.0       0.3      11.2       0.2       0.0       0.1
 6 C  dz2             0.1       0.0       0.0       0.1       0.0       0.0
 6 C  dyz             0.0       0.0       0.0       0.0       0.2       0.0
 6 C  dx2y2           0.3       0.9       0.0       1.7       0.0       0.0
 6 C  dxy             0.4       0.0       0.3       0.1       0.0       0.9
 6 C  f0              0.0       0.0       0.0       0.0       0.1       0.0
 6 C  f-3             0.0       0.0       0.0       0.0       0.0       0.1
 7 Cl s               3.4       2.2       0.0       1.5       0.0       1.7
 7 Cl pz              0.0       0.0       0.0       0.0       4.9       0.0
 7 Cl px              4.0       7.2       0.5      10.1       0.0      15.3
 7 Cl py              0.0       0.1       3.4       0.7       0.0       0.0
 7 Cl dz2             0.1       0.1       0.0       0.1       0.0       0.1
 7 Cl dxz             0.0       0.0       0.0       0.0       0.2       0.0
 7 Cl dx2y2           0.3       0.2       0.1       0.3       0.0       0.2
 7 Cl dxy             0.0       0.0       0.2       0.0       0.0       0.0
 8 H  s               1.8       0.9       0.9       0.5       9.4       0.2
 8 H  pz              0.1       0.1       0.1       0.0       0.0       0.0
 8 H  px              0.0       0.0       0.0       0.0       0.3       0.0
 9 H  s               1.0       0.8       3.0       0.7       0.0       0.1
 9 H  pz              0.0       0.0       0.0       0.0       0.4       0.0
 9 H  py              0.0       0.0       0.1       0.0       0.0       0.0
10 H  s               1.8       0.9       0.9       0.5       9.4       0.2
10 H  pz              0.1       0.1       0.1       0.0       0.0       0.0
10 H  px              0.0       0.0       0.0       0.0       0.3       0.0
11 H  s               0.0       3.8       0.0       8.6       0.0       4.6
11 H  px              0.1       0.0       0.1       0.0       0.0       0.0
11 H  py              0.0       0.1       0.1       0.3       0.0       0.1
12 H  s               5.3       5.8       0.0       5.0       0.0       7.8
12 H  px              0.4       0.2       0.0       0.2       0.0       0.2
12 H  py              0.0       0.0       0.2       0.0       0.0       0.0
13 H  s               4.4       7.2       0.2       3.3       0.0       0.3
13 H  px              0.2       0.1       0.1       0.1       0.0       0.0
13 H  py              0.1       0.2       0.1       0.1       0.0       0.0
14 H  s               0.2       4.1       1.0       9.4       0.0       5.6
14 H  px              0.1       0.0       0.2       0.1       0.0       0.0
14 H  py              0.1       0.1       0.0       0.3       0.0       0.1

                     24        25        26        27        28        29   
                  -0.52933  -0.50466  -0.49285  -0.46603  -0.45770  -0.44487
                   2.00000   2.00000   2.00000   2.00000   2.00000   2.00000
                  --------  --------  --------  --------  --------  --------
 0 C  s               0.1       0.0       0.0       0.4       0.0       0.0
 0 C  pz              0.0       0.0      19.6       0.0       0.0       0.0
 0 C  px              7.5      20.2       0.0       3.0       4.8       0.0
 0 C  py              9.8      16.8       0.0       8.0       0.1       0.0
 0 C  dz2             0.1       0.6       0.0       0.0       0.2       0.0
 0 C  dxz             0.0       0.0       1.3       0.0       0.0       0.1
 0 C  dyz             0.0       0.0       0.1       0.0       0.0       0.0
 0 C  dx2y2           0.1       1.0       0.0       0.0       0.9       0.0
 0 C  dxy             0.2       0.9       0.0       0.3       0.2       0.0
 1 C  s               0.0       0.0       0.0       0.1       0.0       0.0
 1 C  pz              0.0       0.0       1.1       0.0       0.0       1.0
 1 C  px              5.8       0.1       0.0       2.0      10.1       0.0
 1 C  py             10.8       0.9       0.0       6.4       1.2       0.0
 1 C  dxz             0.0       0.0       0.5       0.0       0.0       0.8
 1 C  dyz             0.0       0.0       2.2       0.0       0.0       0.1
 1 C  dx2y2           0.0       1.3       0.0       0.1       1.5       0.0
 1 C  dxy             0.1       0.2       0.0       3.0       0.0       0.0
 1 C  f-2             0.0       0.0       0.2       0.0       0.0       0.0
 1 C  f-3             0.0       0.5       0.0       0.0       0.0       0.0
 2 C  s               0.2       0.3       0.0       0.0       0.1       0.0
 2 C  pz              0.0       0.0       3.6       0.0       0.0       9.2
 2 C  px              1.4       0.2       0.0       2.0       9.9       0.0
 2 C  py              2.0       3.4       0.0       7.4       0.6       0.0
 2 C  dyz             0.0       0.0       0.2       0.0       0.0       0.3
 2 C  dx2y2           0.5       0.3       0.0       0.6       1.7       0.0
 2 C  dxy             0.4       0.3       0.0       1.7       0.3       0.0
 2 C  f-3             0.3       0.0       0.0       0.0       0.0       0.0
 3 C  s               0.2       0.1       0.0       0.0       0.1       0.0
 3 C  pz              0.0       0.0       6.4       0.0       0.0      14.1
 3 C  px              1.6       0.3       0.0       0.9       8.0       0.0
 3 C  py              1.7       3.4       0.0      10.2       0.6       0.0
 3 C  dxz             0.0       0.0       0.2       0.0       0.0       0.2
 3 C  dx2y2           0.1       0.5       0.0       0.1       3.7       0.0
 3 C  dxy             1.1       0.0       0.0       0.4       0.1       0.0
 3 C  f-3             0.3       0.0       0.0       0.0       0.0       0.0
 4 C  s               0.3       0.0       0.0       0.0       0.0       0.0
 4 C  pz              0.0       0.0       9.5       0.0       0.0       9.1
 4 C  px              6.6       2.9       0.0       0.3       6.4       0.0
 4 C  py             11.2       1.4       0.0       8.1       1.3       0.0
 4 C  dxz             0.0       0.0       0.2       0.0       0.0       0.0
 4 C  dyz             0.0       0.0       0.1       0.0       0.0       0.4
 4 C  dx2y2           0.1       0.0       0.0       0.2       0.6       0.0
 4 C  dxy             1.0       0.0       0.0       3.0       0.1       0.0
 5 C  s               0.2       0.0       0.0       0.1       0.1       0.0
 5 C  pz              0.0       0.0      12.5       0.0       0.0       1.0
 5 C  px              3.0       3.6       0.0       0.2       5.9       0.0
 5 C  py              0.2       0.6       0.0       5.9       0.9       0.0
 5 C  dxz             0.0       0.0       0.0       0.0       0.0       0.9
 5 C  dyz             0.0       0.0       0.4       0.0       0.0       0.0
 5 C  dx2y2           0.7       0.0       0.0       0.7       1.1       0.0
 5 C  dxy             0.6       0.1       0.0       1.8       0.5       0.0
 5 C  f-3             0.3       0.0       0.0       0.0       0.0       0.0
 6 C  s               0.2       0.1       0.0       0.0       0.2       0.0
 6 C  pz              0.0       0.0      13.4       0.0       0.0       2.4
 6 C  px              4.6       1.2       0.0       0.4       2.9       0.0
 6 C  py              0.3       2.7       0.0       5.5       1.8       0.0
 6 C  dxz             0.0       0.0       0.0       0.0       0.0       2.8
 6 C  dyz             0.0       0.0       0.3       0.0       0.0       0.0
 6 C  dx2y2           0.1       0.5       0.0       0.1       2.9       0.0
 6 C  dxy             1.0       0.1       0.0       0.1       0.1       0.0
 6 C  f+2             0.0       0.0       0.0       0.0       0.0       0.1
 6 C  f-3             0.2       0.0       0.0       0.2       0.0       0.0
 7 Cl s               0.5       0.0       0.0       0.0       0.4       0.0
 7 Cl pz              0.0       0.0      11.4       0.0       0.0      56.4
 7 Cl px              5.9       2.3       0.0       0.1      11.3       0.0
 7 Cl py              0.5       0.0       0.0       9.3       0.6       0.0
 7 Cl dxz             0.0       0.0       0.2       0.0       0.0       0.0
 8 H  s               1.8       3.9       7.4       0.4       1.1       0.0
 8 H  pz              0.1       0.2       0.0       0.0       0.0       0.0
 8 H  px              0.0       0.0       0.2       0.0       0.0       0.0
 8 H  py              0.1       0.2       0.0       0.1       0.0       0.0
 9 H  s               0.8      19.9       0.0       1.2       2.0       0.0
 9 H  pz              0.0       0.0       0.3       0.0       0.0       0.0
 9 H  px              0.2       0.1       0.0       0.1       0.0       0.0
 9 H  py              0.0       0.4       0.0       0.0       0.0       0.0
10 H  s               1.8       3.9       7.4       0.4       1.1       0.0
10 H  pz              0.1       0.2       0.0       0.0       0.0       0.0
10 H  px              0.0       0.0       0.2       0.0       0.0       0.0
10 H  py              0.1       0.2       0.0       0.1       0.0       0.0
11 H  s               1.1       2.2       0.0       3.7       3.1       0.0
11 H  pz              0.0       0.0       0.0       0.0       0.0       0.1
[...]
 2 C  f-1             0.4       0.1       0.2       0.0       0.0       0.0
 2 C  f+3             0.2       5.5       1.2       0.0       0.0       0.0
 2 C  f-3             1.1       0.2       9.4       0.0       0.0       0.0
 3 C  s               0.1       2.8       0.0       0.0       0.0       0.0
 3 C  px              0.6       0.2       0.0       0.0       0.0       0.0
 3 C  py              8.4       0.0       4.1       0.0       0.0       0.0
 3 C  dz2             0.0       1.2       0.0       0.0       0.0       0.0
 3 C  dx2y2           0.6       0.7       0.2       0.0       0.0       0.0
 3 C  dxy             2.4       0.3       1.3       0.0       0.0       0.0
 3 C  f+1             0.2       0.2       0.0       0.0       0.0       0.0
 3 C  f-1             2.3       0.0       1.0       0.0       0.0       0.0
 3 C  f+3             0.1       3.0       0.6       0.0       0.0       0.0
 3 C  f-3             0.0       0.8       8.0       0.0       0.0       0.0
 4 C  s               0.0       3.0       0.0       0.0       0.0       0.0
 4 C  px              6.9       0.1       2.3       0.0       0.0       0.0
 4 C  py              2.2       0.1       1.4       0.0       0.0       0.0
 4 C  dz2             0.0       1.2       0.0       0.0       0.0       0.0
 4 C  dx2y2           1.9       0.3       1.2       0.0       0.0       0.0
 4 C  dxy             0.5       0.9       0.0       0.0       0.0       0.0
 4 C  f+1             1.9       0.0       0.6       0.0       0.0       0.0
 4 C  f-1             0.6       0.1       0.3       0.0       0.0       0.0
 4 C  f+3             0.0       2.9       0.8       0.0       0.0       0.0
 4 C  f-3             0.2       0.1       6.8       0.0       0.0       0.0
 5 C  s               0.1       3.1       0.0       0.0       0.0       0.0
 5 C  px              6.4       0.2       2.6       0.0       0.0       0.0
 5 C  py              0.5       0.3       0.6       0.0       0.0       0.0
 5 C  dz2             0.0       1.4       0.0       0.0       0.0       0.0
 5 C  dx2y2           4.2       0.1       0.7       0.0       0.0       0.0
 5 C  dxy             0.3       0.4       0.5       0.0       0.0       0.0
 5 C  f+1             1.5       0.0       0.6       0.0       0.0       0.0
 5 C  f-1             0.1       0.0       0.2       0.0       0.0       0.0
 5 C  f+3             0.6       4.2       0.9       0.0       0.0       0.0
 5 C  f-3             0.0       0.7       6.6       0.0       0.0       0.0
 6 C  s               0.1       7.1       0.1       0.0       0.0       1.0
 6 C  px              0.1       0.8       0.3       0.0       0.0       0.4
 6 C  py              4.8       1.3       3.4       0.0       0.0       0.0
 6 C  dz2             0.0       2.1       0.0       0.0       0.0       0.0
 6 C  dx2y2           0.1       5.1       0.1       0.0       0.0       0.0
 6 C  dxy             5.4       0.0       2.5       0.0       0.1       0.0
 6 C  f-1             1.1       0.3       1.1       0.0       0.0       0.0
 6 C  f+3             0.3       2.3       0.9       0.0       0.0       0.0
 6 C  f-3             3.3       1.5       7.1       0.0       0.0       0.0
 7 Cl s               0.0       0.1       0.0       0.0       0.0       0.8
 7 Cl pz              0.0       0.0       0.0     100.0       0.0       0.0
 7 Cl px              0.0       0.2       0.0       0.0       1.4      95.9
 7 Cl py              0.1       0.0       0.0       0.0      98.2       1.4
 7 Cl dxy             0.2       0.0       0.0       0.0       0.0       0.0
 7 Cl f-3             0.1       0.0       0.1       0.0       0.0       0.0
 9 H  s               0.2       0.1       0.3       0.0       0.0       0.0
11 H  s               0.3       1.1       0.0       0.0       0.0       0.0
11 H  px              0.0       0.0       0.1       0.0       0.0       0.0
11 H  py              0.1       0.2       0.0       0.0       0.0       0.0
12 H  s               0.0       0.9       0.0       0.0       0.0       0.0
12 H  px              0.0       0.1       0.0       0.0       0.0       0.0
12 H  py              0.0       0.0       0.1       0.0       0.0       0.0
13 H  s               0.0       0.6       0.0       0.0       0.0       0.0
14 H  s               0.2       1.1       0.0       0.0       0.0       0.0
14 H  py              0.1       0.1       0.0       0.0       0.0       0.0

                    288       289       290       291       292       293   
                  21.97906  22.52087  22.69154  22.76213  22.82096  22.93540
                   0.00000   0.00000   0.00000   0.00000   0.00000   0.00000
                  --------  --------  --------  --------  --------  --------
 0 C  s               0.7      85.6       8.2       2.4       0.1       1.2
 1 C  s              11.3       2.1       2.3       0.4       4.1      22.5
 1 C  px              0.0       0.1       0.1       0.0       0.4       0.0
 1 C  py              0.1       0.2       0.0       0.1       0.1       0.2
 1 C  dx2y2           0.0       0.0       0.0       0.0       0.3       0.1
 1 C  dxy             0.0       0.2       0.0       0.0       0.0       0.0
 2 C  s              18.0       2.7       3.5       4.5      44.9      13.5
 2 C  px              0.0       0.0       0.3       0.0       0.1       0.1
 2 C  py              0.0       0.0       0.1       0.0       0.0       0.0
 3 C  s              15.5       1.1      30.5      28.1       0.9      17.8
 3 C  py              0.0       0.0       0.2       0.2       0.1       0.0
 4 C  s              16.2       3.2      30.7      28.4       3.4      10.4
 4 C  px              0.0       0.0       0.2       0.2       0.0       0.0
 4 C  py              0.0       0.0       0.1       0.1       0.0       0.0
 4 C  dx2y2           0.0       0.0       0.1       0.1       0.0       0.0
 5 C  s              15.1       0.2       9.8      29.8       7.5      30.2
 5 C  px              0.0       0.0       0.3       0.1       0.0       0.0
 6 C  s              22.0       3.6      12.7       4.5      37.2       2.4
 6 C  px              0.0       0.0       0.0       0.1       0.1       0.0
 6 C  py              0.0       0.0       0.0       0.4       0.0       0.5
 6 C  dxy             0.0       0.0       0.0       0.1       0.0       0.2
 7 Cl s               0.1       0.1       0.1       0.0       0.3       0.1
 8 H  s               0.0       0.2       0.0       0.0       0.0       0.0
 9 H  s               0.0       0.1       0.0       0.0       0.0       0.0
10 H  s               0.0       0.2       0.0       0.0       0.0       0.0

                    294       295   
                  23.34859  25.97047
                   0.00000   0.00000
                  --------  --------
 0 C  s               0.1       0.1
 1 C  s              55.7       0.2
 1 C  px              0.0       0.1
 1 C  dxy             0.1       0.1
 2 C  s              11.0       0.1
 3 C  s               4.4       0.1
 4 C  s               6.0       0.1
 5 C  s               5.6       0.1
 5 C  px              0.0       0.2
 6 C  s              15.6       0.6
 6 C  px              0.0       0.6
 6 C  dx2y2           0.1       0.5
 7 Cl s               0.4      96.4
 7 Cl px              0.0       0.3


                      *****************************
                      * MAYER POPULATION ANALYSIS *
                      *****************************

  NA   - Mulliken gross atomic population
  ZA   - Total nuclear charge
  QA   - Mulliken gross atomic charge
  VA   - Mayer's total valence
  BVA  - Mayer's bonded valence
  FA   - Mayer's free valence

  ATOM       NA         ZA         QA         VA         BVA        FA
  0 C      6.3456     6.0000    -0.3456     3.8863     3.8863     0.0000
  1 C      5.9050     6.0000     0.0950     3.6802     3.6802     0.0000
  2 C      6.1835     6.0000    -0.1835     3.9580     3.9580     0.0000
  3 C      6.1096     6.0000    -0.1096     3.9628     3.9628     0.0000
  4 C      6.1280     6.0000    -0.1280     3.9542     3.9542     0.0000
  5 C      6.1720     6.0000    -0.1720     3.9642     3.9642     0.0000
  6 C      5.9293     6.0000     0.0707     3.8952     3.8952     0.0000
  7 Cl    17.0998    17.0000    -0.0998     1.2259     1.2259     0.0000
  8 H      0.8674     1.0000     0.1326     0.9709     0.9709    -0.0000
  9 H      0.8859     1.0000     0.1141     0.9741     0.9741     0.0000
 10 H      0.8674     1.0000     0.1326     0.9709     0.9709     0.0000
 11 H      0.8814     1.0000     0.1186     0.9700     0.9700     0.0000
 12 H      0.8787     1.0000     0.1213     0.9704     0.9704     0.0000
 13 H      0.8781     1.0000     0.1219     0.9699     0.9699     0.0000
 14 H      0.8683     1.0000     0.1317     0.9796     0.9796     0.0000

  Mayer bond orders larger than 0.100000
B(  0-C ,  1-C ) :   0.9489 B(  0-C ,  8-H ) :   0.9677 B(  0-C ,  9-H ) :   0.9883 
B(  0-C , 10-H ) :   0.9677 B(  1-C ,  2-C ) :   1.3921 B(  1-C ,  6-C ) :   1.3111 
B(  2-C ,  3-C ) :   1.4448 B(  2-C , 11-H ) :   0.9612 B(  3-C ,  4-C ) :   1.4249 
B(  3-C , 12-H ) :   0.9731 B(  4-C ,  5-C ) :   1.4153 B(  4-C , 13-H ) :   0.9712 
B(  5-C ,  6-C ) :   1.4140 B(  5-C , 14-H ) :   0.9660 B(  6-C ,  7-Cl) :   1.0644 


-------
TIMINGS
-------

Total SCF time: 0 days 0 hours 3 min 21 sec 

Total time                  ....     201.307 sec
Sum of individual times     ....     194.784 sec  ( 96.8%)

SCF preparation             ....       0.051 sec  (  0.0%)
Fock matrix formation       ....     192.618 sec  ( 95.7%)
  Startup                   ....       0.007 sec  (  0.0% of F)
  Split-RI-J                ....      10.274 sec  (  5.3% of F)
  Chain of spheres X        ....     166.656 sec  ( 86.5% of F)
  XC integration            ....      21.973 sec  ( 11.4% of F)
    Basis function eval.    ....       4.909 sec  ( 22.3% of XC)
    Density eval.           ....       4.986 sec  ( 22.7% of XC)
    XC-Functional eval.     ....       6.905 sec  ( 31.4% of XC)
    XC-Potential eval.      ....       4.618 sec  ( 21.0% of XC)
Diagonalization             ....       0.000 sec  (  0.0%)
Density matrix formation    ....       0.023 sec  (  0.0%)
Total Energy calculation    ....       0.006 sec  (  0.0%)
Population analysis         ....       0.492 sec  (  0.2%)
Orbital Transformation      ....       0.034 sec  (  0.0%)
Orbital Orthonormalization  ....       0.000 sec  (  0.0%)
DIIS solution               ....       0.082 sec  (  0.0%)
  MO trafo                  ....       0.000 sec  (  0.0 % of DIIS)
  Orb grad                  ....       0.000 sec  (  0.0 % of DIIS)
  Energy W gradient         ....       0.000 sec  (  0.0 % of DIIS)
  DIIS error                ....       0.011 sec  ( 13.8 % of DIIS)
  DIIS work                 ....       0.059 sec  ( 71.8 % of DIIS)
  Form Q                    ....       0.000 sec  (  0.0 % of DIIS)
  Form QpQm                 ....       0.000 sec  (  0.0 % of DIIS)
  Exp/Cayley                ....       0.000 sec  (  0.0 % of DIIS)
  Orb update                ....       0.000 sec  (  0.0 % of DIIS)
  Wake-sleep                ....       0.001 sec  (  0.9 % of DIIS)
SOSCF solution              ....       0.068 sec  (  0.0%)
  MO trafo                  ....       0.038 sec  ( 54.9 % of SOSCF)
  Orb grad                  ....       0.001 sec  (  0.7 % of SOSCF)
  Rot update                ....       0.002 sec  (  2.2 % of SOSCF)
  Step                      ....       0.029 sec  ( 41.9 % of SOSCF)
Grid generation             ....       1.411 sec  (  0.7%)
Finished LeanSCF after 202.0 sec

Maximum memory used throughout the entire LEANSCF-calculation: 40.0 MB
------------------   -----------------
gCP correction             0.008069522
------------------   -----------------

-------------------------   --------------------
FINAL SINGLE POINT ENERGY      -731.121527405805
-------------------------   --------------------


------------------------------------------------------------------------------
                              ORCA PROPERTY CALCULATIONS
------------------------------------------------------------------------------

GBWName                                 ... sp.gbw
Number of atoms                         ...     15
Number of basis functions               ...    296
Max core memory                         ...   1024 MB

Electric properties:
Dipole moment                           ... YES
Quadrupole moment                       ...  NO
Static polarizability (Dipole/Dipole)   ...  NO
Static polarizability (Dipole/Quad.)    ...  NO
Static polarizability (Quad./Quad.)     ...  NO
Static polarizability (Velocity)        ...  NO

Atomic electric properties:
Dipole moment                           ...  NO
Quadrupole moment                       ...  NO
Static polarizability                   ...  NO

Choice of electric origin               ... Center of mass
Position of electric origin             ...    -0.009632     0.018116    -0.000120

General magnetic properties:
Magnetizability                         ...  NO

EPR properties:
g-Tensor (aka g-matrix)                 ...  NO
Zero-Field splitting spin-orbit         ...  NO
Zero-field splitting spin-spin          ...  NO
Hyperfine couplings                     ...  NO (   0 nuclei)
Quadrupole couplings                    ...  NO (   0 nuclei)
Contact density                         ...  NO (   0 nuclei)

NMR properties:
Chemical shifts                         ...  NO (   0 nuclei)
Spin-rotation constants                 ...  NO (   0 nuclei)
Spin-spin couplings                     ...  NO (   0 nuclei,    0 pairs)

Choice of magnetic origin               ... GIAO
Position of magnetic origin             ...     0.000000     0.000000     0.000000

Properties with geometric perturbations:
SCF Hessian                             ...  NO
IR spectrum                             ...  NO
VCD spectrum                            ...  NO
X-ray spectroscopy properties:
SCF XES/XAS/RIXS spectra                ...  NO


-------------
DIPOLE MOMENT
-------------

Method             : SCF
Type of density    : Electron Density
Multiplicity       :   1
Irrep              :   0
Energy             :  -731.1295969275054176 Eh
Relativity type    : 
Basis              : AO
                                X                 Y                 Z
Electronic contribution:     -7.226119898       5.295791569      -0.000094326
Nuclear contribution   :      7.803965004      -5.521593279       0.000078717
                        -----------------------------------------
Total Dipole Moment    :      0.577845106      -0.225801710      -0.000015609
                        -----------------------------------------
Magnitude (a.u.)       :      0.620396147
Magnitude (Debye)      :      1.576921685



--------------------
Rotational spectrum 
--------------------
 
Rotational constants in cm-1:             0.095248             0.050716             0.033298 
Rotational constants in MHz :          2855.475453          1520.413363           998.247304 

Dipole components along the rotational axes: 
x,y,z [a.u.] :     0.579727    -0.220925    -0.000021 
x,y,z [Debye]:     1.473549    -0.561547    -0.000054 

 

Dipole moment calculation done in   0.0 sec 

Maximum memory used throughout the entire PROP-calculation: 25.7 MB

--------------------------------
SUGGESTED CITATIONS FOR THIS RUN
--------------------------------

Below you find a list of papers that are relevant to this ORCA run
We neither can nor want to force you to cite these papers, but we appreciate if you do
You receive ORCA, which is the product of decades of hard work by many enthusiastic individuals, for free
The only thing we kindly ask in return is that you cite our papers,
We deeply appreciate it, if you show your appreciation for ORCA by not just citing the generic ORCA reference.

Please note that relegating all ORCA citations to the supporting information does *not* help us.
SI sections are not indexed - citations you put there will not count into any citation statistics
But we need these citations in order to attract the funding resources that allow us to do what we are doing

Therefore, if you are a happy ORCA user, please consider citing a few of the papers listed below in the main body of your paper

In addition to the list printed below, the program has created the file sp.bibtex that contains the list in bibtex format
You can import this file easily into all common literature databanks and citation aid programs


List of essential papers. We consider these as the minimum necessary citations

  1. Neese,F.
     Software update: the ORCA program system, version 5.0
     WIRES Comput. Molec. Sci., 2022 12(1)e1606
     doi.org/10.1002/wcms.1606

List of papers to cite with high priority. The work reported in these papers was absolutely
necessary for this run to complete.
Our perspective: the developers of density functionals and basis sets usually get cited in chemistry papers
Good! But without the algorithms to do something with them, the functionals or basis sets would not do anything.
Hence, in our opinion, the algorithm design and method developments papers are equally worthy of getting cited

  1. Neese,F.
     An improvement of the resolution of the identity approximation for the formation of the Coulomb matrix
     J. Comp. Chem., 2003 24(14)1740-1747
     doi.org/10.1002/jcc.10318
  2. Neese,F.; Wennmohs,F.; Hansen,A.; Becker,U.
     Efficient, approximate and parallel Hartree-Fock and hybrid DFT calculations. A 'chain-of-spheres' algorithm for the Hartree-Fock exchange
     Chem. Phys., 2009 356(1-3)98-109
     doi.org/10.1016/j.chemphys.2008.10.036
  3. Helmich-Paris,B.; de Souza,B.; Neese,F.; Izsák,R.
     An improved chain of spheres for exchange algorithm
     J. Chem. Phys., 2021 155 104109
     doi.org/doi: 10.1063/5.0058766.
  4. Neese,F.
     The SHARK Integral Generation and Digestion System
     J. Comp. Chem., 2022  1-16
     doi.org/10.1002/jcc.26942

List of suggested additional citations. These are papers that are important in the 'surrounding' of 
of this run, or papers that preceded the highly important papers. If you like your results we are grateful for a citation.

  1. Izsak,R.; Neese,F.
     An overlap fitted chain of spheres exchange method
     J. Chem. Phys., 2011 135 144105
     doi.org/10.1063/1.3646921
  2. Izsak,R.; Hansen,A.; Neese,F.
     The resolution of identity and chain of spheres approximations for the LPNO-CCSD singles Fock term
     Molec. Phys., 2012 110 2413-2417
     doi.org/10.1080/00268976.2012.687466
  3. Neese,F.
     The ORCA program system
     WIRES Comput. Molec. Sci., 2012 2(1)73-78
     doi.org/10.1002/wcms.81
  4. Izsak,R.; Neese,F.; Klopper,W.
     Robust fitting techniques in the chain of spheres approximation to the Fock exchange: The role of the complementary space
     J. Chem. Phys., 2013 139 
     doi.org/10.1063/1.4819264
  5. Neese,F.
     Software update: the ORCA program system, version 4.0
     WIRES Comput. Molec. Sci., 2018 8(1)1-6
     doi.org/10.1002/wcms.1327
  6. Neese,F.; Wennmohs,F.; Becker,U.; Riplinger,C.
     The ORCA quantum chemistry program package
     J. Chem. Phys., 2020 152 Art. No. L224108
     doi.org/10.1063/5.0004608

List of optional additional citations

  1. Neese,F.
     Approximate second-order SCF convergence for spin unrestricted wavefunctions
     Chem. Phys. Lett., 2000 325(1-3)93-98
     doi.org/10.1016/s0009-2614(00)00662-x

Timings for individual modules:

Sum of individual times          ...      203.669 sec (=   3.394 min)
Startup calculation              ...        1.089 sec (=   0.018 min)   0.5 %
SCF iterations                   ...      202.502 sec (=   3.375 min)  99.4 %
Property calculations            ...        0.078 sec (=   0.001 min)   0.0 %
                             ****ORCA TERMINATED NORMALLY****
TOTAL RUN TIME: 0 days 0 hours 3 minutes 23 seconds 765 msec
