
                                 *****************
                                 * O   R   C   A *
                                 *****************

                                            #,                                       
                                            ###                                      
                                            ####                                     
                                            #####                                    
                                            ######                                   
                                           ########,                                 
                                     ,,################,,,,,                         
                               ,,#################################,,                 
                          ,,##########################################,,             
                       ,#########################################, ''#####,          
                    ,#############################################,,   '####,        
                  ,##################################################,,,,####,       
                ,###########''''           ''''###############################       
              ,#####''   ,,,,##########,,,,          '''####'''          '####       
            ,##' ,,,,###########################,,,                        '##       
           ' ,,###''''                  '''############,,,                           
         ,,##''                                '''############,,,,        ,,,,,,###''
      ,#''                                            '''#######################'''  
     '                                                          ''''####''''         
             ,#######,   #######,   ,#######,      ##                                
            ,#'     '#,  ##    ##  ,#'     '#,    #''#        ,####,   ,####,        
            ##       ##  ##   ,#'  ##            #'  '#       #'       #'  '#        
            ##       ##  #######   ##           ,######,      #####,   #    #        
            '#,     ,#'  ##    ##  '#,     ,#' ,#      #,     #,   #   #,  ,#        
             '#######'   ##     ##  '#######'  #'      '#     '####' # '####'        



                #########################################################
                #                        -***-                          #
                #          Department of theory and spectroscopy        #
                #                                                       #
                #                      Frank Neese                      #
                #                                                       #
                #     Directorship, Architecture, Infrastructure        #
                #                    SHARK, DRIVERS                     #
                #        Core code/Algorithms in most modules           #
                #                                                       #
                #        Max Planck Institute fuer Kohlenforschung      #
                #                Kaiser Wilhelm Platz 1                 #
                #                 D-45470 Muelheim/Ruhr                 #
                #                      Germany                          #
                #                                                       #
                #                  All rights reserved                  #
                #                        -***-                          #
                #########################################################


                         Program Version 6.0.1  -  RELEASE   -


 With contributions from (in alphabetic order):
[Max-Planck-Institut fuer Kohlenforschung]                               
  Daniel Aravena         : Magnetic Suceptibility                        
  Michael Atanasov       : Ab Initio Ligand Field Theory (pilot matlab implementation)
  Alexander A. Auer      : GIAO ZORA, VPT2 properties, NMR spectrum      
  Ute Becker             : All parallelization in ORCA, NUMFREQ, NUMCALC 
  Giovanni Bistoni       : ED, misc. LED, open-shell LED, HFLD           
  Martin Brehm           : Molecular dynamics                            
  Dmytro Bykov           : pre 5.0 version of the SCF Hessian            
  Marcos Casanova-Páez   : Triplet and SCS-CIS(D). UHF-(DLPNO)-IP/EA/STEOM-CCSD. UHF-CVS-IP/STEOM-CCSD   
  Vijay G. Chilkuri      : MRCI spin determinant printing, contributions to CSF-ICE 
  Pauline Colinet        : FMM embedding                                 
  Dipayan Datta          : RHF DLPNO-CCSD density                        
  Achintya Kumar Dutta   : EOM-CC, STEOM-CC                              
  Nicolas Foglia         : Exact transition moments, OPA infrastructure, MCD improvements    
  Dmitry Ganyushin       : Spin-Orbit,Spin-Spin,Magnetic field MRCI      
  Miquel Garcia-Rates    : C-PCM and meta-GGA Hessian, CCSD/C-PCM, Gaussian charge scheme 
  Tiago L. C. Gouveia    : GS-ROHF, GS-ROCIS                             
  Yang Guo               : DLPNO-NEVPT2, F12-NEVPT2, CIM, IAO-localization        
  Andreas Hansen         : Spin unrestricted coupled pair/coupled cluster methods 
  Ingolf Harden          : AUTO-CI MPn and infrastructure                
  Benjamin Helmich-Paris : MC-RPA, TRAH-(SCF,CASSCF), AVAS, COSX integrals, SCF dyn. polar. 
  Lee Huntington         : MR-EOM, pCC                                   
  Robert Izsak           : Overlap fitted RIJCOSX, COSX-SCS-MP3, EOM     
  Riya Kayal             : Wick's Theorem for AUTO-CI, AUTO-CI UHF-CCSDT 
  Emily Kempfer          : AUTO-CI, RHF CISDT and CCSDT                  
  Christian Kollmar      : KDIIS, OOCD, Brueckner-CCSD(T), CCSD density, CASPT2, CASPT2-K, improved NEVPT2 
  Axel Koslowski         : Symmetry handling                             
  Simone Kossmann        : meta-GGA functionals, TD-DFT gradient, OOMP2, (MP2 Hessian; deprecated post 5.0) 
  Lucas Lang             : DCDCAS                                        
  Marvin Lechner         : AUTO-CI (C++ implementation), FIC-MRCC        
  Spencer Leger          : CASSCF response                               
  Dagmar Lenk            : GEPOL surface, SMD, ORCA-2-JSON               
  Dimitrios Liakos       : Extrapolation schemes; Compound Job, initial MDCI parallelization 
  Dimitrios Manganas     : Further ROCIS development; embedding schemes. LFT, Crystal Embedding 
  Dimitrios Pantazis     : SARC Basis sets                               
  Anastasios Papadopoulos: AUTO-CI, single reference methods and gradients 
  Taras Petrenko         : pre 6.0 DFT Hessian and TD-DFT gradient, (ASA, deprecated), ECA, 1-Electron XAS/XES, NRVS 
  Peter Pinski           : DLPNO-MP2, DLPNO-MP2 Gradient                 
  Christoph Reimann      : Effective Core Potentials                     
  Marius Retegan         : Local ZFS, SOC                                
  Christoph Riplinger    : Optimizer, TS searches, QM/MM, DLPNO-CCSD(T), (RO)-DLPNO pert. Triples 
  Michael Roemelt        : Original ROCIS implementation                 
  Masaaki Saitow         : Open-shell DLPNO-CCSD energy and density      
  Barbara Sandhoefer     : DKH picture change effects                    
  Kantharuban Sivalingam : CASSCF convergence/infrastructure, NEVPT2 and variants, FIC-MRCI 
  Bernardo de Souza      : ESD, SOC TD-DFT                               
  Georgi L. Stoychev     : AutoAux, RI-MP2 NMR, DLPNO-MP2 response, X2C  
  Van Anh Tran           : RI-MP2 g-tensors                              
  Willem Van den Heuvel  : Paramagnetic NMR                              
  Zikuan Wang            : NOTCH, Electric field optimization            
  Frank Wennmohs         : Technical directorship and infrastructure     
  Hang Xu                : AUTO-CI-Response properties                   
                                                                         
[FACCTs GmbH]                                                            
  Markus Bursch, Miquel Garcia-Rates, Christoph Riplinger, Bernardo de Souza, Georgi L. Stoychev 
                                                                 
  APM, Basis sets (HGBS, AHGBS, def-TZVP (Ac-Lr), def2-XVPD (La-Lu)), CI-OPT, improved COSX, DLPNO-Multilevel,           
  DOCKER, DRACO, updates on ESD, GOAT, IRC, LR-CPCM, MBIS, meta-GGA TD-DFT gradient, ML-optimized integration grids, 
  MM, NACMEs, nearIR, NEB, NEB-TS, NL-DFT gradient (VV10), 2- and 3-layer-ONIOM, interface openCOSMO-RS, QMMM,   
  Crystal-QMMM, SF, symmetry and pop. for TD-DFT, r2SCAN hybrids, SOLVATOR                                   
                                                                         
[Other institutions]                                                     
  V. Asgeirsson          : NEB                                           
  Christoph Bannwarth    : sTDA-DFT, sTD-DFT, PBEh-3c, B97-3c, D3        
  Sebastian Ehlert       : rSCAN, r2SCAN, r2SCAN-3c, D4, dhf basis sets  
  Marvin Friede          : D4 for Fr, Ra, Ac-Lr                          
  Lars Goerigk           : TD-DFT with DH, B97 family of functionals     
  Stefan Grimme          : VdW corrections, initial TS optimization, DFT functionals, gCP, sTDA/sTD-DF 
  Waldemar Hujo          : DFT-NL                                        
  H. Jonsson             : NEB                                           
  Holger Kruse           : gCP                                           
  Marcel Mueller         : wB97X-3c, vDZP basis set                      
  Hagen Neugebauer       : wr2SCAN                                       
  Tobias Risthaus        : range-separated hybrid DFT                    
  Lukas Wittmann         : regularized MP2, r2SCAN double-hybrids, wr2SCAN        
                                                                         
We gratefully acknowledge several colleagues who have allowed us to      
interface, adapt or use parts of their codes:                            
  Ed Valeev, F. Pavosevic, A. Kumar             : LibInt (2-el integral package), F12 methods 
  Garnet Chan, S. Sharma, J. Yang, R. Olivares  : DMRG                   
  Ulf Ekstrom                                   : XCFun DFT Library      
  Mihaly Kallay                                 : mrcc  (arbitrary order and MRCC methods)
  Frank Weinhold                                : gennbo (NPA and NBO analysis)           
  Simon Mueller                                 : openCOSMO-RS                            
  Christopher J. Cramer and Donald G. Truhlar   : smd solvation model                     
  S Lehtola, MJT Oliveira, MAL Marques          : LibXC Library                           
  Liviu Ungur et al                             : ANISO software                          


 Your calculation uses the libint2 library for the computation of 2-el integrals
 For citations please refer to: http://libint.valeyev.net

 Your ORCA version has been built with support for libXC version: 6.2.2
 For citations please refer to: https://libxc.gitlab.io

 This ORCA versions uses:
   CBLAS   interface :  Fast vector & matrix operations
   LAPACKE interface :  Fast linear algebra routines
   SCALAPACK package :  Parallel linear algebra routines
   Shared memory     :  Shared parallel matrices
   BLAS/LAPACK       :  OpenBLAS 0.3.27  USE64BITINT DYNAMIC_ARCH NO_AFFINITY Zen SINGLE_THREADED
        Core in use  :  Zen
   Copyright (c) 2011-2014, The OpenBLAS Project


Your calculation utilizes the geometrical counterpoise correction gCP
Please cite in your paper:
H.Kruse, S. Grimme J.Chem.Phys., 136, (2012), 154101 
   

Your calculation utilizes the atom-pairwise dispersion correction
based on EEQ partial charges (D4)


================================================================================

----- Orbital basis set information -----
Your calculation utilizes the basis: def2-SV(P)
   F. Weigend and R. Ahlrichs, Phys. Chem. Chem. Phys. 7, 3297 (2005).

----- AuxJ basis set information -----
Your calculation utilizes the auxiliary basis: def2/J
   F. Weigend, Phys. Chem. Chem. Phys. 8, 1057 (2006).

================================================================================
                                        WARNINGS
                       Please study these warnings very carefully!
================================================================================

WARNING: Old DensityContainer found on disk!
         Will remove this file - 
         If you want to keep old densities, please start your calculation with a different basename. 


================================================================================
                                       INPUT FILE
================================================================================
NAME = sp.inp
|  1> ! pbe def2-sv(p) def2/J RI DEFGRID1 loosescf d4 GCP(DFT/SV(P)) printgap
|  2> %output
|  3>     printlevel normal
|  4> end
|  5> * xyz 0 1
|  6> C 0.6313759699 1.4558838987 -0.076706507
|  7> C 1.5110057295 0.196390144 0.0825566042
|  8> H 2.4363432007 0.2980434982 -0.4990679753
|  9> C 0.7389896326 -1.0334519468 -0.4611134459
| 10> H 1.215105703 -1.9514201347 -0.0933333941
| 11> C -0.7078049933 -0.9794920106 0.06183568
| 12> H -1.2677269131 -1.8516258296 -0.2898030463
| 13> C -1.3984433143 0.3192347555 -0.4731795723
| 14> H -2.0230575812 0.1009061125 -1.3486480175
| 15> O -0.430844893 1.2243835908 -0.9754366663
| 16> O -2.1846396554 0.8901501085 0.5072754505
| 17> O -0.7509881677 -1.0137321913 1.4676432881
| 18> O 0.8038070152 -1.1000199587 -1.8561198074
| 19> O 1.806137938 0.0549279894 1.4622340614
| 20> H 1.199696525 2.2878946148 -0.4921208201
| 21> H 0.2498855495 1.7503877781 0.9088967274
| 22> H -1.9774437534 0.436653363 1.3467577865
| 23> H 0.0365954155 -0.5569236337 1.8136643203
| 24> H 0.4158975668 -0.2872229021 -2.2122280927
| 25> H 2.4867924343 -0.6172489707 1.5798836112
| 26> *
| 27> 
| 28>                          ****END OF INPUT****
================================================================================

                       ****************************
                       * Single Point Calculation *
                       ****************************

---------------------------------
CARTESIAN COORDINATES (ANGSTROEM)
---------------------------------
  C      0.631376    1.455884   -0.076707
  C      1.511006    0.196390    0.082557
  H      2.436343    0.298043   -0.499068
  C      0.738990   -1.033452   -0.461113
  H      1.215106   -1.951420   -0.093333
  C     -0.707805   -0.979492    0.061836
  H     -1.267727   -1.851626   -0.289803
  C     -1.398443    0.319235   -0.473180
  H     -2.023058    0.100906   -1.348648
  O     -0.430845    1.224384   -0.975437
  O     -2.184640    0.890150    0.507275
  O     -0.750988   -1.013732    1.467643
  O      0.803807   -1.100020   -1.856120
  O      1.806138    0.054928    1.462234
  H      1.199697    2.287895   -0.492121
  H      0.249886    1.750388    0.908897
  H     -1.977444    0.436653    1.346758
  H      0.036595   -0.556924    1.813664
  H      0.415898   -0.287223   -2.212228
  H      2.486792   -0.617249    1.579884

----------------------------
CARTESIAN COORDINATES (A.U.)
----------------------------
  NO LB      ZA    FRAG     MASS         X           Y           Z
   0 C     6.0000    0    12.011    1.193128    2.751222   -0.144954
   1 C     6.0000    0    12.011    2.855387    0.371124    0.156009
   2 H     1.0000    0     1.008    4.604021    0.563221   -0.943102
   3 C     6.0000    0    12.011    1.396488   -1.952941   -0.871378
   4 H     1.0000    0     1.008    2.296217   -3.687650   -0.176375
   5 C     6.0000    0    12.011   -1.337558   -1.850972    0.116853
   6 H     1.0000    0     1.008   -2.395657   -3.499066   -0.547648
   7 C     6.0000    0    12.011   -2.642675    0.603266   -0.894180
   8 H     1.0000    0     1.008   -3.823025    0.190685   -2.548575
   9 O     8.0000    0    15.999   -0.814179    2.313750   -1.843308
  10 O     8.0000    0    15.999   -4.128371    1.682140    0.958612
  11 O     8.0000    0    15.999   -1.419162   -1.915676    2.773444
  12 O     8.0000    0    15.999    1.518975   -2.078736   -3.507558
  13 O     8.0000    0    15.999    3.413106    0.103799    2.763222
  14 H     1.0000    0     1.008    2.267098    4.323494   -0.929974
  15 H     1.0000    0     1.008    0.472215    3.307754    1.717566
  16 H     1.0000    0     1.008   -3.736827    0.825155    2.545003
  17 H     1.0000    0     1.008    0.069155   -1.052433    3.427329
  18 H     1.0000    0     1.008    0.785933   -0.542773   -4.180505
  19 H     1.0000    0     1.008    4.699357   -1.166432    2.985547

--------------------------------
INTERNAL COORDINATES (ANGSTROEM)
--------------------------------
 C      0   0   0     0.000000000000     0.00000000     0.00000000
 C      1   0   0     1.544486248139     0.00000000     0.00000000
 H      2   1   0     1.097665701161   110.48464244     0.00000000
 C      2   1   3     1.550515251635   109.09236942   241.53896225
 H      4   2   1     1.097549212105   109.26351850   196.40821380
 C      4   2   1     1.539351211559   108.72635077   315.09192594
 H      6   4   2     1.094431244231   110.10631075   181.33415747
 C      6   4   2     1.565220055970   109.12765406    61.73043825
 H      8   6   4     1.097385701251   111.02399550    99.09543089
 O      1   2   3     1.410539419291   111.14647155   102.30347427
 O      8   6   4     1.380340928461   110.59192519   220.16447991
 O      6   4   2     1.406887418210   111.55875764   299.50170729
 O      4   2   1     1.398097043099   111.37961958    79.72923420
 O      2   1   3     1.417964896457   107.47135234   120.56702006
 H      1   2   3     1.089861980520   111.39898230   344.37248349
 H      1   2   3     1.097124063859   108.92323533   224.61488655
 H     11   8   6     0.976381089760   107.32164616    10.86782541
 H     12   6   4     0.974008477144   108.58725201    32.92031843
 H     13   4   2     0.968465748612   107.96049177   300.51163648
 H     14   2   1     0.963822507307   109.59282108   190.76146440

---------------------------
INTERNAL COORDINATES (A.U.)
---------------------------
 C      0   0   0     0.000000000000     0.00000000     0.00000000
 C      1   0   0     2.918656026591     0.00000000     0.00000000
 H      2   1   0     2.074287561793   110.48464244     0.00000000
 C      2   1   3     2.930049192058   109.09236942   241.53896225
 H      4   2   1     2.074067429379   109.26351850   196.40821380
 C      4   2   1     2.908952213766   108.72635077   315.09192594
 H      6   4   2     2.068175324004   110.10631075   181.33415747
 C      6   4   2     2.957837245105   109.12765406    61.73043825
 H      8   6   4     2.073758438646   111.02399550    99.09543089
 O      1   2   3     2.665533203560   111.14647155   102.30347427
 O      8   6   4     2.608466326233   110.59192519   220.16447991
 O      6   4   2     2.658631921676   111.55875764   299.50170729
 O      4   2   1     2.642020520101   111.37961958    79.72923420
 O      2   1   3     2.679565321818   107.47135234   120.56702006
 H      1   2   3     2.059540666956   111.39898230   344.37248349
 H      1   2   3     2.073264015628   108.92323533   224.61488655
 H     11   8   6     1.845092861986   107.32164616    10.86782541
 H     12   6   4     1.840609273919   108.58725201    32.92031843
 H     13   4   2     1.830135034960   107.96049177   300.51163648
 H     14   2   1     1.821360580519   109.59282108   190.76146440

---------------------
BASIS SET INFORMATION
---------------------
There are 3 groups of distinct atoms

 Group   1 Type C   : 7s4p1d contracted to 3s2p1d pattern {511/31/1}
 Group   2 Type H   : 4s contracted to 2s pattern {31}
 Group   3 Type O   : 7s4p1d contracted to 3s2p1d pattern {511/31/1}

Atom   0C    basis set group =>   1
Atom   1C    basis set group =>   1
Atom   2H    basis set group =>   2
Atom   3C    basis set group =>   1
Atom   4H    basis set group =>   2
Atom   5C    basis set group =>   1
Atom   6H    basis set group =>   2
Atom   7C    basis set group =>   1
Atom   8H    basis set group =>   2
Atom   9O    basis set group =>   3
Atom  10O    basis set group =>   3
Atom  11O    basis set group =>   3
Atom  12O    basis set group =>   3
Atom  13O    basis set group =>   3
Atom  14H    basis set group =>   2
Atom  15H    basis set group =>   2
Atom  16H    basis set group =>   2
Atom  17H    basis set group =>   2
Atom  18H    basis set group =>   2
Atom  19H    basis set group =>   2
---------------------------------
AUXILIARY/J BASIS SET INFORMATION
---------------------------------
There are 3 groups of distinct atoms

 Group   1 Type C   : 12s5p4d2f1g contracted to 6s4p3d1f1g pattern {711111/2111/211/2/1}
 Group   2 Type H   : 5s2p1d contracted to 3s1p1d pattern {311/2/1}
 Group   3 Type O   : 12s5p4d2f1g contracted to 6s4p3d1f1g pattern {711111/2111/211/2/1}

Atom   0C    basis set group =>   1
Atom   1C    basis set group =>   1
Atom   2H    basis set group =>   2
Atom   3C    basis set group =>   1
Atom   4H    basis set group =>   2
Atom   5C    basis set group =>   1
Atom   6H    basis set group =>   2
Atom   7C    basis set group =>   1
Atom   8H    basis set group =>   2
Atom   9O    basis set group =>   3
Atom  10O    basis set group =>   3
Atom  11O    basis set group =>   3
Atom  12O    basis set group =>   3
Atom  13O    basis set group =>   3
Atom  14H    basis set group =>   2
Atom  15H    basis set group =>   2
Atom  16H    basis set group =>   2
Atom  17H    basis set group =>   2
Atom  18H    basis set group =>   2
Atom  19H    basis set group =>   2

Checking for AutoStart:
The File: sp.gbw exists
Trying to determine its content:
     ... Fine, the file contains calculation information
     ... Fine, the calculation information was read
     ... Fine, the file contains a basis set
     ... Fine, the basis set was read
     ... Fine, the file contains a geometry
     ... Fine, the geometry was read
     ... Fine, the file contains a set of orbitals
     ... Fine, the orbitals can be read
     => possible old guess file was deleted
     => GBW file was renamed to GES file
     => GES file is set as startup file
     => Guess is set to MORead
     ... now leaving AutoStart

------------------------------------------------------------------------------
                             ORCA STARTUP CALCULATIONS
                           -- RI-GTO INTEGRALS CHOSEN --
------------------------------------------------------------------------------
------------------------------------------------------------------------------
                   ___                                                        
                  /   \      - P O W E R E D   B Y -                         
                 /     \                                                     
                 |  |  |   _    _      __       _____    __    __             
                 |  |  |  | |  | |    /  \     |  _  \  |  |  /  |          
                  \  \/   | |  | |   /    \    | | | |  |  | /  /          
                 / \  \   | |__| |  /  /\  \   | |_| |  |  |/  /          
                |  |  |   |  __  | /  /__\  \  |    /   |      \           
                |  |  |   | |  | | |   __   |  |    \   |  |\   \          
                \     /   | |  | | |  |  |  |  | |\  \  |  | \   \       
                 \___/    |_|  |_| |__|  |__|  |_| \__\ |__|  \__/        
                                                                              
                      - O R C A' S   B I G   F R I E N D -                    
                                      &                                       
                       - I N T E G R A L  F E E D E R -                       
                                                                              
 v1 FN, 2020, v2 2021, v3 2022-2024                                           
------------------------------------------------------------------------------


----------------------
SHARK INTEGRAL PACKAGE
----------------------

Number of atoms                             ...     20
Number of basis functions                   ...    160
Number of shells                            ...     80
Maximum angular momentum                    ...      2
Integral batch strategy                     ... SHARK/LIBINT Hybrid
RI-J (if used) integral strategy            ... SPLIT-RIJ (Revised 2003 algorithm where possible)
Printlevel                                  ...      1
Contraction scheme used                     ... SEGMENTED contraction
Prescreening option                         ... SCHWARTZ
   Thresh                                   ... 1.000e-09
   Tcut                                     ... 1.000e-10
   Tpresel                                  ... 1.000e-10 
Coulomb Range Separation                    ... NOT USED
Exchange Range Separation                   ... NOT USED
Multipole approximations                    ... NOT USED
Finite Nucleus Model                        ... NOT USED
CABS basis                                  ... NOT available
Auxiliary Coulomb fitting basis             ... AVAILABLE
   # of basis functions in Aux-J            ...    600
   # of shells in Aux-J                     ...    200
   Maximum angular momentum in Aux-J        ...      4
Auxiliary J/K fitting basis                 ... NOT available
Auxiliary Correlation fitting basis         ... NOT available
Auxiliary 'external' fitting basis          ... NOT available

Checking pre-screening integrals            ... done (  0.0 sec) Dimension = 80
Check shell pair data                       ... done (  0.0 sec)
Shell pair information
Shell pair cut-off parameter TPreSel        ...   1.0e-10
Total number of shell pairs                 ...      3240
Shell pairs after pre-screening             ...      3087
Total number of primitive shell pairs       ...     13040
Primitive shell pairs kept                  ...      8722
          la=0 lb=0:   1201 shell pairs
          la=1 lb=0:    965 shell pairs
          la=1 lb=1:    208 shell pairs
          la=2 lb=0:    464 shell pairs
          la=2 lb=1:    196 shell pairs
          la=2 lb=2:     53 shell pairs

Calculating one electron integrals          ... done (  0.0 sec)
Calculating RI/J V-Matrix + Cholesky decomp.... done (  0.0 sec)
Calculating Nuclear repulsion               ... done (  0.0 sec) ENN=    641.821972034533 Eh

Diagonalization of the overlap matrix:
Smallest eigenvalue                        ... 8.616e-04
Time for diagonalization                   ...    0.002 sec
Threshold for overlap eigenvalues          ... 1.000e-07
Number of eigenvalues below threshold      ... 0
Time for construction of square roots      ...    0.001 sec
Total time needed                          ...    0.004 sec

-------------------
DFT GRID GENERATION
-------------------

General Integration Accuracy     IntAcc      ... 4.159
Radial Grid Type                 RadialGrid  ... OptM3 with GC (2021)
Angular Grid (max. ang.)         AngularGrid ... 3 (Lebedev-194)
Angular grid pruning method      GridPruning ... 4 (adaptive)
Weight generation scheme         WeightScheme... mBecke (2022)
Basis function cutoff            BFCut       ... 1.0000e-10
Integration weight cutoff        WCut        ... 1.0000e-14
Partially contracted basis set               ... off
Rotationally invariant grid construction     ... off
Angular grids for H and He will be reduced by one unit

Total number of grid points                  ...    46444
Total number of batches                      ...      735
Average number of points per batch           ...       63
Average number of grid points per atom       ...     2322
Initializing property integral containers    ... done (  0.0 sec)

SHARK setup successfully completed in   0.5 seconds

Maximum memory used throughout the entire STARTUP-calculation: 23.8 MB
-------------------------------------------------------------------------------
                                 ORCA GUESS
                   Start orbitals & Density for SCF / CASSCF
-------------------------------------------------------------------------------

------------
SCF SETTINGS
------------
Hamiltonian:
 Density Functional     Method          .... DFT(GTOs)
 Exchange Functional    Exchange        .... PBE
   PBE kappa parameter   XKappa         ....  0.804000
   PBE mue parameter    XMuePBE         ....  0.219520
 Correlation Functional Correlation     .... PBE
   PBE beta parameter  CBetaPBE         ....  0.066725
 LDA part of GGA corr.  LDAOpt          .... PW91-LDA
 Gradients option       PostSCFGGA      .... off
   NL short-range parameter             ....  6.400000
 RI-approximation to the Coulomb term is turned on
   Number of AuxJ basis functions       .... 600


General Settings:
 Integral files         IntName         .... sp
 Hartree-Fock type      HFTyp           .... RHF
 Total Charge           Charge          ....    0
 Multiplicity           Mult            ....    1
 Number of Electrons    NEL             ....   80
 Basis Dimension        Dim             ....  160
 Nuclear Repulsion      ENuc            ....    641.8219720345 Eh

Convergence Acceleration:
 AO-DIIS                CNVDIIS         .... on
   Start iteration      DIISMaxIt       ....    12
   Startup error        DIISStart       ....  0.200000
   # of expansion vecs  DIISMaxEq       ....     5
   Bias factor          DIISBfac        ....   1.050
   Max. coefficient     DIISMaxC        ....  10.000
 MO-DIIS                CNVKDIIS        .... off
 Trust-Rad. Augm. Hess. CNVTRAH         .... auto
   Auto Start mean grad. ratio tolernc. ....  1.125000
   Auto Start start iteration           ....     1
   Auto Start num. interpolation iter.  ....    10
   Max. Number of Micro iterations      ....    24
   Max. Number of Macro iterations      .... Maxiter - #DIIS iter
   Number of Davidson start vectors     ....     2
   Converg. threshold    (grad. norm)   ....   1.000e-04
   Grad. Scal. Fac. for Micro threshold ....   0.100
   Minimum threshold for Micro iter.    ....   1.000e-02
   NR start threshold (gradient norm)   ....   1.000e-04
   Initial trust radius                 ....   0.400
   Minimum AH scaling param. (alpha)    ....   1.000
   Maximum AH scaling param. (alpha)    .... 1000.000
   Quad. conv. algorithm                .... NR
   White noise on init. David. guess    .... on
   Maximum white noise                  ....   0.010
   Pseudo random numbers                .... off
   Inactive MOs                         .... canonical
   Orbital update algorithm             .... Taylor
   Preconditioner                       .... Diag
   Full preconditioner red. dimension   ....   250
 SOSCF                  CNVSOSCF        .... on
   Start iteration      SOSCFMaxIt      ....   150
   Startup grad/error   SOSCFStart      ....  0.003300
   Hessian update       SOSCFHessUp     .... L-BFGS
 Level Shifting         CNVShift        .... on
   Level shift para.    LevelShift      ....    0.2500
   Turn off err/grad.   ShiftErr        ....    0.0010
 Zerner damping         CNVZerner       .... off
 Static damping         CNVDamp         .... on
   Fraction old density DampFac         ....    0.7000
   Max. Damping (<1)    DampMax         ....    0.9800
   Min. Damping (>=0)   DampMin         ....    0.0000
   Turn off err/grad.   DampErr         ....    0.1000

SCF Procedure:
 Maximum # iterations   MaxIter         ....   125
 SCF integral mode      SCFMode         .... Direct
   Integral package                     .... SHARK and LIBINT hybrid scheme
 Reset frequency        DirectResetFreq ....    20
 Integral Threshold     Thresh          ....  1.000e-09 Eh
 Primitive CutOff       TCut            ....  1.000e-10 Eh

Convergence Tolerance:
 Convergence Check Mode ConvCheckMode   .... Total+1el-Energy
 Convergence forced     ConvForced      .... 0
 Energy Change          TolE            ....  1.000e-05 Eh
 1-El. energy change                    ....  1.000e-02 Eh
 Orbital Gradient       TolG            ....  1.000e-04
 Orbital Rotation angle TolX            ....  1.000e-04
 DIIS Error             TolErr          ....  5.000e-04

---------------------
INITIAL GUESS: MOREAD
---------------------
Guess MOs are being read from file: sp.ges
Input Geometry matches current geometry (good)
Input basis set matches current basis set (good)
Occupation numbers will be reassigned to an Aufbau configuration
MOs were renormalized
MOs were reorthogonalized (Cholesky)
                      ------------------
                      INITIAL GUESS DONE (   0.0 sec)
                      ------------------
             **** ENERGY FILE WAS UPDATED (sp.en.tmp) ****
Finished Guess after   0.1 sec
Maximum memory used throughout the entire GUESS-calculation: 11.9 MB

-------------------------------------------------------------------------------------------
                                      ORCA LEAN-SCF
                              memory conserving SCF solver
-------------------------------------------------------------------------------------------

----------------------------------------D-I-I-S--------------------------------------------
Iteration    Energy (Eh)           Delta-E    RMSDP     MaxDP     DIISErr   Damp  Time(sec)
-------------------------------------------------------------------------------------------
               ***  Starting incremental Fock matrix formation  ***
                              *** Initializing SOSCF ***
---------------------------------------S-O-S-C-F--------------------------------------
Iteration    Energy (Eh)           Delta-E    RMSDP     MaxDP     MaxGrad    Time(sec)
--------------------------------------------------------------------------------------
    1    -571.5310660413606456     0.00e+00  1.78e-05  3.65e-04  2.13e-05     0.7
               *** Restarting incremental Fock matrix formation ***
    2    -571.5310661172038635    -7.58e-08  2.42e-05  4.99e-04  5.66e-05     0.7
    3    -571.5310652430528080     8.74e-07  1.62e-05  3.43e-04  1.23e-04     0.5
                 **** Energy Check signals convergence ****

               *****************************************************
               *                     SUCCESS                       *
               *           SCF CONVERGED AFTER   3 CYCLES          *
               *****************************************************

             **** ENERGY FILE WAS UPDATED (sp.en.tmp) ****

----------------
TOTAL SCF ENERGY
----------------

Total Energy       :       -571.53106524305281 Eh          -15552.15094 eV

Components:
Nuclear Repulsion  :        641.82197203453347 Eh           17464.86376 eV
Electronic Energy  :      -1213.35303727758628 Eh          -33017.01470 eV
One Electron Energy:      -2057.24168143619045 Eh          -55980.39214 eV
Two Electron Energy:        843.88864415860417 Eh           22963.37744 eV

Virial components:
Potential Energy   :      -1139.11575585306628 Eh          -30996.91557 eV
Kinetic Energy     :        567.58469061001335 Eh           15444.76463 eV
Virial Ratio       :          2.00695292649419

DFT components:
N(Alpha)           :       40.000221722540 electrons
N(Beta)            :       40.000221722540 electrons
N(Total)           :       80.000443445080 electrons
E(X)               :      -70.500152300610 Eh       
E(C)               :       -2.741280726094 Eh       
E(XC)              :      -73.241433026704 Eh       

---------------
SCF CONVERGENCE
---------------

  Last Energy change         ...   -8.7415e-07  Tolerance :   1.0000e-05
  Last MAX-Density change    ...    3.4283e-04  Tolerance :   1.0000e-03
  Last RMS-Density change    ...    1.6204e-05  Tolerance :   1.0000e-04
  Last DIIS Error            ...    1.9733e-04  Tolerance :   5.0000e-04
  Last Orbital Gradient      ...    1.2316e-04  Tolerance :   1.0000e-04
  Last Orbital Rotation      ...    9.4444e-05  Tolerance :   1.0000e-04


----------------
ORBITAL ENERGIES
----------------

  NO   OCC          E(Eh)            E(eV) 
   0   2.0000     -18.792397      -511.3671 
   1   2.0000     -18.773417      -510.8506 
   2   2.0000     -18.768760      -510.7239 
   3   2.0000     -18.757542      -510.4187 
   4   2.0000     -18.751431      -510.2524 
   5   2.0000      -9.983203      -271.6568 
   6   2.0000      -9.960015      -271.0258 
   7   2.0000      -9.953539      -270.8496 
   8   2.0000      -9.947846      -270.6947 
   9   2.0000      -9.945691      -270.6360 
  10   2.0000      -0.989636       -26.9294 
  11   2.0000      -0.963713       -26.2240 
  12   2.0000      -0.942497       -25.6466 
  13   2.0000      -0.937030       -25.4979 
  14   2.0000      -0.907992       -24.7077 
  15   2.0000      -0.703077       -19.1317 
  16   2.0000      -0.683517       -18.5994 
  17   2.0000      -0.596708       -16.2372 
  18   2.0000      -0.592905       -16.1338 
  19   2.0000      -0.529857       -14.4181 
  20   2.0000      -0.515517       -14.0279 
  21   2.0000      -0.500520       -13.6198 
  22   2.0000      -0.474958       -12.9243 
  23   2.0000      -0.463155       -12.6031 
  24   2.0000      -0.445863       -12.1326 
  25   2.0000      -0.420068       -11.4306 
  26   2.0000      -0.410225       -11.1628 
  27   2.0000      -0.389854       -10.6085 
  28   2.0000      -0.370412       -10.0794 
  29   2.0000      -0.351877        -9.5751 
  30   2.0000      -0.343643        -9.3510 
  31   2.0000      -0.331941        -9.0326 
  32   2.0000      -0.307288        -8.3617 
  33   2.0000      -0.289688        -7.8828 
  34   2.0000      -0.283475        -7.7137 
  35   2.0000      -0.271301        -7.3825 
  36   2.0000      -0.261191        -7.1074 
  37   2.0000      -0.239901        -6.5280 
  38   2.0000      -0.220900        -6.0110 
  39   2.0000      -0.217067        -5.9067 
  40   0.0000      -0.001441        -0.0392 
  41   0.0000       0.027867         0.7583 
  42   0.0000       0.040568         1.1039 
  43   0.0000       0.054139         1.4732 
  44   0.0000       0.064604         1.7580 
  45   0.0000       0.079184         2.1547 
  46   0.0000       0.099843         2.7169 
  47   0.0000       0.115999         3.1565 
  48   0.0000       0.119998         3.2653 
  49   0.0000       0.125770         3.4224 
  50   0.0000       0.130397         3.5483 
*Only the first 10 virtual orbitals were printed.

                    ********************************
                    * MULLIKEN POPULATION ANALYSIS *
                    ********************************

-----------------------
MULLIKEN ATOMIC CHARGES
-----------------------
   0 C :    0.079640
   1 C :   -0.050461
   2 H :    0.081005
   3 C :    0.040982
   4 H :    0.071523
   5 C :    0.008561
   6 H :    0.087586
   7 C :    0.168571
   8 H :    0.072132
   9 O :   -0.312421
  10 O :   -0.385663
  11 O :   -0.435964
  12 O :   -0.416022
  13 O :   -0.413798
  14 H :    0.106626
  15 H :    0.073104
  16 H :    0.300460
  17 H :    0.303136
  18 H :    0.305942
  19 H :    0.315061
Sum of atomic charges:    0.0000000

--------------------------------
MULLIKEN REDUCED ORBITAL CHARGES
--------------------------------
  0 C s       :     2.994679  s :     2.994679
      pz      :     0.948371  p :     2.865113
      px      :     0.867644
      py      :     1.049098
      dz2     :     0.012828  d :     0.060568
      dxz     :     0.015381
      dyz     :     0.008290
      dx2y2   :     0.010151
      dxy     :     0.013918

  1 C s       :     3.106109  s :     3.106109
      pz      :     0.746030  p :     2.879705
      px      :     1.089314
      py      :     1.044361
      dz2     :     0.018448  d :     0.064647
      dxz     :     0.016684
      dyz     :     0.012748
      dx2y2   :     0.008609
      dxy     :     0.008157

  2 H s       :     0.918995  s :     0.918995

  3 C s       :     3.049344  s :     3.049344
      pz      :     0.788324  p :     2.840654
      px      :     1.012223
      py      :     1.040107
      dz2     :     0.019819  d :     0.069021
      dxz     :     0.017303
      dyz     :     0.014556
      dx2y2   :     0.007765
      dxy     :     0.009579

  4 H s       :     0.928477  s :     0.928477

  5 C s       :     3.067323  s :     3.067323
      pz      :     0.746444  p :     2.858869
      px      :     1.040382
      py      :     1.072043
      dz2     :     0.020140  d :     0.065248
      dxz     :     0.013768
      dyz     :     0.015489
      dx2y2   :     0.006089
      dxy     :     0.009762

  6 H s       :     0.912414  s :     0.912414

  7 C s       :     3.035265  s :     3.035265
      pz      :     0.936635  p :     2.696093
      px      :     0.874820
      py      :     0.884638
      dz2     :     0.016811  d :     0.100071
      dxz     :     0.026282
      dyz     :     0.017699
      dx2y2   :     0.017708
      dxy     :     0.021572

  8 H s       :     0.927868  s :     0.927868

  9 O s       :     3.762045  s :     3.762045
      pz      :     1.571471  p :     4.534654
      px      :     1.340500
      py      :     1.622683
      dz2     :     0.002729  d :     0.015723
      dxz     :     0.004741
      dyz     :     0.002888
      dx2y2   :     0.002371
      dxy     :     0.002994

 10 O s       :     3.755927  s :     3.755927
      pz      :     1.237516  p :     4.614012
      px      :     1.692136
      py      :     1.684359
      dz2     :     0.002414  d :     0.015724
      dxz     :     0.003212
      dyz     :     0.004918
      dx2y2   :     0.002209
      dxy     :     0.002972

 11 O s       :     3.781351  s :     3.781351
      pz      :     1.300381  p :     4.639210
      px      :     1.566972
      py      :     1.771857
      dz2     :     0.004649  d :     0.015404
      dxz     :     0.002926
      dyz     :     0.002435
      dx2y2   :     0.001541
      dxy     :     0.003853

 12 O s       :     3.781911  s :     3.781911
      pz      :     1.273200  p :     4.618336
      px      :     1.805297
      py      :     1.539839
      dz2     :     0.004577  d :     0.015775
      dxz     :     0.002207
      dyz     :     0.003469
      dx2y2   :     0.002326
      dxy     :     0.003196

 13 O s       :     3.780530  s :     3.780530
      pz      :     1.395470  p :     4.618219
      px      :     1.589442
      py      :     1.633307
      dz2     :     0.005843  d :     0.015050
      dxz     :     0.001605
      dyz     :     0.001846
      dx2y2   :     0.000499
      dxy     :     0.005257

 14 H s       :     0.893374  s :     0.893374

 15 H s       :     0.926896  s :     0.926896

 16 H s       :     0.699540  s :     0.699540

 17 H s       :     0.696864  s :     0.696864

 18 H s       :     0.694058  s :     0.694058

 19 H s       :     0.684939  s :     0.684939


------------------------
MULLIKEN OVERLAP CHARGES
------------------------
B(  0-C ,  1-C ) :   0.3871 B(  0-C ,  3-C ) :  -0.0730 B(  0-C ,  5-C ) :  -0.0928 
B(  0-C ,  7-C ) :  -0.0621 B(  0-C ,  9-O ) :   0.6607 B(  0-C , 13-O ) :  -0.0916 
B(  0-C , 14-H ) :   0.6960 B(  0-C , 15-H ) :   0.6079 B(  1-C ,  2-H ) :   0.6225 
B(  1-C ,  3-C ) :   0.3016 B(  1-C ,  4-H ) :  -0.1035 B(  1-C ,  5-C ) :   0.1108 
B(  1-C ,  7-C ) :  -0.1279 B(  1-C ,  9-O ) :  -0.1681 B(  1-C , 12-O ) :  -0.0749 
B(  1-C , 13-O ) :   0.4266 B(  1-C , 19-H ) :  -0.0716 B(  2-H ,  3-C ) :  -0.0795 
B(  3-C ,  4-H ) :   0.6945 B(  3-C ,  5-C ) :   0.2790 B(  3-C ,  9-O ) :   0.1055 
B(  3-C , 12-O ) :   0.5372 B(  3-C , 13-O ) :  -0.0501 B(  3-C , 18-H ) :  -0.1087 
B(  4-H ,  5-C ) :  -0.0869 B(  5-C ,  6-H ) :   0.6308 B(  5-C ,  7-C ) :   0.3804 
B(  5-C ,  9-O ) :  -0.1384 B(  5-C , 10-O ) :  -0.1058 B(  5-C , 11-O ) :   0.5631 
B(  5-C , 12-O ) :  -0.0946 B(  5-C , 17-H ) :  -0.1168 B(  6-H ,  7-C ) :  -0.0567 
B(  6-H , 11-O ) :  -0.0570 B(  7-C ,  8-H ) :   0.6980 B(  7-C ,  9-O ) :   0.5505 
B(  7-C , 10-O ) :   0.8243 B(  7-C , 11-O ) :  -0.1206 B(  7-C , 16-H ) :  -0.1335 
B(  8-H ,  9-O ) :  -0.0937 B(  8-H , 10-O ) :  -0.0717 B(  9-O , 10-O ) :  -0.1332 
B(  9-O , 15-H ) :  -0.0780 B(  9-O , 18-H ) :   0.0660 B( 10-O , 16-H ) :   0.5159 
B( 11-O , 16-H ) :   0.1295 B( 11-O , 17-H ) :   0.5312 B( 12-O , 18-H ) :   0.5515 
B( 13-O , 17-H ) :   0.1449 B( 13-O , 19-H ) :   0.5193 B( 14-H , 15-H ) :  -0.0542 



                     *******************************
                     * LOEWDIN POPULATION ANALYSIS *
                     *******************************

----------------------
LOEWDIN ATOMIC CHARGES
----------------------
   0 C :   -0.123571
   1 C :   -0.092521
   2 H :    0.110858
   3 C :   -0.084105
   4 H :    0.112717
   5 C :   -0.092113
   6 H :    0.121304
   7 C :   -0.012818
   8 H :    0.103122
   9 O :   -0.156653
  10 O :   -0.299705
  11 O :   -0.315606
  12 O :   -0.311036
  13 O :   -0.309101
  14 H :    0.123861
  15 H :    0.107749
  16 H :    0.274049
  17 H :    0.271500
  18 H :    0.277309
  19 H :    0.294760

-------------------------------
LOEWDIN REDUCED ORBITAL CHARGES
-------------------------------
  0 C s       :     2.924052  s :     2.924052
      pz      :     1.036939  p :     3.061615
      px      :     0.951206
      py      :     1.073470
      dz2     :     0.030174  d :     0.137904
      dxz     :     0.034197
      dyz     :     0.018076
      dx2y2   :     0.020281
      dxy     :     0.035177

  1 C s       :     2.908530  s :     2.908530
      pz      :     0.863909  p :     3.032444
      px      :     1.084012
      py      :     1.084523
      dz2     :     0.044072  d :     0.151548
      dxz     :     0.037229
      dyz     :     0.027666
      dx2y2   :     0.018407
      dxy     :     0.024172

  2 H s       :     0.889142  s :     0.889142

  3 C s       :     2.892915  s :     2.892915
      pz      :     0.884195  p :     3.029046
      px      :     1.069233
      py      :     1.075618
      dz2     :     0.046443  d :     0.162145
      dxz     :     0.040258
      dyz     :     0.031898
      dx2y2   :     0.020506
      dxy     :     0.023039

  4 H s       :     0.887283  s :     0.887283

  5 C s       :     2.903339  s :     2.903339
      pz      :     0.864164  p :     3.034147
      px      :     1.078713
      py      :     1.091271
      dz2     :     0.047740  d :     0.154627
      dxz     :     0.030818
      dyz     :     0.035439
      dx2y2   :     0.017616
      dxy     :     0.023013

  6 H s       :     0.878696  s :     0.878696

  7 C s       :     2.890300  s :     2.890300
      pz      :     1.003018  p :     2.898801
      px      :     0.938228
      py      :     0.957554
      dz2     :     0.034089  d :     0.223717
      dxz     :     0.062442
      dyz     :     0.041195
      dx2y2   :     0.035894
      dxy     :     0.050097

  8 H s       :     0.896878  s :     0.896878

  9 O s       :     3.482152  s :     3.482152
      pz      :     1.611948  p :     4.644312
      px      :     1.389960
      py      :     1.642404
      dz2     :     0.004417  d :     0.030188
      dxz     :     0.009690
      dyz     :     0.004448
      dx2y2   :     0.004924
      dxy     :     0.006708

 10 O s       :     3.526226  s :     3.526226
      pz      :     1.315960  p :     4.745812
      px      :     1.720174
      py      :     1.709677
      dz2     :     0.005091  d :     0.027667
      dxz     :     0.006765
      dyz     :     0.009207
      dx2y2   :     0.002619
      dxy     :     0.003986

 11 O s       :     3.524780  s :     3.524780
      pz      :     1.374043  p :     4.764036
      px      :     1.605561
      py      :     1.784432
      dz2     :     0.009634  d :     0.026790
      dxz     :     0.005451
      dyz     :     0.004095
      dx2y2   :     0.002060
      dxy     :     0.005550

 12 O s       :     3.525369  s :     3.525369
      pz      :     1.354889  p :     4.758064
      px      :     1.811738
      py      :     1.591436
      dz2     :     0.009742  d :     0.027604
      dxz     :     0.003863
      dyz     :     0.006175
      dx2y2   :     0.003231
      dxy     :     0.004593

 13 O s       :     3.536453  s :     3.536453
      pz      :     1.463125  p :     4.746065
      px      :     1.621321
      py      :     1.661620
      dz2     :     0.010960  d :     0.026582
      dxz     :     0.003166
      dyz     :     0.003183
      dx2y2   :     0.000664
      dxy     :     0.008610

 14 H s       :     0.876139  s :     0.876139

 15 H s       :     0.892251  s :     0.892251

 16 H s       :     0.725951  s :     0.725951

 17 H s       :     0.728500  s :     0.728500

 18 H s       :     0.722691  s :     0.722691

 19 H s       :     0.705240  s :     0.705240


---------------------------------
LOEWDIN BOND ORDERS (THRESH 0.050000)
---------------------------------
B(  0-C ,  1-C ) :   1.0470 B(  0-C ,  3-C ) :   0.0506 B(  0-C ,  7-C ) :   0.0660 
B(  0-C ,  9-O ) :   1.1681 B(  0-C , 13-O ) :   0.0609 B(  0-C , 14-H ) :   0.9158 
B(  0-C , 15-H ) :   0.8962 B(  1-C ,  2-H ) :   0.8797 B(  1-C ,  3-C ) :   1.0151 
B(  1-C ,  5-C ) :   0.0552 B(  1-C ,  9-O ) :   0.0654 B(  1-C , 12-O ) :   0.0849 
B(  1-C , 13-O ) :   1.1811 B(  3-C ,  4-H ) :   0.8756 B(  3-C ,  5-C ) :   1.0213 
B(  3-C ,  7-C ) :   0.0525 B(  3-C , 11-O ) :   0.0685 B(  3-C , 12-O ) :   1.2416 
B(  3-C , 13-O ) :   0.0774 B(  5-C ,  6-H ) :   0.8786 B(  5-C ,  7-C ) :   0.9929 
B(  5-C ,  9-O ) :   0.0570 B(  5-C , 10-O ) :   0.0693 B(  5-C , 11-O ) :   1.2112 
B(  5-C , 12-O ) :   0.0811 B(  7-C ,  8-H ) :   0.8882 B(  7-C ,  9-O ) :   1.1535 
B(  7-C , 10-O ) :   1.3239 B(  7-C , 11-O ) :   0.0734 B(  9-O , 10-O ) :   0.0913 
B(  9-O , 18-H ) :   0.0560 B( 10-O , 11-O ) :   0.0508 B( 10-O , 16-H ) :   0.8304 
B( 11-O , 16-H ) :   0.0965 B( 11-O , 17-H ) :   0.8328 B( 12-O , 18-H ) :   0.8623 
B( 13-O , 17-H ) :   0.1047 B( 13-O , 19-H ) :   0.8778 

------------------------------------------
LOEWDIN REDUCED ORBITAL POPULATIONS PER MO
-------------------------------------------
THRESHOLD FOR PRINTING IS 0.1%%
                      0         1         2         3         4         5   
                 -18.79240 -18.77342 -18.76876 -18.75754 -18.75143  -9.98320
                   2.00000   2.00000   2.00000   2.00000   2.00000   2.00000
                  --------  --------  --------  --------  --------  --------
 7 C  s               0.0       0.0       0.0       0.0       0.0      99.6
 9 O  s               0.0      99.9       0.0       0.0       0.0       0.0
10 O  s               0.0       0.0       0.0       0.0      99.9       0.0
11 O  s               0.0       0.0      99.9       0.0       0.0       0.0
12 O  s               0.0       0.0       0.0      99.9       0.0       0.0
13 O  s              99.9       0.0       0.0       0.0       0.0       0.0

                      6         7         8         9        10        11   
                  -9.96001  -9.95354  -9.94785  -9.94569  -0.98964  -0.96371
                   2.00000   2.00000   2.00000   2.00000   2.00000   2.00000
                  --------  --------  --------  --------  --------  --------
 0 C  s               0.0       0.0       0.0      99.6       4.6       0.1
 0 C  pz              0.0       0.0       0.0       0.0       0.8       0.8
 0 C  px              0.0       0.0       0.0       0.0       1.6       1.7
 0 C  py              0.1       0.0       0.0       0.0       0.7       0.3
 0 C  dxz             0.0       0.0       0.0       0.0       0.2       0.0
 1 C  s              99.6       0.0       0.0       0.0       3.0       7.0
 1 C  pz              0.0       0.0       0.0       0.0       0.4       6.9
 1 C  px              0.0       0.0       0.0       0.0       0.4       0.6
 1 C  py              0.0       0.1       0.0       0.1       0.0       0.4
 1 C  dz2             0.0       0.0       0.0       0.0       0.0       0.6
 2 H  s               0.1       0.0       0.0       0.0       0.4       0.8
 3 C  s               0.0      99.6       0.0       0.0       2.4       0.6
 3 C  pz              0.0       0.0       0.0       0.0       0.0       0.2
 3 C  px              0.0       0.0       0.1       0.0       0.2       0.3
 3 C  py              0.1       0.0       0.0       0.0       0.5       0.2
 4 H  s               0.0       0.1       0.0       0.0       0.3       0.2
 5 C  s               0.0       0.0      99.6       0.0       4.4       0.0
 5 C  pz              0.0       0.0       0.0       0.0       0.4       0.1
 5 C  px              0.0       0.1       0.0       0.0       0.0       0.3
 5 C  py              0.0       0.0       0.0       0.0       1.2       0.3
 6 H  s               0.0       0.0       0.1       0.0       0.5       0.0
 7 C  s               0.0       0.0       0.0       0.0      11.4       3.0
 7 C  pz              0.0       0.0       0.0       0.0       0.5       0.1
 7 C  px              0.0       0.0       0.0       0.0       0.8       0.0
 7 C  py              0.0       0.0       0.1       0.0       1.5       0.9
 7 C  dxz             0.0       0.0       0.0       0.0       0.2       0.1
 8 H  s               0.0       0.0       0.0       0.0       1.3       0.3
 9 O  s               0.0       0.0       0.0       0.0      22.1       5.7
 9 O  pz              0.0       0.0       0.0       0.0       1.2       0.3
 9 O  py              0.0       0.0       0.0       0.0       0.5       0.1
10 O  s               0.0       0.0       0.0       0.0      11.3       4.7
10 O  pz              0.0       0.0       0.0       0.0       0.2       0.0
10 O  px              0.0       0.0       0.0       0.0       0.8       0.2
10 O  py              0.0       0.0       0.0       0.0       0.5       0.1
11 O  s               0.0       0.0       0.0       0.0       7.3       0.3
11 O  pz              0.0       0.0       0.1       0.0       0.4       0.0
11 O  px              0.0       0.0       0.0       0.0       0.1       0.0
11 O  py              0.0       0.0       0.0       0.0       0.1       0.0
12 O  s               0.0       0.0       0.0       0.0       2.4       0.3
12 O  pz              0.0       0.1       0.0       0.0       0.2       0.0
13 O  s               0.0       0.0       0.0       0.0       5.9      48.1
13 O  pz              0.1       0.0       0.0       0.0       0.3       1.5
13 O  px              0.0       0.0       0.0       0.0       0.0       0.3
13 O  py              0.0       0.0       0.0       0.0       0.1       0.7
14 H  s               0.0       0.0       0.0       0.1       0.5       0.0
15 H  s               0.0       0.0       0.0       0.1       0.8       0.0
16 H  s               0.0       0.0       0.0       0.0       2.9       0.8
17 H  s               0.0       0.0       0.0       0.0       2.1       0.7
18 H  s               0.0       0.0       0.0       0.0       1.0       0.0
19 H  s               0.0       0.0       0.0       0.0       1.2       9.7

                     12        13        14        15        16        17   
                  -0.94250  -0.93703  -0.90799  -0.70308  -0.68352  -0.59671
                   2.00000   2.00000   2.00000   2.00000   2.00000   2.00000
                  --------  --------  --------  --------  --------  --------
 0 C  s               2.2       0.2       2.6      10.3       8.3       7.4
 0 C  pz              0.6       0.0       1.0       0.4       0.1       0.5
 0 C  px              0.7       0.2       1.1       2.5       0.1       0.4
 0 C  py              0.1       0.0       0.1       1.6       0.3       0.7
 0 C  dxz             0.1       0.0       0.2       0.0       0.0       0.0
 1 C  s               0.8       0.0       0.0      18.3       0.2       0.8
 1 C  pz              0.0       1.7       0.1       1.7       0.0       0.6
 1 C  px              0.0       0.3       0.3       2.2       0.0       0.1
 1 C  py              0.1       0.6       0.3       0.2       3.7       8.6
 1 C  dz2             0.0       0.1       0.0       0.2       0.0       0.0
 1 C  dxy             0.0       0.0       0.0       0.0       0.1       0.2
 2 H  s               0.1       0.0       0.0       3.5       0.1       0.4
 3 C  s               0.2       8.7       0.2       9.0       5.9       7.9
 3 C  pz              1.6       7.5       1.0       2.7       1.3       0.5
 3 C  px              0.6       0.1       0.1       0.2       2.9       5.3
 3 C  py              0.1       0.0       0.1       1.7       0.1       0.1
 3 C  dz2             0.1       0.7       0.1       0.2       0.1       0.0
 4 H  s               0.0       1.0       0.0       1.7       1.4       4.3
 5 C  s               5.2       1.2       0.5       1.7      15.4       7.8
 5 C  pz              8.4       0.0       1.2       0.3       3.6       0.2
 5 C  px              0.1       1.0       0.1       2.0       0.0       6.1
 5 C  py              0.0       0.2       0.1       0.0       0.3       0.0
 5 C  dz2             0.7       0.0       0.1       0.1       0.1       0.0
 6 H  s               0.6       0.2       0.0       0.3       3.7       3.6
 7 C  s               0.1       0.9       1.1       0.7      10.0       1.0
 7 C  pz              1.9       0.2       5.2       1.1       0.7       0.7
 7 C  px              1.0       0.2       7.2       0.1       0.8       0.1
 7 C  py              1.5       1.0       0.0       1.1       3.2       6.6
 7 C  dz2             0.0       0.0       0.2       0.0       0.0       0.0
 7 C  dxz             0.0       0.1       0.2       0.0       0.0       0.1
 7 C  dyz             0.0       0.0       0.3       0.0       0.1       0.0
 7 C  dxy             0.2       0.0       0.4       0.1       0.0       0.1
 8 H  s               0.0       0.1       0.1       0.3       2.7       0.3
 9 O  s              11.1       1.6      14.0       3.1       0.2       2.1
 9 O  pz              0.4       0.1       0.4       0.4       0.2       0.5
 9 O  px              0.1       0.0       0.5       3.1       5.9       2.2
 9 O  py              0.1       0.0       0.0       0.3       3.2       0.2
10 O  s               1.4       3.9      37.6       0.2       2.0       0.7
10 O  pz              0.1       0.0       0.0       0.3       2.1       0.1
10 O  px              0.0       0.1       0.7       0.0       0.2       0.1
10 O  py              0.1       0.1       1.1       0.0       0.1       0.5
11 O  s              41.3       2.5       7.2       1.4       3.2       0.5
11 O  pz              0.9       0.1       0.1       0.5       3.6       5.9
11 O  px              0.8       0.1       0.3       0.0       0.4       2.7
11 O  py              0.5       0.0       0.0       0.0       0.3       0.3
12 O  s               3.6      47.2       3.8       3.2       2.1       0.8
12 O  pz              0.1       1.2       0.1       1.8       1.4       5.1
12 O  px              0.0       0.4       0.0       0.1       0.0       0.9
12 O  py              0.1       1.3       0.1       0.2       0.4       1.0
13 O  s               1.4       3.6       0.7       4.1       0.0       0.5
13 O  pz              0.1       0.1       0.0       3.8       0.0       0.3
13 O  px              0.0       0.1       0.0       2.0       0.1       0.1
13 O  py              0.0       0.0       0.0       1.4       0.2       0.5
14 H  s               0.3       0.0       0.3       2.1       2.4       3.0
15 H  s               0.2       0.1       0.2       1.9       1.8       2.7
16 H  s               1.2       0.5       6.5       0.1       1.3       0.1
17 H  s               7.6       0.4       1.3       0.4       1.8       2.5
18 H  s               1.0       9.1       0.5       1.5       0.9       2.0
19 H  s               0.3       0.7       0.2       3.2       0.1       0.1

                     18        19        20        21        22        23   
                  -0.59291  -0.52986  -0.51552  -0.50052  -0.47496  -0.46315
                   2.00000   2.00000   2.00000   2.00000   2.00000   2.00000
                  --------  --------  --------  --------  --------  --------
 0 C  s               0.4       6.3       0.1       0.1       0.1       0.0
 0 C  pz              2.2       2.5       4.2       1.1       0.3       5.0
 0 C  px              3.2       0.0       1.6       0.2       2.1       2.9
 0 C  py              2.0       3.9       0.7       1.3       0.0       1.7
 0 C  dxz             0.1       0.2       0.0       0.0       0.0       0.0
 1 C  s               6.7       2.6       2.2       0.1       0.0       0.0
 1 C  pz              0.2       0.2       9.1      10.4       0.0       0.1
 1 C  px              0.4       1.2       9.6       1.4       2.0       0.3
 1 C  py              1.2       0.8       0.0       0.2       3.9       0.2
 1 C  dz2             0.0       0.0       0.1       0.4       0.0       0.0
 2 H  s               2.2       1.7       9.0       0.4       0.7       0.0
 3 C  s               3.7       1.1       0.1       0.0       0.1       0.1
 3 C  pz              0.1       1.0       0.8       0.2       9.6       2.0
 3 C  px              1.2       0.0       6.4       0.2       0.0       3.0
 3 C  py              3.5       3.7       0.0       9.4       0.9       0.7
 3 C  dz2             0.0       0.1       0.0       0.1       0.1       0.1
 4 H  s               2.3       1.4       0.2       1.4       0.2       0.2
 5 C  s               2.4       0.7       0.0       0.1       0.1       0.4
 5 C  pz              0.0       1.0       2.3       2.1       3.0       5.5
 5 C  px              1.2       0.3       4.9       0.4       3.6       0.7
 5 C  py              2.8       0.1       1.5       7.9       0.4       7.3
 5 C  dz2             0.0       0.0       0.1       0.1       0.0       0.1
 6 H  s               1.2       0.2       0.3       1.4       0.3       3.3
 7 C  s               7.3       3.3       0.4       0.6       0.3       0.2
 7 C  pz              2.1       0.1       0.2       0.1       3.6       9.2
 7 C  px              0.3       4.0       4.0       0.6       3.0       5.5
 7 C  py              0.3       0.3       0.1       3.2       3.9       0.7
 7 C  dyz             0.0       0.1       0.0       0.0       0.2       0.0
 7 C  dxy             0.0       0.1       0.0       0.1       0.1       0.0
 8 H  s               3.7       2.2       0.9       0.1       0.8       4.6
 9 O  s               0.8       2.4       0.2       1.7       0.0       1.2
 9 O  pz              0.3       1.8       0.5       0.1       1.0       9.5
 9 O  px              8.0       0.2       0.1       2.0       1.0       1.0
 9 O  py              3.7       0.6       1.1       2.1       2.3       1.2
10 O  s               0.9       0.2       0.0       0.1       0.3       1.7
10 O  pz              6.1      15.4       4.6       0.3      17.7       0.0
10 O  px              0.4       0.5       0.0       0.0       0.5       5.3
10 O  py              0.0       0.0       0.1       0.4       0.7       0.2
10 O  dyz             0.1       0.1       0.0       0.0       0.1       0.0
11 O  s               0.5       0.0       1.3       0.1       0.5       0.0
11 O  pz              2.0       4.0       2.1       4.3       4.4       4.9
11 O  px              0.4       2.8       4.0       2.0       1.0       4.5
11 O  py              0.4       0.2       2.0       2.9       1.0       0.5
12 O  s               0.3       0.0       0.0       1.0       0.0       0.4
12 O  pz              2.8       4.8       0.6       0.5      10.9       2.3
12 O  px              0.0       0.3       1.4       0.3       0.5       2.3
12 O  py              1.3       3.6       0.2       4.2       5.2       1.1
13 O  s               0.5       0.2       0.9       0.3       0.1       0.0
13 O  pz              5.6       3.6       0.1       9.5       0.0       0.2
13 O  px              3.2       0.0      10.4       5.9       0.3       0.4
13 O  py              3.2       0.2       2.0       8.6       1.6       0.1
13 O  dz2             0.1       0.1       0.0       0.2       0.0       0.0
14 H  s               0.3       3.7       1.2       0.0       0.3       2.4
15 H  s               0.0       5.4       1.2       0.2       0.1       1.5
16 H  s               1.9       4.6       1.1       0.1       6.2       0.0
17 H  s               0.9       2.3       2.7       2.0       0.3       2.1
18 H  s               1.2       2.6       0.4       0.8       4.2       2.0
19 H  s               3.6       0.5       2.6       6.3       0.0       0.2

                     24        25        26        27        28        29   
                  -0.44586  -0.42007  -0.41022  -0.38985  -0.37041  -0.35188
                   2.00000   2.00000   2.00000   2.00000   2.00000   2.00000
                  --------  --------  --------  --------  --------  --------
 0 C  s               1.4       0.4       0.3       0.2       0.1       0.5
 0 C  pz              9.5       1.0       0.0       5.9       0.9       0.3
 0 C  px              3.4       1.7       0.9       8.5       2.1       1.9
 0 C  py              1.0      10.4       0.8       5.2      11.2       3.8
 0 C  dxz             0.5       0.0       0.0       0.0       0.0       0.1
 0 C  dyz             0.0       0.0       0.0       0.1       0.0       0.0
 0 C  dx2y2           0.0       0.0       0.2       0.0       0.0       0.0
 1 C  s               0.1       0.1       0.2       0.5       0.1       0.1
 1 C  pz              1.3       1.0       0.0       0.3       0.6       2.5
 1 C  px              0.0       1.0      18.2       1.2       0.4       0.1
 1 C  py              1.3       9.4       0.3       1.1       7.5       1.0
 1 C  dz2             0.3       0.0       0.0       0.0       0.1       0.0
 1 C  dxz             0.0       0.0       0.0       0.0       0.1       0.2
 1 C  dx2y2           0.0       0.1       0.2       0.0       0.0       0.1
 1 C  dxy             0.0       0.0       0.0       0.1       0.1       0.1
 2 H  s               0.4       0.0       7.9       0.0       0.1       0.3
 3 C  s               0.1       0.2       0.4       0.1       0.4       0.1
 3 C  pz              1.8       5.8       0.0       0.0       3.6       0.0
 3 C  px              0.5       8.2       3.9       1.9       1.9       2.9
 3 C  py              0.3       2.1       2.1       0.4      15.0       0.9
 3 C  dz2             0.1       0.1       0.0       0.1       0.2       0.0
 3 C  dx2y2           0.0       0.0       0.2       0.0       0.2       0.0
 3 C  dxy             0.0       0.0       0.0       0.1       0.1       0.1
 4 H  s               0.4       5.9       0.0       0.0      11.3       0.0
 5 C  s               0.0       0.1       1.5       0.2       0.1       0.3
 5 C  pz              1.0       0.0       5.2       3.1       0.1       0.8
 5 C  px              4.4       1.6       0.4       6.5       0.3       4.2
 5 C  py              2.5       3.1       0.2      11.1       0.1       1.7
 5 C  dz2             0.0       0.0       0.2       0.1       0.1       0.2
 5 C  dxy             0.0       0.1       0.0       0.2       0.1       0.1
 6 H  s               0.0       0.4       1.7      10.7       0.1       4.9
 7 C  s               0.3       1.2       0.1       0.2       0.2       0.1
 7 C  pz              3.7       0.4       7.2       0.9       0.4       4.0
 7 C  px              2.6       0.0       3.8       0.7       0.1       1.5
 7 C  py              7.8       4.2       0.3       0.1       0.2       0.9
 7 C  dz2             0.0       0.1       0.1       0.1       0.0       0.0
 7 C  dxz             0.0       0.2       0.0       0.0       0.0       0.2
 7 C  dx2y2           0.0       0.0       0.1       0.0       0.0       0.3
 7 C  dxy             0.1       0.0       0.0       0.1       0.0       0.0
 8 H  s               0.1       1.8       5.8       0.5       0.1       4.9
 9 O  s               0.2       0.0       0.1       0.3       0.0       0.4
 9 O  pz              0.2       0.0       5.3       5.9       0.2       1.2
 9 O  px             18.2       0.2       0.2       0.1       1.2       4.0
 9 O  py              3.4       1.1       0.5       0.1       4.4       1.0
10 O  s               0.6       1.8       0.0       0.1       0.2       0.6
10 O  pz              3.2       4.4       0.3       0.0       0.0       0.0
10 O  px              0.1       0.2       3.7       0.8       0.4       7.5
10 O  py              3.8       2.9       0.4       0.6       1.2       0.2
11 O  s               0.0       0.1       0.2       1.1       0.3       0.2
11 O  pz              1.9       0.1       4.7       8.5       0.0       1.3
11 O  px              0.0       0.2       4.9       1.5       0.4       0.4
11 O  py              1.7       2.3       0.9       4.6       0.0       0.0
12 O  s               0.0       0.3       0.1       0.0       1.7       0.7
12 O  pz              2.1       7.4       1.1       0.2      12.4       0.1
12 O  px              0.4       0.7       1.3       0.1       1.5       1.1
12 O  py              0.7       0.1       0.4       0.5       6.3       5.5
12 O  dyz             0.0       0.0       0.0       0.0       0.1       0.0
13 O  s               0.5       1.3       1.1       0.3       0.2       3.1
13 O  pz              2.2       3.8       5.0       0.1       6.0      14.0
13 O  px              3.9       0.1       4.5       0.0       0.1      11.8
13 O  py              0.8       3.5       0.1       1.7       1.0       1.3
14 H  s               1.4       1.8       0.0       8.5       1.0       2.7
15 H  s               5.0       3.2       0.0       3.5       2.3       0.2
16 H  s               0.5       1.8       0.3       0.1       0.0       0.0
17 H  s               0.7       0.0       1.8       0.2       0.2       1.4
18 H  s               0.9       1.1       0.0       0.0       0.2       0.4
19 H  s               1.9       0.0       0.0       0.3       0.1       1.3

                     30        31        32        33        34        35   
                  -0.34364  -0.33194  -0.30729  -0.28969  -0.28347  -0.27130
                   2.00000   2.00000   2.00000   2.00000   2.00000   2.00000
                  --------  --------  --------  --------  --------  --------
 0 C  s               0.2       0.2       0.1       0.2       0.1       0.0
 0 C  pz              1.0       2.4       5.0       0.7       1.5       0.1
 0 C  px              2.8       5.3       0.4       0.2       0.3       0.0
 0 C  py              0.0       0.0       3.5       0.3       0.0       0.4
 0 C  dz2             0.0       0.1       0.1       0.1       0.1       0.0
 0 C  dx2y2           0.0       0.1       0.0       0.0       0.0       0.0
 0 C  dxy             0.1       0.1       0.5       0.1       0.0       0.0
 1 C  s               0.2       0.3       0.7       0.8       0.0       0.2
 1 C  pz              2.2       1.0       0.1       1.2       0.1       0.4
 1 C  px              1.3       4.4       1.5       0.2       0.5       1.1
 1 C  py              0.2       0.4       1.4       0.7       0.0       0.3
 1 C  dz2             0.0       0.0       0.1       0.0       0.0       0.0
 1 C  dxz             0.3       0.0       0.0       0.1       0.0       0.4
 1 C  dyz             0.0       0.4       0.0       0.0       0.1       0.3
 1 C  dx2y2           0.1       0.1       0.0       0.1       0.0       0.0
 1 C  dxy             0.0       0.1       0.1       0.2       0.0       0.1
 2 H  s               4.4       2.9       0.1       0.8       0.4       2.6
 3 C  s               1.2       1.4       0.0       0.4       0.1       0.2
 3 C  pz              0.2       0.1       0.0       2.3       0.6       0.5
 3 C  px              0.5       0.1       1.0       4.3       0.4       0.1
 3 C  py              1.0       1.2       0.0       3.0       0.0       3.4
 3 C  dz2             0.0       0.1       0.0       0.1       0.1       0.0
 3 C  dxz             0.2       0.0       0.0       0.0       0.0       0.5
 3 C  dyz             0.1       0.4       0.1       0.4       0.0       0.0
 4 H  s               2.4       2.5       0.3       3.3       0.4       1.0
 5 C  s               1.2       0.2       0.0       0.1       1.0       0.2
 5 C  pz              1.1       0.1       0.0       0.7       1.3       0.5
 5 C  px              0.0       1.5       0.0       4.3       1.4       0.8
 5 C  py              0.0       0.6       1.2       0.4       3.4       0.1
 5 C  dz2             0.0       0.0       0.0       0.0       0.0       0.1
 5 C  dxz             0.4       0.1       0.0       0.2       0.0       0.1
 5 C  dyz             0.0       0.0       0.3       0.0       0.1       0.2
 5 C  dx2y2           0.0       0.1       0.0       0.2       0.0       0.0
 5 C  dxy             0.0       0.1       0.0       0.0       0.0       0.0
 6 H  s               0.6       2.7       0.6       1.1       0.1       0.0
 7 C  s               0.1       0.0       0.6       0.0       0.8       0.1
 7 C  pz              1.3       0.2       1.1       0.6       0.9       0.3
 7 C  px              0.7       1.7       3.8       0.6       1.0       0.0
 7 C  py              0.5       0.5       0.4       0.2       1.0       0.2
 7 C  dz2             0.0       0.0       0.3       0.0       0.2       0.0
 7 C  dxz             0.2       0.0       0.1       0.2       0.0       0.1
 7 C  dx2y2           0.0       0.0       0.0       0.0       0.1       0.0
 7 C  dxy             0.0       0.0       0.0       0.0       0.6       0.0
 8 H  s               1.2       1.4       0.1       1.1       3.2       0.3
 9 O  s               0.2       0.1       3.9       0.1       1.2       0.2
 9 O  pz              0.1       0.0      17.4       2.9      11.7       1.1
 9 O  px              0.2       1.0       1.6       2.5       0.0       0.0
 9 O  py              3.4       1.3       8.0       9.9       0.6       0.0
10 O  s               0.5       0.3       2.7       0.5       3.2       0.1
10 O  pz              0.8       0.0       0.1       0.3       4.1       0.1
10 O  px              3.6       0.1       5.5       0.1       8.2       0.3
10 O  py              1.5       1.8      15.7       0.1      17.7       4.2
11 O  s               5.3       0.2       0.5       1.4       0.2       0.1
11 O  pz             11.2       0.0       0.1       3.1       1.5       1.5
11 O  px             19.9       1.3       0.1      11.4       7.2       5.3
11 O  py              3.2       0.1       4.4       0.6      11.4      11.1
12 O  s               1.4       2.9       0.0       3.0       0.1       0.7
12 O  pz              0.3       0.7       0.0       8.0       1.6       1.0
12 O  px              6.6       2.7       1.5       0.2       1.7      29.5
12 O  py              2.1       9.1       1.0      17.1       0.8       0.2
13 O  s               0.3       1.6       1.5       0.5       0.1       0.0
13 O  pz              4.8       6.1       0.5       3.5       0.0       0.9
13 O  px              2.3       2.3       1.1       0.5       2.8      15.3
13 O  py              0.0      25.2       3.1       0.6       1.6      12.4
14 H  s               1.5       4.1       3.8       0.1       0.3       0.1
15 H  s               1.2       2.8       1.5       0.7       0.9       0.0
16 H  s               0.1       0.1       0.7       0.7       2.7       0.3
17 H  s               2.1       0.3       0.2       1.1       0.1       0.2
18 H  s               1.0       1.9       0.0       1.7       0.2       0.4
19 H  s               0.2       0.8       1.3       0.2       0.1       0.0

                     36        37        38        39        40        41   
                  -0.26119  -0.23990  -0.22090  -0.21707  -0.00144   0.02787
                   2.00000   2.00000   2.00000   2.00000   0.00000   0.00000
                  --------  --------  --------  --------  --------  --------
 0 C  s               0.1       0.0       0.0       0.0       0.8       1.3
 0 C  pz              3.5       0.0       0.1       0.0       0.3       1.7
 0 C  px              0.3       0.5       0.8       0.2       0.1       5.0
 0 C  py              1.1       0.2       2.0       0.0       0.1       1.4
 0 C  dz2             0.3       0.2       0.2       0.1       0.0       0.0
 0 C  dxz             0.0       0.0       0.1       0.0       0.2       1.0
 0 C  dyz             0.2       0.0       0.2       0.0       0.2       0.2
 0 C  dx2y2           0.0       0.0       0.1       0.0       0.0       0.4
 0 C  dxy             0.0       0.1       0.5       0.0       0.2       0.0
 1 C  s               0.1       0.0       0.0       0.9       1.1       1.1
 1 C  pz              0.2       0.0       0.2       0.5       5.8       1.3
 1 C  px              2.9       0.0       0.1       2.3       0.9       3.4
 1 C  py              0.6       0.0       8.4       1.4       0.0       0.1
 1 C  dz2             0.0       0.0       0.0       0.1       0.4       0.8
 1 C  dxz             0.3       0.0       0.1       0.1       0.2       0.0
 1 C  dyz             0.0       0.0       0.1       0.2       0.2       0.1
 1 C  dx2y2           0.0       0.0       0.0       0.1       0.1       0.7
 2 H  s               3.3       0.0       0.0       2.0       6.6       6.4
 3 C  s               0.2       0.1       0.1       0.0       0.5       1.8
 3 C  pz              0.0       0.0       0.5       0.0       0.8       3.8
 3 C  px              0.4       0.1       0.2       6.6       0.4       0.1
 3 C  py              0.0       0.0       2.2       1.0       1.4       0.4
 3 C  dz2             0.0       0.0       0.0       0.0       0.6       0.5
 3 C  dxz             0.0       0.0       0.1       0.9       0.0       0.0
 3 C  dyz             0.0       0.0       0.2       0.2       0.0       0.1
 3 C  dx2y2           0.0       0.0       0.0       0.2       0.0       0.2
 3 C  dxy             0.0       0.0       0.2       0.0       0.2       0.1
 4 H  s               0.2       0.0       1.6       0.2       3.0       4.0
 5 C  s               0.0       0.0       0.5       0.3       0.1       0.8
 5 C  pz              0.1       0.0       0.4       0.4       0.9       0.0
 5 C  px              0.2       0.0       0.1       7.2       0.0       0.6
 5 C  py              1.3       0.7       5.2       0.9       0.1       1.2
 5 C  dz2             0.0       0.0       0.0       0.0       0.2       0.0
 5 C  dxz             0.0       0.0       0.0       0.2       0.0       0.0
 5 C  dyz             0.4       0.2       0.3       0.1       0.0       0.1
 5 C  dx2y2           0.0       0.0       0.0       0.0       0.0       0.4
 5 C  dxy             0.1       0.0       0.2       0.0       0.2       0.2
 6 H  s               1.9       0.7       2.6       0.1       0.6       5.9
 7 C  s               0.0       0.4       0.4       0.1       0.0       0.7
 7 C  pz              1.9       0.4       0.7       0.6       0.0       0.9
 7 C  px              1.0       0.6       0.6       0.7       0.1       1.9
 7 C  py              1.7       1.4       2.9       1.0       0.1       1.8
 7 C  dz2             0.0       0.4       0.2       0.0       0.0       0.1
 7 C  dxz             0.7       0.4       0.2       0.0       0.1       0.2
 7 C  dyz             0.0       0.6       0.1       0.1       0.0       0.0
 7 C  dx2y2           0.3       0.3       0.4       0.1       0.0       0.0
 7 C  dxy             0.1       0.3       0.0       0.0       0.0       0.1
 8 H  s               3.3       2.5       0.2       0.7       0.2       6.7
 9 O  s               0.8       0.1       0.3       0.1       0.2       3.5
 9 O  pz              8.9       7.8       1.0       0.2       0.0       0.4
 9 O  px              2.1       4.4       7.2       2.2       0.4       1.0
 9 O  py              5.8       0.6      24.3       2.4       0.0       0.8
[...]
11 O  dx2y2           2.2       4.3       0.5       0.0       0.0       0.1
11 O  dxy             4.0      12.5       0.8       1.1       0.1       0.0
12 O  s               0.5       0.0       0.1       0.3       0.1       0.4
12 O  pz              0.0       0.0       0.0       0.0       0.1       0.9
12 O  px              0.3       0.2       0.0       0.1       0.0       0.0
12 O  py              0.2       0.1       0.1       0.0       0.0       0.2
12 O  dz2             0.0       0.2       0.1       0.0       0.5      16.2
12 O  dxz             0.2      14.1       0.7       5.6       0.1       0.4
12 O  dyz            19.8       3.0       3.7       0.7       0.1       0.0
12 O  dx2y2           5.2       0.6       2.4       0.0       0.0       0.2
12 O  dxy            10.9       0.0       4.0       0.5       0.0       0.2
13 O  s               0.4       0.0       0.0       0.1       0.1       2.5
13 O  pz              0.0       0.0       0.0       0.0       0.0       2.5
13 O  px              0.0       0.8       0.0       0.1       0.0       0.3
13 O  py              0.0       0.0       0.0       0.0       0.0       0.4
13 O  dz2             1.3       0.0       0.0       0.3       0.0      37.7
13 O  dxz             0.6       1.2       0.3       0.6       0.5       4.1
13 O  dyz             5.4       3.2       0.4       1.0       0.4       1.9
13 O  dx2y2           0.0       0.5       0.0       0.0       0.0       0.0
13 O  dxy             7.4       7.2       0.0       0.3       0.2       0.1
16 H  s               0.8       0.4       2.9       0.3       0.1       0.0
17 H  s               0.8       3.0       0.3       0.4       0.0       0.1
18 H  s               2.8       0.0       1.1       0.0       0.0       0.2
19 H  s               0.9       0.7       0.0       0.0       0.0       0.5

                    156       157       158       159   
                   3.27971   3.33603   3.35131   3.37169
                   0.00000   0.00000   0.00000   0.00000
                  --------  --------  --------  --------
 0 C  s               0.2       0.1       0.1       1.4
 0 C  pz              0.0       0.1       0.0       0.7
 0 C  px              0.0       0.2       0.1       1.4
 0 C  py              0.0       0.0       0.0       0.1
 0 C  dxz             0.1       0.5       0.0       3.0
 0 C  dyz             0.0       0.0       0.1       0.5
 0 C  dx2y2           0.1       0.3       0.0       1.1
 0 C  dxy             0.0       0.0       0.2       0.5
 1 C  s               0.4       0.1       0.3       0.0
 1 C  pz              0.7       0.1       0.7       0.0
 1 C  dz2             2.3       0.2       1.5       0.0
 1 C  dyz             0.1       0.1       0.4       0.0
 3 C  s               0.1       0.2       2.0       0.0
 3 C  pz              0.0       0.5       2.7       0.0
 3 C  dz2             0.2       1.0       8.3       0.0
 3 C  dxz             1.1       0.2       0.1       0.0
 3 C  dyz             0.1       0.0       0.0       0.0
 4 H  s               0.0       0.0       0.1       0.0
 5 C  s               1.2       0.9       0.0       0.0
 5 C  pz              2.0       1.6       0.0       0.0
 5 C  dz2             6.0       5.9       0.0       0.0
 5 C  dxz             0.0       0.0       0.6       0.0
 5 C  dyz             0.0       0.1       0.0       0.0
 5 C  dxy             0.0       0.1       0.1       0.0
 7 C  s               1.1       1.4       0.6       0.8
 7 C  pz              0.6       0.6       0.2       0.8
 7 C  px              0.3       0.5       0.2       1.9
 7 C  py              0.1       0.6       0.2       0.6
 7 C  dz2             0.1       0.0       0.1       1.6
 7 C  dxz             1.5       2.7       1.8       0.3
 7 C  dyz             0.2       2.1       0.3       1.4
 7 C  dx2y2           0.1       0.4       0.4       0.1
 7 C  dxy             0.3       0.4       0.1       5.5
 9 O  s               0.1       0.1       0.2       0.1
 9 O  pz              0.1       0.1       0.1       0.1
 9 O  px              0.0       0.1       0.1       4.7
 9 O  py              0.0       0.1       0.0       1.3
 9 O  dz2             0.5       0.4       0.1       4.2
 9 O  dxz             0.4       1.9       0.6      38.6
 9 O  dyz             0.1       0.1       0.0       8.8
 9 O  dx2y2           0.6       2.7       1.1       3.5
 9 O  dxy             0.0       0.2       0.6      10.0
10 O  s               1.0       2.0       0.6       0.2
10 O  pz              0.9       1.5       0.7       0.3
10 O  px              0.3       0.4       0.1       0.1
10 O  py              0.1       0.1       0.1       0.0
10 O  dz2             0.3       1.1       0.3       0.4
10 O  dxz             8.1      15.1       5.4       3.0
10 O  dyz             5.8       8.9       4.9       0.6
10 O  dx2y2           0.1       1.0       0.1       0.7
10 O  dxy             3.5       3.2       1.6       0.5
11 O  s               1.6       2.2       0.0       0.0
11 O  pz              2.4       2.0       0.0       0.0
11 O  px              0.1       0.1       0.0       0.0
11 O  dz2            34.5      24.9       0.0       0.0
11 O  dxz             0.4       0.6       0.7       0.0
11 O  dyz             0.9       0.0       0.0       0.0
11 O  dx2y2           0.4       0.0       0.0       0.0
11 O  dxy             0.5       0.0       0.1       0.0
12 O  s               0.1       0.7       4.1       0.0
12 O  pz              0.0       0.3       3.2       0.0
12 O  dz2             1.0       5.1      40.5       0.1
12 O  dxz             1.5       0.6       0.4       0.0
12 O  dyz             0.3       0.2       1.8       0.0
13 O  s               1.1       0.1       1.0       0.0
13 O  pz              0.6       0.1       0.5       0.0
13 O  px              0.3       0.0       0.1       0.0
13 O  dz2             9.5       1.5       6.0       0.0
13 O  dxz             1.7       0.3       2.2       0.0
13 O  dyz             0.3       0.0       0.1       0.0
13 O  dx2y2           0.1       0.0       0.1       0.0
16 H  s               0.3       0.4       0.2       0.0
17 H  s               0.8       0.3       0.0       0.0
18 H  s               0.0       0.1       0.4       0.0
19 H  s               0.1       0.0       0.1       0.0


                      *****************************
                      * MAYER POPULATION ANALYSIS *
                      *****************************

  NA   - Mulliken gross atomic population
  ZA   - Total nuclear charge
  QA   - Mulliken gross atomic charge
  VA   - Mayer's total valence
  BVA  - Mayer's bonded valence
  FA   - Mayer's free valence

  ATOM       NA         ZA         QA         VA         BVA        FA
  0 C      5.9204     6.0000     0.0796     3.9474     3.9474    -0.0000
  1 C      6.0505     6.0000    -0.0505     4.0305     4.0305    -0.0000
  2 H      0.9190     1.0000     0.0810     0.9628     0.9628     0.0000
  3 C      5.9590     6.0000     0.0410     4.0791     4.0791    -0.0000
  4 H      0.9285     1.0000     0.0715     0.9675     0.9675    -0.0000
  5 C      5.9914     6.0000     0.0086     3.9601     3.9601     0.0000
  6 H      0.9124     1.0000     0.0876     0.9569     0.9569    -0.0000
  7 C      5.8314     6.0000     0.1686     4.1620     4.1620     0.0000
  8 H      0.9279     1.0000     0.0721     0.9637     0.9637     0.0000
  9 O      8.3124     8.0000    -0.3124     2.1803     2.1803     0.0000
 10 O      8.3857     8.0000    -0.3857     2.1022     2.1022    -0.0000
 11 O      8.4360     8.0000    -0.4360     2.0512     2.0512    -0.0000
 12 O      8.4160     8.0000    -0.4160     2.0058     2.0058    -0.0000
 13 O      8.4138     8.0000    -0.4138     2.0453     2.0453     0.0000
 14 H      0.8934     1.0000     0.1066     0.9518     0.9518     0.0000
 15 H      0.9269     1.0000     0.0731     1.0067     1.0067    -0.0000
 16 H      0.6995     1.0000     0.3005     0.9304     0.9304    -0.0000
 17 H      0.6969     1.0000     0.3031     0.9443     0.9443     0.0000
 18 H      0.6941     1.0000     0.3059     0.9160     0.9160     0.0000
 19 H      0.6849     1.0000     0.3151     0.8761     0.8761    -0.0000

  Mayer bond orders larger than 0.100000
B(  0-C ,  1-C ) :   1.0521 B(  0-C ,  9-O ) :   1.0428 B(  0-C , 14-H ) :   0.9308 
B(  0-C , 15-H ) :   0.8823 B(  1-C ,  2-H ) :   0.8939 B(  1-C ,  3-C ) :   0.9841 
B(  1-C , 13-O ) :   1.0095 B(  3-C ,  4-H ) :   0.8989 B(  3-C ,  5-C ) :   0.9989 
B(  3-C , 12-O ) :   1.0641 B(  5-C ,  6-H ) :   0.8922 B(  5-C ,  7-C ) :   0.9575 
B(  5-C , 11-O ) :   1.0432 B(  7-C ,  8-H ) :   0.9091 B(  7-C ,  9-O ) :   0.9995 
B(  7-C , 10-O ) :   1.2037 B( 10-O , 16-H ) :   0.7899 B( 11-O , 16-H ) :   0.1233 
B( 11-O , 17-H ) :   0.7851 B( 12-O , 18-H ) :   0.8230 B( 13-O , 17-H ) :   0.1357 
B( 13-O , 19-H ) :   0.8395 

-------
TIMINGS
-------

Total SCF time: 0 days 0 hours 0 min 2 sec 

Total time                  ....       2.258 sec
Sum of individual times     ....       2.055 sec  ( 91.0%)

SCF preparation             ....       0.029 sec  (  1.3%)
Fock matrix formation       ....       1.896 sec  ( 84.0%)
  Startup                   ....       0.002 sec  (  0.1% of F)
  Split-RI-J                ....       0.928 sec  ( 48.9% of F)
  XC integration            ....       0.953 sec  ( 50.3% of F)
    XC Preparation          ....       0.000 sec  (  0.0% of XC)
    Basis function eval.    ....       0.379 sec  ( 39.8% of XC)
    Density eval.           ....       0.238 sec  ( 24.9% of XC)
    XC-Functional eval.     ....       0.059 sec  (  6.1% of XC)
    XC-Potential eval.      ....       0.248 sec  ( 26.0% of XC)
Diagonalization             ....       0.000 sec  (  0.0%)
Density matrix formation    ....       0.002 sec  (  0.1%)
Total Energy calculation    ....       0.000 sec  (  0.0%)
Population analysis         ....       0.110 sec  (  4.9%)
Orbital Transformation      ....       0.004 sec  (  0.2%)
Orbital Orthonormalization  ....       0.000 sec  (  0.0%)
DIIS solution               ....       0.005 sec  (  0.2%)
  MO trafo                  ....       0.000 sec  (  0.0 % of DIIS)
  Orb grad                  ....       0.000 sec  (  0.0 % of DIIS)
  Energy W gradient         ....       0.000 sec  (  0.0 % of DIIS)
  DIIS error                ....       0.001 sec  ( 13.2 % of DIIS)
  DIIS work                 ....       0.004 sec  ( 85.4 % of DIIS)
  Form Q                    ....       0.000 sec  (  0.0 % of DIIS)
  Form QpQm                 ....       0.000 sec  (  0.0 % of DIIS)
  Exp/Cayley                ....       0.000 sec  (  0.0 % of DIIS)
  Orb update                ....       0.000 sec  (  0.0 % of DIIS)
  Wake-sleep                ....       0.000 sec  (  1.4 % of DIIS)
SOSCF solution              ....       0.009 sec  (  0.4%)
  MO trafo                  ....       0.006 sec  ( 62.4 % of SOSCF)
  Orb grad                  ....       0.000 sec  (  0.8 % of SOSCF)
  Rot update                ....       0.000 sec  (  3.1 % of SOSCF)
  Step                      ....       0.003 sec  ( 32.7 % of SOSCF)
Finished LeanSCF after   2.3 sec

Maximum memory used throughout the entire LEANSCF-calculation: 15.6 MB


-------------------------------------------------------------------------------
                          DFT DISPERSION CORRECTION                            
                                                                               
                                DFTD4 V3.4.0                                   
-------------------------------------------------------------------------------
The PBE functional is recognized
Active option DFTDOPT                   ...         5   

-------------------------   ----------------
Dispersion correction           -0.020323346
-------------------------   ----------------

------------------   -----------------
gCP correction             0.133863675
------------------   -----------------

-------------------------   --------------------
FINAL SINGLE POINT ENERGY      -571.417524913506
-------------------------   --------------------


------------------------------------------------------------------------------
                              ORCA PROPERTY CALCULATIONS
------------------------------------------------------------------------------

GBWName                                 ... sp.gbw
Number of atoms                         ...     20
Number of basis functions               ...    160
Max core memory                         ...   1024 MB

Electric properties:
Dipole moment                           ... YES
Quadrupole moment                       ...  NO
Static polarizability (Dipole/Dipole)   ...  NO
Static polarizability (Dipole/Quad.)    ...  NO
Static polarizability (Quad./Quad.)     ...  NO
Static polarizability (Velocity)        ...  NO

Atomic electric properties:
Dipole moment                           ...  NO
Quadrupole moment                       ...  NO
Static polarizability                   ...  NO

Choice of electric origin               ... Center of mass
Position of electric origin             ...     0.000007    -0.000001    -0.000002

General magnetic properties:
Magnetizability                         ...  NO

EPR properties:
g-Tensor (aka g-matrix)                 ...  NO
Zero-Field splitting spin-orbit         ...  NO
Zero-field splitting spin-spin          ...  NO
Hyperfine couplings                     ...  NO (   0 nuclei)
Quadrupole couplings                    ...  NO (   0 nuclei)
Contact density                         ...  NO (   0 nuclei)

NMR properties:
Chemical shifts                         ...  NO (   0 nuclei)
Spin-rotation constants                 ...  NO (   0 nuclei)
Spin-spin couplings                     ...  NO (   0 nuclei,    0 pairs)

Choice of magnetic origin               ... GIAO
Position of magnetic origin             ...     0.000000     0.000000     0.000000

Properties with geometric perturbations:
SCF Hessian                             ...  NO
IR spectrum                             ...  NO
VCD spectrum                            ...  NO
X-ray spectroscopy properties:
SCF XES/XAS/RIXS spectra                ...  NO


-------------
DIPOLE MOMENT
-------------

Method             : SCF
Type of density    : Electron Density
Multiplicity       :   1
Irrep              :   0
Energy             :  -571.5310652430528080 Eh
Relativity type    : 
Basis              : AO
                                X                 Y                 Z
Electronic contribution:     -1.434976880       0.128539566      -0.345848973
Nuclear contribution   :      2.589482690      -0.365582758       0.678826097
                        -----------------------------------------
Total Dipole Moment    :      1.154505810      -0.237043192       0.332977124
                        -----------------------------------------
Magnitude (a.u.)       :      1.224723195
Magnitude (Debye)      :      3.112998968



--------------------
Rotational spectrum 
--------------------
 
Rotational constants in cm-1:             0.056817             0.043768             0.040433 
Rotational constants in MHz :          1703.326876          1312.140465          1212.146903 

Dipole components along the rotational axes: 
x,y,z [a.u.] :     1.159340     0.386195     0.082037 
x,y,z [Debye]:     2.946809     0.981630     0.208522 

 

Dipole moment calculation done in   0.0 sec 

Maximum memory used throughout the entire PROP-calculation: 10.3 MB

--------------------------------
SUGGESTED CITATIONS FOR THIS RUN
--------------------------------

Below you find a list of papers that are relevant to this ORCA run
We neither can nor want to force you to cite these papers, but we appreciate if you do
You receive ORCA, which is the product of decades of hard work by many enthusiastic individuals, for free
The only thing we kindly ask in return is that you cite our papers,
We deeply appreciate it, if you show your appreciation for ORCA by not just citing the generic ORCA reference.

Please note that relegating all ORCA citations to the supporting information does *not* help us.
SI sections are not indexed - citations you put there will not count into any citation statistics
But we need these citations in order to attract the funding resources that allow us to do what we are doing

Therefore, if you are a happy ORCA user, please consider citing a few of the papers listed below in the main body of your paper

In addition to the list printed below, the program has created the file sp.bibtex that contains the list in bibtex format
You can import this file easily into all common literature databanks and citation aid programs


List of essential papers. We consider these as the minimum necessary citations

  1. Neese,F.
     Software update: the ORCA program system, version 5.0
     WIRES Comput. Molec. Sci., 2022 12(1)e1606
     doi.org/10.1002/wcms.1606

List of papers to cite with high priority. The work reported in these papers was absolutely
necessary for this run to complete.
Our perspective: the developers of density functionals and basis sets usually get cited in chemistry papers
Good! But without the algorithms to do something with them, the functionals or basis sets would not do anything.
Hence, in our opinion, the algorithm design and method developments papers are equally worthy of getting cited

  1. Neese,F.
     An improvement of the resolution of the identity approximation for the formation of the Coulomb matrix
     J. Comp. Chem., 2003 24(14)1740-1747
     doi.org/10.1002/jcc.10318
  2. Neese,F.
     The SHARK Integral Generation and Digestion System
     J. Comp. Chem., 2022  1-16
     doi.org/10.1002/jcc.26942
  3. Caldeweyher,E.; Bannwarth,C.; Grimme,S.
     Extension of the D3 dispersion coefficient model
     J. Chem. Phys., 2017 147 034112
     doi.org/10.1063/1.4993215
  4. Caldeweyher,E.; Ehlert,S.; Hansen,A.; Neugebauer,H.; Spicher,S.; Bannwarth,C.; Grimme,S.
     A generally applicable atomic-charge dependent London dispersion correction
     J. Chem. Phys., 2019 150 154122
     doi.org/10.1063/1.5090222
  5. Caldeweyher,E.; Mewes,J.; Ehlert,S.; Grimme,S.
     Extension and evaluation of the D4 London-dispersion model for periodic systems
     Phys. Chem. Chem. Phys., 2020 22(16)8499-8512
     doi.org/10.1039/D0CP00502A
  6. Wittmann,L.; Gordiy,I.; Friede,M.; Helmich-Paris,B.; Grimme,S.; Hansen,A.; Bursch,M.
     Extension of the D3 and D4 London Dispersion Corrections to the full Actinides Series
     Phys. Chem. Chem. Phys., 2024 26(32)21379-21394
     doi.org/https://doi.org/10.1039/D4CP01514B 

List of suggested additional citations. These are papers that are important in the 'surrounding' of 
of this run, or papers that preceded the highly important papers. If you like your results we are grateful for a citation.

  1. Neese,F.
     The ORCA program system
     WIRES Comput. Molec. Sci., 2012 2(1)73-78
     doi.org/10.1002/wcms.81
  2. Neese,F.
     Software update: the ORCA program system, version 4.0
     WIRES Comput. Molec. Sci., 2018 8(1)1-6
     doi.org/10.1002/wcms.1327
  3. Neese,F.; Wennmohs,F.; Becker,U.; Riplinger,C.
     The ORCA quantum chemistry program package
     J. Chem. Phys., 2020 152 Art. No. L224108
     doi.org/10.1063/5.0004608

List of optional additional citations

  1. Neese,F.
     Approximate second-order SCF convergence for spin unrestricted wavefunctions
     Chem. Phys. Lett., 2000 325(1-3)93-98
     doi.org/10.1016/s0009-2614(00)00662-x

Timings for individual modules:

Sum of individual times          ...        2.926 sec (=   0.049 min)
Startup calculation              ...        0.497 sec (=   0.008 min)  17.0 %
SCF iterations                   ...        2.367 sec (=   0.039 min)  80.9 %
Property calculations            ...        0.062 sec (=   0.001 min)   2.1 %
                             ****ORCA TERMINATED NORMALLY****
TOTAL RUN TIME: 0 days 0 hours 0 minutes 3 seconds 59 msec
