
                                 *****************
                                 * O   R   C   A *
                                 *****************

                                            #,                                       
                                            ###                                      
                                            ####                                     
                                            #####                                    
                                            ######                                   
                                           ########,                                 
                                     ,,################,,,,,                         
                               ,,#################################,,                 
                          ,,##########################################,,             
                       ,#########################################, ''#####,          
                    ,#############################################,,   '####,        
                  ,##################################################,,,,####,       
                ,###########''''           ''''###############################       
              ,#####''   ,,,,##########,,,,          '''####'''          '####       
            ,##' ,,,,###########################,,,                        '##       
           ' ,,###''''                  '''############,,,                           
         ,,##''                                '''############,,,,        ,,,,,,###''
      ,#''                                            '''#######################'''  
     '                                                          ''''####''''         
             ,#######,   #######,   ,#######,      ##                                
            ,#'     '#,  ##    ##  ,#'     '#,    #''#        ,####,   ,####,        
            ##       ##  ##   ,#'  ##            #'  '#       #'       #'  '#        
            ##       ##  #######   ##           ,######,      #####,   #    #        
            '#,     ,#'  ##    ##  '#,     ,#' ,#      #,     #,   #   #,  ,#        
             '#######'   ##     ##  '#######'  #'      '#     '####' # '####'        



                #########################################################
                #                        -***-                          #
                #          Department of theory and spectroscopy        #
                #                                                       #
                #                      Frank Neese                      #
                #                                                       #
                #     Directorship, Architecture, Infrastructure        #
                #                    SHARK, DRIVERS                     #
                #        Core code/Algorithms in most modules           #
                #                                                       #
                #        Max Planck Institute fuer Kohlenforschung      #
                #                Kaiser Wilhelm Platz 1                 #
                #                 D-45470 Muelheim/Ruhr                 #
                #                      Germany                          #
                #                                                       #
                #                  All rights reserved                  #
                #                        -***-                          #
                #########################################################


                         Program Version 6.0.1  -  RELEASE   -


 With contributions from (in alphabetic order):
[Max-Planck-Institut fuer Kohlenforschung]                               
  Daniel Aravena         : Magnetic Suceptibility                        
  Michael Atanasov       : Ab Initio Ligand Field Theory (pilot matlab implementation)
  Alexander A. Auer      : GIAO ZORA, VPT2 properties, NMR spectrum      
  Ute Becker             : All parallelization in ORCA, NUMFREQ, NUMCALC 
  Giovanni Bistoni       : ED, misc. LED, open-shell LED, HFLD           
  Martin Brehm           : Molecular dynamics                            
  Dmytro Bykov           : pre 5.0 version of the SCF Hessian            
  Marcos Casanova-Páez   : Triplet and SCS-CIS(D). UHF-(DLPNO)-IP/EA/STEOM-CCSD. UHF-CVS-IP/STEOM-CCSD   
  Vijay G. Chilkuri      : MRCI spin determinant printing, contributions to CSF-ICE 
  Pauline Colinet        : FMM embedding                                 
  Dipayan Datta          : RHF DLPNO-CCSD density                        
  Achintya Kumar Dutta   : EOM-CC, STEOM-CC                              
  Nicolas Foglia         : Exact transition moments, OPA infrastructure, MCD improvements    
  Dmitry Ganyushin       : Spin-Orbit,Spin-Spin,Magnetic field MRCI      
  Miquel Garcia-Rates    : C-PCM and meta-GGA Hessian, CCSD/C-PCM, Gaussian charge scheme 
  Tiago L. C. Gouveia    : GS-ROHF, GS-ROCIS                             
  Yang Guo               : DLPNO-NEVPT2, F12-NEVPT2, CIM, IAO-localization        
  Andreas Hansen         : Spin unrestricted coupled pair/coupled cluster methods 
  Ingolf Harden          : AUTO-CI MPn and infrastructure                
  Benjamin Helmich-Paris : MC-RPA, TRAH-(SCF,CASSCF), AVAS, COSX integrals, SCF dyn. polar. 
  Lee Huntington         : MR-EOM, pCC                                   
  Robert Izsak           : Overlap fitted RIJCOSX, COSX-SCS-MP3, EOM     
  Riya Kayal             : Wick's Theorem for AUTO-CI, AUTO-CI UHF-CCSDT 
  Emily Kempfer          : AUTO-CI, RHF CISDT and CCSDT                  
  Christian Kollmar      : KDIIS, OOCD, Brueckner-CCSD(T), CCSD density, CASPT2, CASPT2-K, improved NEVPT2 
  Axel Koslowski         : Symmetry handling                             
  Simone Kossmann        : meta-GGA functionals, TD-DFT gradient, OOMP2, (MP2 Hessian; deprecated post 5.0) 
  Lucas Lang             : DCDCAS                                        
  Marvin Lechner         : AUTO-CI (C++ implementation), FIC-MRCC        
  Spencer Leger          : CASSCF response                               
  Dagmar Lenk            : GEPOL surface, SMD, ORCA-2-JSON               
  Dimitrios Liakos       : Extrapolation schemes; Compound Job, initial MDCI parallelization 
  Dimitrios Manganas     : Further ROCIS development; embedding schemes. LFT, Crystal Embedding 
  Dimitrios Pantazis     : SARC Basis sets                               
  Anastasios Papadopoulos: AUTO-CI, single reference methods and gradients 
  Taras Petrenko         : pre 6.0 DFT Hessian and TD-DFT gradient, (ASA, deprecated), ECA, 1-Electron XAS/XES, NRVS 
  Peter Pinski           : DLPNO-MP2, DLPNO-MP2 Gradient                 
  Christoph Reimann      : Effective Core Potentials                     
  Marius Retegan         : Local ZFS, SOC                                
  Christoph Riplinger    : Optimizer, TS searches, QM/MM, DLPNO-CCSD(T), (RO)-DLPNO pert. Triples 
  Michael Roemelt        : Original ROCIS implementation                 
  Masaaki Saitow         : Open-shell DLPNO-CCSD energy and density      
  Barbara Sandhoefer     : DKH picture change effects                    
  Kantharuban Sivalingam : CASSCF convergence/infrastructure, NEVPT2 and variants, FIC-MRCI 
  Bernardo de Souza      : ESD, SOC TD-DFT                               
  Georgi L. Stoychev     : AutoAux, RI-MP2 NMR, DLPNO-MP2 response, X2C  
  Van Anh Tran           : RI-MP2 g-tensors                              
  Willem Van den Heuvel  : Paramagnetic NMR                              
  Zikuan Wang            : NOTCH, Electric field optimization            
  Frank Wennmohs         : Technical directorship and infrastructure     
  Hang Xu                : AUTO-CI-Response properties                   
                                                                         
[FACCTs GmbH]                                                            
  Markus Bursch, Miquel Garcia-Rates, Christoph Riplinger, Bernardo de Souza, Georgi L. Stoychev 
                                                                 
  APM, Basis sets (HGBS, AHGBS, def-TZVP (Ac-Lr), def2-XVPD (La-Lu)), CI-OPT, improved COSX, DLPNO-Multilevel,           
  DOCKER, DRACO, updates on ESD, GOAT, IRC, LR-CPCM, MBIS, meta-GGA TD-DFT gradient, ML-optimized integration grids, 
  MM, NACMEs, nearIR, NEB, NEB-TS, NL-DFT gradient (VV10), 2- and 3-layer-ONIOM, interface openCOSMO-RS, QMMM,   
  Crystal-QMMM, SF, symmetry and pop. for TD-DFT, r2SCAN hybrids, SOLVATOR                                   
                                                                         
[Other institutions]                                                     
  V. Asgeirsson          : NEB                                           
  Christoph Bannwarth    : sTDA-DFT, sTD-DFT, PBEh-3c, B97-3c, D3        
  Sebastian Ehlert       : rSCAN, r2SCAN, r2SCAN-3c, D4, dhf basis sets  
  Marvin Friede          : D4 for Fr, Ra, Ac-Lr                          
  Lars Goerigk           : TD-DFT with DH, B97 family of functionals     
  Stefan Grimme          : VdW corrections, initial TS optimization, DFT functionals, gCP, sTDA/sTD-DF 
  Waldemar Hujo          : DFT-NL                                        
  H. Jonsson             : NEB                                           
  Holger Kruse           : gCP                                           
  Marcel Mueller         : wB97X-3c, vDZP basis set                      
  Hagen Neugebauer       : wr2SCAN                                       
  Tobias Risthaus        : range-separated hybrid DFT                    
  Lukas Wittmann         : regularized MP2, r2SCAN double-hybrids, wr2SCAN        
                                                                         
We gratefully acknowledge several colleagues who have allowed us to      
interface, adapt or use parts of their codes:                            
  Ed Valeev, F. Pavosevic, A. Kumar             : LibInt (2-el integral package), F12 methods 
  Garnet Chan, S. Sharma, J. Yang, R. Olivares  : DMRG                   
  Ulf Ekstrom                                   : XCFun DFT Library      
  Mihaly Kallay                                 : mrcc  (arbitrary order and MRCC methods)
  Frank Weinhold                                : gennbo (NPA and NBO analysis)           
  Simon Mueller                                 : openCOSMO-RS                            
  Christopher J. Cramer and Donald G. Truhlar   : smd solvation model                     
  S Lehtola, MJT Oliveira, MAL Marques          : LibXC Library                           
  Liviu Ungur et al                             : ANISO software                          


 Your calculation uses the libint2 library for the computation of 2-el integrals
 For citations please refer to: http://libint.valeyev.net

 Your ORCA version has been built with support for libXC version: 6.2.2
 For citations please refer to: https://libxc.gitlab.io

 This ORCA versions uses:
   CBLAS   interface :  Fast vector & matrix operations
   LAPACKE interface :  Fast linear algebra routines
   SCALAPACK package :  Parallel linear algebra routines
   Shared memory     :  Shared parallel matrices
   BLAS/LAPACK       :  OpenBLAS 0.3.27  USE64BITINT DYNAMIC_ARCH NO_AFFINITY Zen SINGLE_THREADED
        Core in use  :  Zen
   Copyright (c) 2011-2014, The OpenBLAS Project


Your calculation utilizes the geometrical counterpoise correction gCP
Please cite in your paper:
H.Kruse, S. Grimme J.Chem.Phys., 136, (2012), 154101 
   

Your calculation utilizes the DFT-NL dispersion correction.
Cite in your paper:
Vydrov, O. A.; Van Voorhis, T. J. Chem. Phys. 2010, 133, 244103
Hujo, W.; Grimme, S. J. Chem. Theory Comput. 2011, 7, 3866 
   

================================================================================

----- Orbital basis set information -----
Your calculation utilizes the basis: def2-TZVP
   F. Weigend and R. Ahlrichs, Phys. Chem. Chem. Phys. 7, 3297 (2005).

----- AuxJ basis set information -----
Your calculation utilizes the auxiliary basis: def2/J
   F. Weigend, Phys. Chem. Chem. Phys. 8, 1057 (2006).

================================================================================
                                        WARNINGS
                       Please study these warnings very carefully!
================================================================================


================================================================================
                                       INPUT FILE
================================================================================
NAME = sp.inp
|  1> ! wb97x-v def2-tzvp def2/J RIJCOSX DEFGRID2 scfconv7 GCP(DFT/TZ) printgap
|  2> %output
|  3>     printlevel normal
|  4> end
|  5> * xyz 0 1
|  6> C 1.9508096163125566 -0.13163546366817233 2.688740601376307e-05
|  7> C 0.5664972815883209 0.5130895160419202 -4.33797654039098e-06
|  8> C -0.5664961775125493 -0.5130892585209633 -2.489393566943615e-05
|  9> C -1.9508081288177275 0.13163658791540128 2.0033517624585992e-05
| 10> H 2.7456030164852043 0.6203964324547903 0.00019900272837096482
| 11> H 2.0878449073400445 -0.764006624390789 0.8838697030681415
| 12> H 2.0880048219211353 -0.7637731935523583 -0.8839571536847857
| 13> H 0.4616634467595813 1.1641843768044502 0.8779570440649153
| 14> H 0.46170318356295637 1.1641849617615003 -0.8779706068923984
| 15> H -0.46169645750405885 -1.1641592552628097 -0.8780091056137262
| 16> H -0.4616684933900012 -1.164209640305032 0.8779185515632824
| 17> H -2.087946613899027 0.7639105631501392 -0.8838756836899457
| 18> H -2.0878988913848358 0.7638718741311459 0.8839511461603634
| 19> H -2.7456022072366735 -0.6203946110761028 2.5858755579283285e-05
| 20> *
| 21> 
| 22>                          ****END OF INPUT****
================================================================================

                       ****************************
                       * Single Point Calculation *
                       ****************************

---------------------------------
CARTESIAN COORDINATES (ANGSTROEM)
---------------------------------
  C      1.950810   -0.131635    0.000027
  C      0.566497    0.513090   -0.000004
  C     -0.566496   -0.513089   -0.000025
  C     -1.950808    0.131637    0.000020
  H      2.745603    0.620396    0.000199
  H      2.087845   -0.764007    0.883870
  H      2.088005   -0.763773   -0.883957
  H      0.461663    1.164184    0.877957
  H      0.461703    1.164185   -0.877971
  H     -0.461696   -1.164159   -0.878009
  H     -0.461668   -1.164210    0.877919
  H     -2.087947    0.763911   -0.883876
  H     -2.087899    0.763872    0.883951
  H     -2.745602   -0.620395    0.000026

----------------------------
CARTESIAN COORDINATES (A.U.)
----------------------------
  NO LB      ZA    FRAG     MASS         X           Y           Z
   0 C     6.0000    0    12.011    3.686496   -0.248755    0.000051
   1 C     6.0000    0    12.011    1.070525    0.969599   -0.000008
   2 C     6.0000    0    12.011   -1.070523   -0.969598   -0.000047
   3 C     6.0000    0    12.011   -3.686493    0.248757    0.000038
   4 H     1.0000    0     1.008    5.188438    1.172379    0.000376
   5 H     1.0000    0     1.008    3.945455   -1.443763    1.670272
   6 H     1.0000    0     1.008    3.945757   -1.443322   -1.670437
   7 H     1.0000    0     1.008    0.872417    2.199990    1.659098
   8 H     1.0000    0     1.008    0.872493    2.199991   -1.659124
   9 H     1.0000    0     1.008   -0.872480   -2.199942   -1.659197
  10 H     1.0000    0     1.008   -0.872427   -2.200037    1.659026
  11 H     1.0000    0     1.008   -3.945647    1.443582   -1.670283
  12 H     1.0000    0     1.008   -3.945557    1.443509    1.670426
  13 H     1.0000    0     1.008   -5.188436   -1.172376    0.000049

--------------------------------
INTERNAL COORDINATES (ANGSTROEM)
--------------------------------
 C      0   0   0     0.000000000000     0.00000000     0.00000000
 C      1   0   0     1.527085767240     0.00000000     0.00000000
 C      2   1   0     1.528632413679   112.85900411     0.00000000
 C      3   2   1     1.527085785936   112.85896851   179.99689925
 H      1   2   3     1.094188535568   111.61039982   180.00888765
 H      1   2   3     1.095376683474   110.92584730   300.24751202
 H      1   2   3     1.095375925830   110.92643716    59.76974172
 H      2   1   3     1.098057757585   109.68626656   121.87558113
 H      2   1   3     1.098058218753   109.68626516   238.12398918
 H      3   2   1     1.098058012096   109.10544605   302.19999941
 H      3   2   1     1.098057962235   109.10486630    57.79457003
 H      4   3   2     1.095376183212   110.92634773    59.76211657
 H      4   3   2     1.095376440415   110.92591783   300.23990594
 H      4   3   2     1.094188535573   111.61041528   180.00120711

---------------------------
INTERNAL COORDINATES (A.U.)
---------------------------
 C      0   0   0     0.000000000000     0.00000000     0.00000000
 C      1   0   0     2.885773883093     0.00000000     0.00000000
 C      2   1   0     2.888696621289   112.85900411     0.00000000
 C      3   2   1     2.885773918423   112.85896851   179.99689925
 H      1   2   3     2.067716671099   111.61039982   180.00888765
 H      1   2   3     2.069961945249   110.92584730   300.24751202
 H      1   2   3     2.069960513509   110.92643716    59.76974172
 H      2   1   3     2.075028441063   109.68626656   121.87558113
 H      2   1   3     2.075029312545   109.68626516   238.12398918
 H      3   2   1     2.075028922019   109.10544605   302.19999941
 H      3   2   1     2.075028827796   109.10486630    57.79457003
 H      4   3   2     2.069960999890   110.92634773    59.76211657
 H      4   3   2     2.069961485933   110.92591783   300.23990594
 H      4   3   2     2.067716671110   111.61041528   180.00120711

---------------------
BASIS SET INFORMATION
---------------------
There are 2 groups of distinct atoms

 Group   1 Type C   : 11s6p2d1f contracted to 5s3p2d1f pattern {62111/411/11/1}
 Group   2 Type H   : 5s1p contracted to 3s1p pattern {311/1}

Atom   0C    basis set group =>   1
Atom   1C    basis set group =>   1
Atom   2C    basis set group =>   1
Atom   3C    basis set group =>   1
Atom   4H    basis set group =>   2
Atom   5H    basis set group =>   2
Atom   6H    basis set group =>   2
Atom   7H    basis set group =>   2
Atom   8H    basis set group =>   2
Atom   9H    basis set group =>   2
Atom  10H    basis set group =>   2
Atom  11H    basis set group =>   2
Atom  12H    basis set group =>   2
Atom  13H    basis set group =>   2
---------------------------------
AUXILIARY/J BASIS SET INFORMATION
---------------------------------
There are 2 groups of distinct atoms

 Group   1 Type C   : 12s5p4d2f1g contracted to 6s4p3d1f1g pattern {711111/2111/211/2/1}
 Group   2 Type H   : 5s2p1d contracted to 3s1p1d pattern {311/2/1}

Atom   0C    basis set group =>   1
Atom   1C    basis set group =>   1
Atom   2C    basis set group =>   1
Atom   3C    basis set group =>   1
Atom   4H    basis set group =>   2
Atom   5H    basis set group =>   2
Atom   6H    basis set group =>   2
Atom   7H    basis set group =>   2
Atom   8H    basis set group =>   2
Atom   9H    basis set group =>   2
Atom  10H    basis set group =>   2
Atom  11H    basis set group =>   2
Atom  12H    basis set group =>   2
Atom  13H    basis set group =>   2

Checking for AutoStart:
The File: sp.gbw exists
Trying to determine its content:
     ... Fine, the file contains calculation information
     ... Fine, the calculation information was read
     ... Fine, the file contains a basis set
     ... Fine, the basis set was read
     ... Fine, the file contains a geometry
     ... Fine, the geometry was read
     ... Fine, the file contains a set of orbitals
     ... Fine, the orbitals can be read
     => possible old guess file was deleted
     => GBW file was renamed to GES file
     => GES file is set as startup file
     => Guess is set to MORead
     ... now leaving AutoStart

------------------------------------------------------------------------------
                             ORCA STARTUP CALCULATIONS
                           -- RI-GTO INTEGRALS CHOSEN --
------------------------------------------------------------------------------
------------------------------------------------------------------------------
                   ___                                                        
                  /   \      - P O W E R E D   B Y -                         
                 /     \                                                     
                 |  |  |   _    _      __       _____    __    __             
                 |  |  |  | |  | |    /  \     |  _  \  |  |  /  |          
                  \  \/   | |  | |   /    \    | | | |  |  | /  /          
                 / \  \   | |__| |  /  /\  \   | |_| |  |  |/  /          
                |  |  |   |  __  | /  /__\  \  |    /   |      \           
                |  |  |   | |  | | |   __   |  |    \   |  |\   \          
                \     /   | |  | | |  |  |  |  | |\  \  |  | \   \       
                 \___/    |_|  |_| |__|  |__|  |_| \__\ |__|  \__/        
                                                                              
                      - O R C A' S   B I G   F R I E N D -                    
                                      &                                       
                       - I N T E G R A L  F E E D E R -                       
                                                                              
 v1 FN, 2020, v2 2021, v3 2022-2024                                           
------------------------------------------------------------------------------


----------------------
SHARK INTEGRAL PACKAGE
----------------------

Number of atoms                             ...     14
Number of basis functions                   ...    184
Number of shells                            ...     84
Maximum angular momentum                    ...      3
Integral batch strategy                     ... SHARK/LIBINT Hybrid
RI-J (if used) integral strategy            ... SPLIT-RIJ (Revised 2003 algorithm where possible)
Printlevel                                  ...      1
Contraction scheme used                     ... SEGMENTED contraction
Prescreening option                         ... SCHWARTZ
   Thresh                                   ... 3.000e-11
   Tcut                                     ... 1.000e-12
   Tpresel                                  ... 1.000e-12 
Coulomb Range Separation                    ... NOT USED
Exchange Range Separation                   ... Long Range
   Mu parameter                             ... 3.000e-01
   Scaling (regular/separated)              ... 1.670e-01 8.330e-01
Multipole approximations                    ... NOT USED
Finite Nucleus Model                        ... NOT USED
CABS basis                                  ... NOT available
Auxiliary Coulomb fitting basis             ... AVAILABLE
   # of basis functions in Aux-J            ...    306
   # of shells in Aux-J                     ...    110
   Maximum angular momentum in Aux-J        ...      4
Auxiliary J/K fitting basis                 ... NOT available
Auxiliary Correlation fitting basis         ... NOT available
Auxiliary 'external' fitting basis          ... NOT available

Checking pre-screening integrals            ... done (  0.0 sec) Dimension = 84
Check shell pair data                       ... done (  0.0 sec)
Shell pair information
Shell pair cut-off parameter TPreSel        ...   1.0e-12
Total number of shell pairs                 ...      3570
Shell pairs after pre-screening             ...      3443
Total number of primitive shell pairs       ...      9988
Primitive shell pairs kept                  ...      7929
          la=0 lb=0:   1217 shell pairs
          la=1 lb=0:   1058 shell pairs
          la=1 lb=1:    244 shell pairs
          la=2 lb=0:    390 shell pairs
          la=2 lb=1:    174 shell pairs
          la=2 lb=2:     36 shell pairs
          la=3 lb=0:    194 shell pairs
          la=3 lb=1:     88 shell pairs
          la=3 lb=2:     32 shell pairs
          la=3 lb=3:     10 shell pairs

Calculating one electron integrals          ... done (  0.0 sec)
Calculating RI/J V-Matrix + Cholesky decomp.... done (  0.0 sec)
Calculating Nuclear repulsion               ... done (  0.0 sec) ENN=    130.590901780136 Eh

Diagonalization of the overlap matrix:
Smallest eigenvalue                        ... 2.489e-04
Time for diagonalization                   ...    0.002 sec
Threshold for overlap eigenvalues          ... 1.000e-07
Number of eigenvalues below threshold      ... 0
Time for construction of square roots      ...    0.001 sec
Total time needed                          ...    0.004 sec

-------------------
DFT GRID GENERATION
-------------------

General Integration Accuracy     IntAcc      ... 4.388
Radial Grid Type                 RadialGrid  ... OptM3 with GC (2021)
Angular Grid (max. ang.)         AngularGrid ... 4 (Lebedev-302)
Angular grid pruning method      GridPruning ... 4 (adaptive)
Weight generation scheme         WeightScheme... mBecke (2022)
Basis function cutoff            BFCut       ... 1.0000e-11
Integration weight cutoff        WCut        ... 1.0000e-14
Partially contracted basis set               ... off
Rotationally invariant grid construction     ... off
Angular grids for H and He will be reduced by one unit

Total number of grid points                  ...    56400
Total number of batches                      ...      886
Average number of points per batch           ...       63
Average number of grid points per atom       ...     4029

--------------------
COSX GRID GENERATION
--------------------

GRIDX 1
-------
General Integration Accuracy     IntAcc      ... 3.816
Radial Grid Type                 RadialGrid  ... OptM3 with GC (2021)
Angular Grid (max. ang.)         AngularGrid ... 1 (Lebedev-50)
Angular grid pruning method      GridPruning ... 4 (adaptive)
Weight generation scheme         WeightScheme... mBecke (2022)
Basis function cutoff            BFCut       ... 1.0000e-11
Integration weight cutoff        WCut        ... 1.0000e-14
Partially contracted basis set               ... on
Rotationally invariant grid construction     ... off
Angular grids for H and He will be reduced by one unit

Total number of grid points                  ...     7266
Total number of batches                      ...       66
Average number of points per batch           ...      110
Average number of grid points per atom       ...      519
UseSFitting                                  ... on

GRIDX 2
-------
General Integration Accuracy     IntAcc      ... 4.020
Radial Grid Type                 RadialGrid  ... OptM3 with GC (2021)
Angular Grid (max. ang.)         AngularGrid ... 2 (Lebedev-110)
Angular grid pruning method      GridPruning ... 4 (adaptive)
Weight generation scheme         WeightScheme... mBecke (2022)
Basis function cutoff            BFCut       ... 1.0000e-11
Integration weight cutoff        WCut        ... 1.0000e-14
Partially contracted basis set               ... on
Rotationally invariant grid construction     ... off
Angular grids for H and He will be reduced by one unit

Total number of grid points                  ...    14945
Total number of batches                      ...      124
Average number of points per batch           ...      120
Average number of grid points per atom       ...     1068
UseSFitting                                  ... on

GRIDX 3
-------
General Integration Accuracy     IntAcc      ... 4.338
Radial Grid Type                 RadialGrid  ... OptM3 with GC (2021)
Angular Grid (max. ang.)         AngularGrid ... 3 (Lebedev-194)
Angular grid pruning method      GridPruning ... 4 (adaptive)
Weight generation scheme         WeightScheme... mBecke (2022)
Basis function cutoff            BFCut       ... 1.0000e-11
Integration weight cutoff        WCut        ... 1.0000e-14
Partially contracted basis set               ... on
Rotationally invariant grid construction     ... off
Angular grids for H and He will be reduced by one unit

Total number of grid points                  ...    32656
Total number of batches                      ...      261
Average number of points per batch           ...      125
Average number of grid points per atom       ...     2333
UseSFitting                                  ... on
Initializing property integral containers    ... done (  0.0 sec)

SHARK setup successfully completed in   0.6 seconds

Maximum memory used throughout the entire STARTUP-calculation: 27.5 MB
-------------------------------------------------------------------------------
                                 ORCA GUESS
                   Start orbitals & Density for SCF / CASSCF
-------------------------------------------------------------------------------

------------
SCF SETTINGS
------------
Hamiltonian:
 Density Functional     Method          .... DFT(GTOs)
 Exchange Functional    Exchange        .... WB97X-V
 Correlation Functional Correlation     .... WB97X-V
 Gradients option       PostSCFGGA      .... off
 Hybrid DFT is turned on
   Fraction HF Exchange ScalHFX         ....  0.167000
   Scaling of DF-GGA-X  ScalDFX         ....  0.000000
   Scaling of DF-GGA-C  ScalDFC         ....  1.000000
   Scaling of DF-LDA-C  ScalLDAC        ....  1.000000
   Perturbative correction              ....  0.000000
 Long-range corrected/Screened/Range-Separated Hybrid DFT is turned on
   Amount of maximum screened exact exchange              ....  0.833000
   Range separation parameter mu (erf(mu*r12)/r12)        ....  0.300000
   NL short-range parameter             ....  6.000000
   NL long-range parameter              ....  0.010000
 RI-approximation to the Coulomb term is turned on
   Number of AuxJ basis functions       .... 306
   RIJ-COSX (HFX calculated with COS-X)).... on


General Settings:
 Integral files         IntName         .... sp
 Hartree-Fock type      HFTyp           .... RHF
 Total Charge           Charge          ....    0
 Multiplicity           Mult            ....    1
 Number of Electrons    NEL             ....   34
 Basis Dimension        Dim             ....  184
 Nuclear Repulsion      ENuc            ....    130.5909017801 Eh

Convergence Acceleration:
 AO-DIIS                CNVDIIS         .... on
   Start iteration      DIISMaxIt       ....    12
   Startup error        DIISStart       ....  0.200000
   # of expansion vecs  DIISMaxEq       ....     5
   Bias factor          DIISBfac        ....   1.050
   Max. coefficient     DIISMaxC        ....  10.000
 MO-DIIS                CNVKDIIS        .... off
 Trust-Rad. Augm. Hess. CNVTRAH         .... auto
   Auto Start mean grad. ratio tolernc. ....  1.125000
   Auto Start start iteration           ....     1
   Auto Start num. interpolation iter.  ....    10
   Max. Number of Micro iterations      ....    24
   Max. Number of Macro iterations      .... Maxiter - #DIIS iter
   Number of Davidson start vectors     ....     2
   Converg. threshold    (grad. norm)   ....   1.000e-04
   Grad. Scal. Fac. for Micro threshold ....   0.100
   Minimum threshold for Micro iter.    ....   1.000e-02
   NR start threshold (gradient norm)   ....   1.000e-04
   Initial trust radius                 ....   0.400
   Minimum AH scaling param. (alpha)    ....   1.000
   Maximum AH scaling param. (alpha)    .... 1000.000
   Quad. conv. algorithm                .... NR
   White noise on init. David. guess    .... on
   Maximum white noise                  ....   0.010
   Pseudo random numbers                .... off
   Inactive MOs                         .... canonical
   Orbital update algorithm             .... Taylor
   Preconditioner                       .... Diag
   Full preconditioner red. dimension   ....   250
 SOSCF                  CNVSOSCF        .... on
   Start iteration      SOSCFMaxIt      ....   150
   Startup grad/error   SOSCFStart      ....  0.003300
   Hessian update       SOSCFHessUp     .... L-BFGS
 Level Shifting         CNVShift        .... on
   Level shift para.    LevelShift      ....    0.2500
   Turn off err/grad.   ShiftErr        ....    0.0010
 Zerner damping         CNVZerner       .... off
 Static damping         CNVDamp         .... on
   Fraction old density DampFac         ....    0.7000
   Max. Damping (<1)    DampMax         ....    0.9800
   Min. Damping (>=0)   DampMin         ....    0.0000
   Turn off err/grad.   DampErr         ....    0.1000

SCF Procedure:
 Maximum # iterations   MaxIter         ....   125
 SCF integral mode      SCFMode         .... Direct
   Integral package                     .... SHARK and LIBINT hybrid scheme
 Reset frequency        DirectResetFreq ....    20
 Integral Threshold     Thresh          ....  3.000e-11 Eh
 Primitive CutOff       TCut            ....  1.000e-12 Eh

Convergence Tolerance:
 Convergence Check Mode ConvCheckMode   .... Total+1el-Energy
 Convergence forced     ConvForced      .... 0
 Energy Change          TolE            ....  1.000e-07 Eh
 1-El. energy change                    ....  1.000e-04 Eh
 Orbital Gradient       TolG            ....  1.000e-04
 Orbital Rotation angle TolX            ....  1.000e-04
 DIIS Error             TolErr          ....  1.000e-07

---------------------
INITIAL GUESS: MOREAD
---------------------
Guess MOs are being read from file: sp.ges
Input Geometry matches current geometry (good)
Atom 0: N(Shells)= 11 and 9 - projection required
Input basis set needs projection
NBasis(read)= 126
NBasis(calc)= 184
Basis set overlap was calculated
Using GuessMode=FMatrix for the initial guess
C*T matrix was formed
Effective Fockian was calculated
Effective Fockian was diagonalized
Initial density was built
                      ------------------
                      INITIAL GUESS DONE (   0.0 sec)
                      ------------------
             **** ENERGY FILE WAS UPDATED (sp.en.tmp) ****
Finished Guess after   0.0 sec
Maximum memory used throughout the entire GUESS-calculation: 14.9 MB

-------------------------------------------------------------------------------------------
                                      ORCA LEAN-SCF
                              memory conserving SCF solver
-------------------------------------------------------------------------------------------

----------------------------------------D-I-I-S--------------------------------------------
Iteration    Energy (Eh)           Delta-E    RMSDP     MaxDP     DIISErr   Damp  Time(sec)
-------------------------------------------------------------------------------------------
               ***  Starting incremental Fock matrix formation  ***
    1    -158.5874132855494452     0.00e+00  8.14e-04  1.16e-02  3.25e-02  0.700   3.7
    2    -158.5894840247584341    -2.07e-03  7.24e-04  1.13e-02  2.27e-02  0.700   2.0
                               ***Turning on AO-DIIS***
    3    -158.5910743658050990    -1.59e-03  6.27e-04  1.06e-02  1.59e-02  0.700   2.0
    4    -158.5922565966848481    -1.18e-03  1.60e-03  2.84e-02  1.11e-02  0.000   1.9
                              *** Initializing SOSCF ***
---------------------------------------S-O-S-C-F--------------------------------------
Iteration    Energy (Eh)           Delta-E    RMSDP     MaxDP     MaxGrad    Time(sec)
--------------------------------------------------------------------------------------
    5    -158.5953141087475444    -3.06e-03  9.46e-05  2.25e-03  5.35e-04     2.0
               *** Restarting incremental Fock matrix formation ***
    6    -158.5953067633195417     7.35e-06  4.30e-05  1.00e-03  1.27e-04     3.8
    7    -158.5953076315196597    -8.68e-07  1.90e-05  4.24e-04  6.03e-05     3.0
    8    -158.5953076973511600    -6.58e-08  2.73e-06  7.03e-05  2.55e-05     2.8
                 **** Energy Check signals convergence ****

               *****************************************************
               *                     SUCCESS                       *
               *           SCF CONVERGED AFTER   8 CYCLES          *
               *****************************************************


------------------
NL GRID GENERATION
------------------

General Integration Accuracy     IntAcc      ... 4.004
Radial Grid Type                 RadialGrid  ... OptM3 with GC (2021)
Angular Grid (max. ang.)         AngularGrid ... 2 (Lebedev-110)
Angular grid pruning method      GridPruning ... 4 (adaptive)
Weight generation scheme         WeightScheme... mBecke (2022)
Basis function cutoff            BFCut       ... 1.0000e-10
Integration weight cutoff        WCut        ... 1.0000e-14
Partially contracted basis set               ... off
Rotationally invariant grid construction     ... off
Angular grids for H and He will be reduced by one unit

Total number of grid points                  ...    16358
Total number of batches                      ...      264
Average number of points per batch           ...       61
Average number of grid points per atom       ...     1168
Final grid set up in    0.1 sec

-------------------------------------------------------------------------------
                    post-SCF DFT-NL dispersion correction                      
-------------------------------------------------------------------------------

SCF Energy:     -158.595307697 
NL    Energy:      0.131697417 
SC+NL Energy:   -158.463610280 
NL done in  :              0.8 sec
-------------------------------------------------------------------------------
Recomputing exchange energy using gridx3       ... done (    6.745 sec)
Old exchange energy                            :     -8.453152009 Eh
New exchange energy                            :     -8.453167398 Eh
Exchange energy change after final integration :     -0.000015390 Eh
Total energy after final integration           :   -158.463625670 Eh
             **** ENERGY FILE WAS UPDATED (sp.en.tmp) ****

----------------
TOTAL SCF ENERGY
----------------

Total Energy       :       -158.46362567013995 Eh           -4312.01447 eV

Components:
Nuclear Repulsion  :        130.59090178013636 Eh            3553.55910 eV
Electronic Energy  :       -289.18620947748752 Eh           -7869.15682 eV
One Electron Energy:       -469.67851450314680 Eh          -12780.60213 eV
Two Electron Energy:        180.49230502565928 Eh            4911.44531 eV

Virial components:
Potential Energy   :       -316.15199035932517 Eh           -8602.93302 eV
Kinetic Energy     :        157.68836468918522 Eh            4290.91855 eV
Virial Ratio       :          2.00491641207950

DFT components:
N(Alpha)           :       16.999938241103 electrons
N(Beta)            :       16.999938241103 electrons
N(Total)           :       33.999876482206 electrons
E(X)               :      -15.794375682463 Eh       
E(C)               :       -1.323936337862 Eh       
NL Energy, E(C,NL) :        0.131697416984 Eh       
E(XC)              :      -16.986614603341 Eh       

---------------
SCF CONVERGENCE
---------------

  Last Energy change         ...    6.5832e-08  Tolerance :   1.0000e-07
  Last MAX-Density change    ...    7.0315e-05  Tolerance :   1.0000e-05
  Last RMS-Density change    ...    2.7306e-06  Tolerance :   1.0000e-06
  Last DIIS Error            ...    5.3504e-04  Tolerance :   1.0000e-07
  Last Orbital Gradient      ...    2.5509e-05  Tolerance :   1.0000e-04
  Last Orbital Rotation      ...    2.5469e-05  Tolerance :   1.0000e-04


----------------
ORBITAL ENERGIES
----------------

  NO   OCC          E(Eh)            E(eV) 
   0   2.0000     -10.262375      -279.2534 
   1   2.0000     -10.262196      -279.2486 
   2   2.0000     -10.255726      -279.0725 
   3   2.0000     -10.255726      -279.0725 
   4   2.0000      -0.930006       -25.3068 
   5   2.0000      -0.855831       -23.2883 
   6   2.0000      -0.756549       -20.5867 
   7   2.0000      -0.699777       -19.0419 
   8   2.0000      -0.585175       -15.9234 
   9   2.0000      -0.538017       -14.6402 
  10   2.0000      -0.530751       -14.4425 
  11   2.0000      -0.521348       -14.1866 
  12   2.0000      -0.474431       -12.9099 
  13   2.0000      -0.454927       -12.3792 
  14   2.0000      -0.436793       -11.8857 
  15   2.0000      -0.424866       -11.5612 
  16   2.0000      -0.424037       -11.5386 
  17   0.0000       0.112820         3.0700 
  18   0.0000       0.133734         3.6391 
  19   0.0000       0.156687         4.2637 
  20   0.0000       0.158853         4.3226 
  21   0.0000       0.186141         5.0652 
  22   0.0000       0.192717         5.2441 
  23   0.0000       0.203165         5.5284 
  24   0.0000       0.211831         5.7642 
  25   0.0000       0.224257         6.1023 
  26   0.0000       0.225518         6.1366 
  27   0.0000       0.245816         6.6890 
*Only the first 10 virtual orbitals were printed.

                    ********************************
                    * MULLIKEN POPULATION ANALYSIS *
                    ********************************

-----------------------
MULLIKEN ATOMIC CHARGES
-----------------------
   0 C :   -0.327814
   1 C :   -0.157855
   2 C :   -0.157851
   3 C :   -0.327829
   4 H :    0.112216
   5 H :    0.102691
   6 H :    0.102694
   7 H :    0.084033
   8 H :    0.084035
   9 H :    0.084034
  10 H :    0.084034
  11 H :    0.102693
  12 H :    0.102694
  13 H :    0.112226
Sum of atomic charges:   -0.0000000

--------------------------------
MULLIKEN REDUCED ORBITAL CHARGES
--------------------------------
  0 C s       :     3.222982  s :     3.222982
      pz      :     1.047479  p :     3.042013
      px      :     0.962415
      py      :     1.032118
      dz2     :     0.006074  d :     0.059450
      dxz     :     0.009796
      dyz     :     0.017046
      dx2y2   :     0.010400
      dxy     :     0.016134
      f0      :     0.000313  f :     0.003370
      f+1     :     0.000092
      f-1     :     0.000944
      f+2     :     0.000172
      f-2     :     0.000325
      f+3     :     0.000879
      f-3     :     0.000643

  1 C s       :     3.171708  s :     3.171708
      pz      :     1.011715  p :     2.882873
      px      :     0.913922
      py      :     0.957235
      dz2     :     0.007077  d :     0.097741
      dxz     :     0.014155
      dyz     :     0.029544
      dx2y2   :     0.025583
      dxy     :     0.021381
      f0      :     0.000598  f :     0.005533
      f+1     :     0.000215
      f-1     :     0.000968
      f+2     :     0.000186
      f-2     :     0.000939
      f+3     :     0.001527
      f-3     :     0.001100

  2 C s       :     3.171718  s :     3.171718
      pz      :     1.011717  p :     2.882874
      px      :     0.913927
      py      :     0.957230
      dz2     :     0.007075  d :     0.097726
      dxz     :     0.014155
      dyz     :     0.029542
      dx2y2   :     0.025579
      dxy     :     0.021376
      f0      :     0.000597  f :     0.005533
      f+1     :     0.000215
      f-1     :     0.000968
      f+2     :     0.000187
      f-2     :     0.000939
      f+3     :     0.001527
      f-3     :     0.001100

  3 C s       :     3.222966  s :     3.222966
      pz      :     1.047481  p :     3.042040
      px      :     0.962437
      py      :     1.032121
      dz2     :     0.006075  d :     0.059454
      dxz     :     0.009797
      dyz     :     0.017046
      dx2y2   :     0.010400
      dxy     :     0.016136
      f0      :     0.000313  f :     0.003370
      f+1     :     0.000092
      f-1     :     0.000944
      f+2     :     0.000172
      f-2     :     0.000325
      f+3     :     0.000879
      f-3     :     0.000643

  4 H s       :     0.866804  s :     0.866804
      pz      :     0.004231  p :     0.020979
      px      :     0.008963
      py      :     0.007785

  5 H s       :     0.876541  s :     0.876541
      pz      :     0.009394  p :     0.020768
      px      :     0.004374
      py      :     0.007000

  6 H s       :     0.876539  s :     0.876539
      pz      :     0.009396  p :     0.020768
      px      :     0.004374
      py      :     0.006998

  7 H s       :     0.895127  s :     0.895127
      pz      :     0.009247  p :     0.020841
      px      :     0.004128
      py      :     0.007465

  8 H s       :     0.895124  s :     0.895124
      pz      :     0.009248  p :     0.020841
      px      :     0.004128
      py      :     0.007465

  9 H s       :     0.895126  s :     0.895126
      pz      :     0.009248  p :     0.020840
      px      :     0.004128
      py      :     0.007465

 10 H s       :     0.895126  s :     0.895126
      pz      :     0.009247  p :     0.020841
      px      :     0.004128
      py      :     0.007465

 11 H s       :     0.876539  s :     0.876539
      pz      :     0.009395  p :     0.020768
      px      :     0.004374
      py      :     0.006999

 12 H s       :     0.876538  s :     0.876538
      pz      :     0.009395  p :     0.020768
      px      :     0.004374
      py      :     0.006999

 13 H s       :     0.866795  s :     0.866795
      pz      :     0.004231  p :     0.020979
      px      :     0.008963
      py      :     0.007785


------------------------
MULLIKEN OVERLAP CHARGES
------------------------
B(  0-C ,  1-C ) :   0.6505 B(  0-C ,  2-C ) :  -0.0979 B(  0-C ,  4-H ) :   0.8338 
B(  0-C ,  5-H ) :   0.8254 B(  0-C ,  6-H ) :   0.8254 B(  0-C ,  7-H ) :  -0.0681 
B(  0-C ,  8-H ) :  -0.0681 B(  1-C ,  2-C ) :   0.6799 B(  1-C ,  3-C ) :  -0.0980 
B(  1-C ,  4-H ) :  -0.0828 B(  1-C ,  5-H ) :  -0.0753 B(  1-C ,  6-H ) :  -0.0753 
B(  1-C ,  7-H ) :   0.8252 B(  1-C ,  8-H ) :   0.8251 B(  1-C ,  9-H ) :  -0.0825 
B(  1-C , 10-H ) :  -0.0825 B(  2-C ,  3-C ) :   0.6505 B(  2-C ,  7-H ) :  -0.0825 
B(  2-C ,  8-H ) :  -0.0825 B(  2-C ,  9-H ) :   0.8251 B(  2-C , 10-H ) :   0.8251 
B(  2-C , 11-H ) :  -0.0753 B(  2-C , 12-H ) :  -0.0753 B(  2-C , 13-H ) :  -0.0828 
B(  3-C ,  9-H ) :  -0.0681 B(  3-C , 10-H ) :  -0.0681 B(  3-C , 11-H ) :   0.8254 
B(  3-C , 12-H ) :   0.8254 B(  3-C , 13-H ) :   0.8337 B(  5-H ,  6-H ) :  -0.0590 
B(  7-H ,  8-H ) :  -0.0720 B(  9-H , 10-H ) :  -0.0720 B( 11-H , 12-H ) :  -0.0590 



                     *******************************
                     * LOEWDIN POPULATION ANALYSIS *
                     *******************************

----------------------
LOEWDIN ATOMIC CHARGES
----------------------
   0 C :   -0.309531
   1 C :   -0.294562
   2 C :   -0.294561
   3 C :   -0.309532
   4 H :    0.114889
   5 H :    0.115243
   6 H :    0.115243
   7 H :    0.129358
   8 H :    0.129358
   9 H :    0.129358
  10 H :    0.129358
  11 H :    0.115243
  12 H :    0.115243
  13 H :    0.114889

-------------------------------
LOEWDIN REDUCED ORBITAL CHARGES
-------------------------------
  0 C s       :     2.829223  s :     2.829223
      pz      :     1.070806  p :     3.188610
      px      :     1.048985
      py      :     1.068819
      dz2     :     0.036313  d :     0.266966
      dxz     :     0.038300
      dyz     :     0.066693
      dx2y2   :     0.048302
      dxy     :     0.077358
      f0      :     0.002191  f :     0.024732
      f+1     :     0.002847
      f-1     :     0.003610
      f+2     :     0.004224
      f-2     :     0.002139
      f+3     :     0.005970
      f-3     :     0.003751

  1 C s       :     2.779084  s :     2.779084
      pz      :     1.025355  p :     3.071119
      px      :     1.020257
      py      :     1.025507
      dz2     :     0.042929  d :     0.405458
      dxz     :     0.055315
      dyz     :     0.111293
      dx2y2   :     0.102336
      dxy     :     0.093586
      f0      :     0.004089  f :     0.038901
      f+1     :     0.003293
      f-1     :     0.004312
      f+2     :     0.004616
      f-2     :     0.005838
      f+3     :     0.010037
      f-3     :     0.006715

  2 C s       :     2.779085  s :     2.779085
      pz      :     1.025355  p :     3.071118
      px      :     1.020257
      py      :     1.025506
      dz2     :     0.042928  d :     0.405457
      dxz     :     0.055315
      dyz     :     0.111293
      dx2y2   :     0.102335
      dxy     :     0.093585
      f0      :     0.004089  f :     0.038901
      f+1     :     0.003293
      f-1     :     0.004312
      f+2     :     0.004616
      f-2     :     0.005838
      f+3     :     0.010037
      f-3     :     0.006716

  3 C s       :     2.829223  s :     2.829223
      pz      :     1.070806  p :     3.188611
      px      :     1.048986
      py      :     1.068819
      dz2     :     0.036313  d :     0.266966
      dxz     :     0.038300
      dyz     :     0.066693
      dx2y2   :     0.048302
      dxy     :     0.077358
      f0      :     0.002191  f :     0.024732
      f+1     :     0.002847
      f-1     :     0.003610
      f+2     :     0.004224
      f-2     :     0.002139
      f+3     :     0.005970
      f-3     :     0.003751

  4 H s       :     0.824941  s :     0.824941
      pz      :     0.013203  p :     0.060169
      px      :     0.023584
      py      :     0.023382

  5 H s       :     0.824793  s :     0.824793
      pz      :     0.027025  p :     0.059963
      px      :     0.012820
      py      :     0.020118

  6 H s       :     0.824794  s :     0.824794
      pz      :     0.027029  p :     0.059964
      px      :     0.012821
      py      :     0.020113

  7 H s       :     0.813221  s :     0.813221
      pz      :     0.025705  p :     0.057420
      px      :     0.012426
      py      :     0.019289

  8 H s       :     0.813221  s :     0.813221
      pz      :     0.025705  p :     0.057420
      px      :     0.012426
      py      :     0.019289

  9 H s       :     0.813221  s :     0.813221
      pz      :     0.025706  p :     0.057420
      px      :     0.012426
      py      :     0.019289

 10 H s       :     0.813222  s :     0.813222
      pz      :     0.025704  p :     0.057420
      px      :     0.012426
      py      :     0.019290

 11 H s       :     0.824793  s :     0.824793
      pz      :     0.027027  p :     0.059963
      px      :     0.012821
      py      :     0.020116

 12 H s       :     0.824793  s :     0.824793
      pz      :     0.027028  p :     0.059963
      px      :     0.012821
      py      :     0.020115

 13 H s       :     0.824941  s :     0.824941
      pz      :     0.013203  p :     0.060169
      px      :     0.023584
      py      :     0.023382


---------------------------------
LOEWDIN BOND ORDERS (THRESH 0.050000)
---------------------------------
B(  0-C ,  1-C ) :   1.2871 B(  0-C ,  2-C ) :   0.1482 B(  0-C ,  4-H ) :   0.9117 
B(  0-C ,  5-H ) :   0.9089 B(  0-C ,  6-H ) :   0.9089 B(  0-C ,  7-H ) :   0.0746 
B(  0-C ,  8-H ) :   0.0746 B(  1-C ,  2-C ) :   1.2195 B(  1-C ,  3-C ) :   0.1482 
B(  1-C ,  4-H ) :   0.0786 B(  1-C ,  5-H ) :   0.0767 B(  1-C ,  6-H ) :   0.0767 
B(  1-C ,  7-H ) :   0.8510 B(  1-C ,  8-H ) :   0.8510 B(  1-C ,  9-H ) :   0.0741 
B(  1-C , 10-H ) :   0.0741 B(  2-C ,  3-C ) :   1.2871 B(  2-C ,  7-H ) :   0.0741 
B(  2-C ,  8-H ) :   0.0741 B(  2-C ,  9-H ) :   0.8510 B(  2-C , 10-H ) :   0.8510 
B(  2-C , 11-H ) :   0.0767 B(  2-C , 12-H ) :   0.0767 B(  2-C , 13-H ) :   0.0786 
B(  3-C ,  9-H ) :   0.0746 B(  3-C , 10-H ) :   0.0746 B(  3-C , 11-H ) :   0.9089 
B(  3-C , 12-H ) :   0.9089 B(  3-C , 13-H ) :   0.9117 

------------------------------------------
LOEWDIN REDUCED ORBITAL POPULATIONS PER MO
-------------------------------------------
THRESHOLD FOR PRINTING IS 0.1%%
                      0         1         2         3         4         5   
                 -10.26238 -10.26220 -10.25573 -10.25573  -0.93001  -0.85583
                   2.00000   2.00000   2.00000   2.00000   2.00000   2.00000
                  --------  --------  --------  --------  --------  --------
 0 C  s               0.0       0.0       0.4      99.0       9.2      17.8
 0 C  px              0.0       0.0       0.0       0.0       2.7       0.2
 0 C  py              0.0       0.0       0.0       0.0       0.2       0.2
 0 C  dz2             0.0       0.0       0.0       0.0       0.1       0.0
 0 C  dx2y2           0.0       0.0       0.0       0.0       0.3       0.0
 0 C  dxy             0.0       0.0       0.0       0.0       0.2       0.1
 1 C  s              49.7      49.6       0.0       0.0      20.1       5.1
 1 C  px              0.0       0.0       0.0       0.1       0.2       8.5
 1 C  py              0.0       0.0       0.0       0.0       1.6       0.0
 1 C  dz2             0.0       0.0       0.0       0.0       0.4       0.0
 1 C  dx2y2           0.0       0.0       0.0       0.1       0.1       0.0
 1 C  dxy             0.1       0.1       0.0       0.1       0.1       0.9
 1 C  f-3             0.0       0.0       0.0       0.0       0.1       0.0
 2 C  s              49.5      49.7       0.0       0.0      20.1       5.1
 2 C  px              0.0       0.0       0.1       0.0       0.2       8.5
 2 C  py              0.0       0.0       0.0       0.0       1.6       0.0
 2 C  dz2             0.0       0.0       0.0       0.0       0.4       0.0
 2 C  dx2y2           0.0       0.0       0.1       0.0       0.1       0.0
 2 C  dxy             0.1       0.1       0.1       0.0       0.1       0.9
 2 C  f-3             0.0       0.0       0.0       0.0       0.1       0.0
 3 C  s               0.0       0.0      99.0       0.4       9.2      17.8
 3 C  px              0.0       0.0       0.0       0.0       2.7       0.2
 3 C  py              0.0       0.0       0.0       0.0       0.2       0.2
 3 C  dz2             0.0       0.0       0.0       0.0       0.1       0.0
 3 C  dx2y2           0.0       0.0       0.0       0.0       0.3       0.0
 3 C  dxy             0.0       0.0       0.0       0.0       0.2       0.1
 4 H  s               0.0       0.0       0.0       0.1       1.7       4.6
 4 H  px              0.0       0.0       0.0       0.0       0.1       0.3
 4 H  py              0.0       0.0       0.0       0.0       0.0       0.2
 5 H  s               0.0       0.0       0.0       0.1       1.8       4.2
 5 H  pz              0.0       0.0       0.0       0.0       0.1       0.3
 5 H  py              0.0       0.0       0.0       0.0       0.1       0.1
 6 H  s               0.0       0.0       0.0       0.1       1.8       4.2
 6 H  pz              0.0       0.0       0.0       0.0       0.1       0.3
 6 H  py              0.0       0.0       0.0       0.0       0.1       0.1
 7 H  s               0.0       0.0       0.0       0.0       4.0       1.1
 7 H  pz              0.0       0.0       0.0       0.0       0.2       0.1
 7 H  py              0.0       0.0       0.0       0.0       0.1       0.0
 8 H  s               0.0       0.0       0.0       0.0       4.0       1.1
 8 H  pz              0.0       0.0       0.0       0.0       0.2       0.1
 8 H  py              0.0       0.0       0.0       0.0       0.1       0.0
 9 H  s               0.0       0.0       0.0       0.0       4.0       1.1
 9 H  pz              0.0       0.0       0.0       0.0       0.2       0.1
 9 H  py              0.0       0.0       0.0       0.0       0.1       0.0
10 H  s               0.0       0.0       0.0       0.0       4.0       1.1
10 H  pz              0.0       0.0       0.0       0.0       0.2       0.1
10 H  py              0.0       0.0       0.0       0.0       0.1       0.0
11 H  s               0.0       0.0       0.1       0.0       1.8       4.2
11 H  pz              0.0       0.0       0.0       0.0       0.1       0.3
11 H  py              0.0       0.0       0.0       0.0       0.1       0.1
12 H  s               0.0       0.0       0.1       0.0       1.8       4.2
12 H  pz              0.0       0.0       0.0       0.0       0.1       0.3
12 H  py              0.0       0.0       0.0       0.0       0.1       0.1
13 H  s               0.0       0.0       0.1       0.0       1.7       4.6
13 H  px              0.0       0.0       0.0       0.0       0.1       0.3
13 H  py              0.0       0.0       0.0       0.0       0.0       0.2

                      6         7         8         9        10        11   
                  -0.75655  -0.69978  -0.58517  -0.53802  -0.53075  -0.52135
                   2.00000   2.00000   2.00000   2.00000   2.00000   2.00000
                  --------  --------  --------  --------  --------  --------
 0 C  s              12.0       2.1       0.0       0.0       0.1       0.0
 0 C  pz              0.0       0.0      10.2       0.0       0.0      22.8
 0 C  px              4.4       2.4       0.0       1.1      21.7       0.0
 0 C  py              0.4       3.8       0.0      18.7       1.7       0.0
 0 C  dz2             0.1       0.2       0.0       0.3       0.0       0.0
 0 C  dxz             0.0       0.0       0.3       0.0       0.0       0.0
 0 C  dyz             0.0       0.0       0.0       0.0       0.0       0.4
 0 C  dx2y2           0.3       0.0       0.0       0.0       0.1       0.0
 0 C  dxy             0.1       0.6       0.0       0.0       0.5       0.0
 1 C  s               4.6       8.5       0.0       0.0       0.7       0.0
 1 C  pz              0.0       0.0      22.8       0.0       0.0       6.5
 1 C  px              6.3       0.0       0.0       5.5       6.1       0.0
 1 C  py              0.0      11.2       0.0       9.2       6.0       0.0
 1 C  dz2             0.1       0.6       0.0       0.1       0.0       0.0
 1 C  dxz             0.0       0.0       0.1       0.0       0.0       1.3
 1 C  dyz             0.0       0.0       0.0       0.0       0.0       0.2
 1 C  dx2y2           0.6       0.0       0.0       0.0       0.7       0.0
 1 C  dxy             1.0       0.2       0.0       0.1       0.3       0.0
 1 C  f-2             0.0       0.0       0.0       0.0       0.0       0.1
 2 C  s               4.6       8.5       0.0       0.0       0.7       0.0
 2 C  pz              0.0       0.0      22.8       0.0       0.0       6.5
 2 C  px              6.3       0.0       0.0       5.5       6.1       0.0
 2 C  py              0.0      11.2       0.0       9.2       6.0       0.0
 2 C  dz2             0.1       0.6       0.0       0.1       0.0       0.0
 2 C  dxz             0.0       0.0       0.1       0.0       0.0       1.3
 2 C  dyz             0.0       0.0       0.0       0.0       0.0       0.2
 2 C  dx2y2           0.6       0.0       0.0       0.0       0.7       0.0
 2 C  dxy             1.0       0.2       0.0       0.1       0.3       0.0
 2 C  f-2             0.0       0.0       0.0       0.0       0.0       0.1
 3 C  s              12.0       2.1       0.0       0.0       0.1       0.0
 3 C  pz              0.0       0.0      10.2       0.0       0.0      22.8
 3 C  px              4.4       2.4       0.0       1.1      21.7       0.0
 3 C  py              0.4       3.8       0.0      18.7       1.7       0.0
 3 C  dz2             0.1       0.2       0.0       0.3       0.0       0.0
 3 C  dxz             0.0       0.0       0.3       0.0       0.0       0.0
 3 C  dyz             0.0       0.0       0.0       0.0       0.0       0.4
 3 C  dx2y2           0.3       0.0       0.0       0.0       0.1       0.0
 3 C  dxy             0.1       0.6       0.0       0.0       0.5       0.0
 4 H  s               5.5       0.7       0.0       6.0       9.8       0.0
 4 H  pz              0.0       0.0       0.1       0.0       0.0       0.3
 4 H  px              0.2       0.0       0.0       0.2       0.0       0.0
 4 H  py              0.3       0.1       0.0       0.0       0.3       0.0
 5 H  s               4.7       2.2       2.4       2.6       0.0       7.0
 5 H  pz              0.3       0.2       0.0       0.2       0.0       0.0
 5 H  px              0.0       0.0       0.0       0.0       0.3       0.0
 5 H  py              0.1       0.0       0.1       0.0       0.0       0.2
 6 H  s               4.7       2.2       2.4       2.6       0.0       7.0
 6 H  pz              0.3       0.2       0.0       0.2       0.0       0.0
 6 H  px              0.0       0.0       0.0       0.0       0.3       0.0
 6 H  py              0.1       0.0       0.1       0.0       0.0       0.2
 7 H  s               1.6       6.8       5.4       1.3       0.4       1.9
 7 H  pz              0.1       0.5       0.0       0.1       0.0       0.0
 7 H  px              0.0       0.0       0.0       0.1       0.1       0.0
 7 H  py              0.1       0.1       0.2       0.0       0.0       0.1
 8 H  s               1.6       6.8       5.4       1.3       0.4       1.9
 8 H  pz              0.1       0.5       0.0       0.1       0.0       0.0
 8 H  px              0.0       0.0       0.0       0.1       0.1       0.0
 8 H  py              0.1       0.1       0.2       0.0       0.0       0.1
 9 H  s               1.6       6.8       5.4       1.3       0.4       1.9
 9 H  pz              0.1       0.5       0.0       0.1       0.0       0.0
 9 H  px              0.0       0.0       0.0       0.1       0.1       0.0
 9 H  py              0.1       0.1       0.2       0.0       0.0       0.1
10 H  s               1.6       6.8       5.4       1.3       0.4       1.9
10 H  pz              0.1       0.5       0.0       0.1       0.0       0.0
10 H  px              0.0       0.0       0.0       0.1       0.1       0.0
10 H  py              0.1       0.1       0.2       0.0       0.0       0.1
11 H  s               4.7       2.2       2.4       2.6       0.0       7.0
11 H  pz              0.3       0.2       0.0       0.2       0.0       0.0
11 H  px              0.0       0.0       0.0       0.0       0.3       0.0
11 H  py              0.1       0.0       0.1       0.0       0.0       0.2
12 H  s               4.7       2.2       2.4       2.6       0.0       7.0
12 H  pz              0.3       0.2       0.0       0.2       0.0       0.0
12 H  px              0.0       0.0       0.0       0.0       0.3       0.0
12 H  py              0.1       0.0       0.1       0.0       0.0       0.2
13 H  s               5.5       0.7       0.0       6.0       9.8       0.0
13 H  pz              0.0       0.0       0.1       0.0       0.0       0.3
13 H  px              0.2       0.0       0.0       0.2       0.0       0.0
13 H  py              0.3       0.1       0.0       0.0       0.3       0.0

                     12        13        14        15        16        17   
                  -0.47443  -0.45493  -0.43679  -0.42487  -0.42404   0.11282
                   2.00000   2.00000   2.00000   2.00000   2.00000   0.00000
                  --------  --------  --------  --------  --------  --------
 0 C  s               0.0       0.0       0.6       0.0       0.0       3.1
 0 C  pz              0.0      16.5       0.0       4.0       0.0       0.0
 0 C  px              0.3       0.0      11.7       0.0       8.0       0.7
 0 C  py             21.1       0.0       4.7       0.0       2.7       0.6
 0 C  dz2             0.6       0.0       0.1       0.0       0.3       0.8
 0 C  dxz             0.0       0.8       0.0       0.7       0.0       0.0
 0 C  dyz             0.0       1.6       0.0       1.3       0.0       0.0
 0 C  dx2y2           0.4       0.0       0.3       0.0       0.9       0.0
 0 C  dxy             0.5       0.0       0.0       0.0       1.7       0.7
 0 C  f+2             0.0       0.1       0.0       0.1       0.0       0.0
 0 C  f+3             0.0       0.0       0.0       0.0       0.2       0.0
 1 C  s               0.1       0.0       0.3       0.0       0.3       3.3
 1 C  pz              0.0       7.2       0.0      14.8       0.0       0.0
 1 C  px              4.4       0.0       6.5       0.0      13.3       0.0
 1 C  py              3.6       0.0      10.8       0.0       8.7       1.6
 1 C  dz2             0.2       0.0       0.5       0.0       0.1       1.4
 1 C  dxz             0.0       1.4       0.0       0.0       0.0       0.0
 1 C  dyz             0.0       0.5       0.0       4.9       0.0       0.0
 1 C  dx2y2           0.3       0.0       3.1       0.0       0.2       0.1
 1 C  dxy             0.4       0.0       0.0       0.0       1.4       0.0
 1 C  f0              0.0       0.0       0.0       0.1       0.0       0.0
 1 C  f+2             0.0       0.1       0.0       0.1       0.0       0.0
 1 C  f+3             0.2       0.0       0.0       0.0       0.2       0.0
 1 C  f-3             0.0       0.0       0.2       0.0       0.0       0.0
 2 C  s               0.1       0.0       0.3       0.0       0.3       3.3
 2 C  pz              0.0       7.2       0.0      14.8       0.0       0.0
 2 C  px              4.4       0.0       6.5       0.0      13.3       0.0
 2 C  py              3.6       0.0      10.8       0.0       8.7       1.6
 2 C  dz2             0.2       0.0       0.5       0.0       0.1       1.4
 2 C  dxz             0.0       1.4       0.0       0.0       0.0       0.0
 2 C  dyz             0.0       0.5       0.0       4.9       0.0       0.0
 2 C  dx2y2           0.3       0.0       3.1       0.0       0.2       0.1
 2 C  dxy             0.4       0.0       0.0       0.0       1.4       0.0
 2 C  f0              0.0       0.0       0.0       0.1       0.0       0.0
 2 C  f+2             0.0       0.1       0.0       0.1       0.0       0.0
 2 C  f+3             0.2       0.0       0.0       0.0       0.2       0.0
 2 C  f-3             0.0       0.0       0.2       0.0       0.0       0.0
 3 C  s               0.0       0.0       0.6       0.0       0.0       3.1
 3 C  pz              0.0      16.5       0.0       4.0       0.0       0.0
 3 C  px              0.3       0.0      11.7       0.0       8.0       0.7
 3 C  py             21.1       0.0       4.7       0.0       2.7       0.6
 3 C  dz2             0.6       0.0       0.1       0.0       0.3       0.8
 3 C  dxz             0.0       0.8       0.0       0.7       0.0       0.0
 3 C  dyz             0.0       1.6       0.0       1.3       0.0       0.0
 3 C  dx2y2           0.4       0.0       0.3       0.0       0.9       0.0
 3 C  dxy             0.5       0.0       0.0       0.0       1.7       0.7
 3 C  f+2             0.0       0.1       0.0       0.1       0.0       0.0
 3 C  f+3             0.0       0.0       0.0       0.0       0.2       0.0
 4 H  s               5.2       0.0       0.3       0.0       7.5       3.5
 4 H  pz              0.0       0.2       0.0       0.1       0.0       0.0
 4 H  px              0.3       0.0       0.1       0.0       0.0       0.1
 4 H  py              0.0       0.0       0.1       0.0       0.1       0.4
 5 H  s               4.3       7.3       1.3       2.7       0.6       5.9
 5 H  pz              0.2       0.0       0.0       0.0       0.0       0.6
 5 H  px              0.0       0.0       0.2       0.0       0.1       0.0
 5 H  py              0.0       0.2       0.0       0.0       0.0       0.1
 6 H  s               4.3       7.3       1.3       2.7       0.6       5.9
 6 H  pz              0.2       0.0       0.0       0.0       0.0       0.6
 6 H  px              0.0       0.0       0.2       0.0       0.1       0.0
 6 H  py              0.0       0.2       0.0       0.0       0.0       0.1
 7 H  s               1.4       3.1       3.5       9.0       1.1       9.2
 7 H  pz              0.1       0.0       0.1       0.0       0.0       1.0
 7 H  px              0.1       0.0       0.1       0.0       0.2       0.0
 7 H  py              0.0       0.1       0.0       0.1       0.1       0.1
 8 H  s               1.4       3.1       3.5       9.0       1.1       9.2
 8 H  pz              0.1       0.0       0.1       0.0       0.0       1.0
 8 H  px              0.1       0.0       0.1       0.0       0.2       0.0
 8 H  py              0.0       0.1       0.0       0.1       0.1       0.1
 9 H  s               1.4       3.1       3.5       9.0       1.1       9.2
 9 H  pz              0.1       0.0       0.1       0.0       0.0       1.0
 9 H  px              0.1       0.0       0.1       0.0       0.2       0.0
 9 H  py              0.0       0.1       0.0       0.1       0.1       0.1
10 H  s               1.4       3.1       3.5       9.0       1.1       9.2
10 H  pz              0.1       0.0       0.1       0.0       0.0       1.0
10 H  px              0.1       0.0       0.1       0.0       0.2       0.0
10 H  py              0.0       0.1       0.0       0.1       0.1       0.1
11 H  s               4.3       7.3       1.3       2.7       0.6       5.9
11 H  pz              0.2       0.0       0.0       0.0       0.0       0.6
11 H  px              0.0       0.0       0.2       0.0       0.1       0.0
11 H  py              0.0       0.2       0.0       0.0       0.0       0.1
12 H  s               4.3       7.3       1.3       2.7       0.6       5.9
12 H  pz              0.2       0.0       0.0       0.0       0.0       0.6
12 H  px              0.0       0.0       0.2       0.0       0.1       0.0
12 H  py              0.0       0.2       0.0       0.0       0.0       0.1
13 H  s               5.2       0.0       0.3       0.0       7.5       3.5
13 H  pz              0.0       0.2       0.0       0.1       0.0       0.0
13 H  px              0.3       0.0       0.1       0.0       0.0       0.1
13 H  py              0.0       0.0       0.1       0.0       0.1       0.4

                     18        19        20        21        22        23   
                   0.13373   0.15669   0.15885   0.18614   0.19272   0.20316
                   0.00000   0.00000   0.00000   0.00000   0.00000   0.00000
                  --------  --------  --------  --------  --------  --------
 0 C  s               7.0       0.0       0.0       1.7       0.7       0.0
 0 C  pz              0.0       0.0       5.0       0.0       0.0       2.5
 0 C  px              1.5       0.1       0.0       8.8       4.8       0.0
 0 C  py              0.1       4.5       0.0       1.5       2.9       0.0
 0 C  dz2             0.0       0.0       0.0       1.8       0.9       0.0
 0 C  dxz             0.0       0.0       0.4       0.0       0.0       3.1
 0 C  dyz             0.0       0.0       1.0       0.0       0.0       1.0
 0 C  dx2y2           0.0       0.0       0.0       0.0       0.6       0.0
 0 C  dxy             0.1       1.1       0.0       0.1       3.7       0.0
 1 C  s               0.1       2.8       0.0       1.9       0.8       0.0
 1 C  pz              0.0       0.0       6.8       0.0       0.0       4.6
 1 C  px              2.2       0.3       0.0       0.3       0.7       0.0
 1 C  py              0.0       5.6       0.0       1.8       5.9       0.0
 1 C  dz2             0.1       0.0       0.0       1.1       1.4       0.0
 1 C  dxz             0.0       0.0       0.0       0.0       0.0       0.2
 1 C  dyz             0.0       0.0       2.3       0.0       0.0       0.1
 1 C  dx2y2           0.4       1.0       0.0       0.4       0.1       0.0
 1 C  dxy             1.2       0.2       0.0       0.2       1.9       0.0
 1 C  f0              0.0       0.0       0.0       0.0       0.0       0.1
 1 C  f-1             0.0       0.1       0.0       0.0       0.0       0.0
 2 C  s               0.1       2.8       0.0       1.9       0.8       0.0
 2 C  pz              0.0       0.0       6.8       0.0       0.0       4.6
 2 C  px              2.2       0.3       0.0       0.3       0.7       0.0
 2 C  py              0.0       5.6       0.0       1.8       5.9       0.0
 2 C  dz2             0.1       0.0       0.0       1.1       1.4       0.0
 2 C  dxz             0.0       0.0       0.0       0.0       0.0       0.2
 2 C  dyz             0.0       0.0       2.3       0.0       0.0       0.1
 2 C  dx2y2           0.4       1.0       0.0       0.4       0.1       0.0
 2 C  dxy             1.2       0.2       0.0       0.2       1.9       0.0
 2 C  f0              0.0       0.0       0.0       0.0       0.0       0.1
 2 C  f-1             0.0       0.1       0.0       0.0       0.0       0.0
 3 C  s               7.0       0.0       0.0       1.7       0.7       0.0
 3 C  pz              0.0       0.0       5.0       0.0       0.0       2.5
 3 C  px              1.5       0.1       0.0       8.8       4.7       0.0
 3 C  py              0.1       4.5       0.0       1.5       2.9       0.0
 3 C  dz2             0.0       0.0       0.0       1.8       0.9       0.0
 3 C  dxz             0.0       0.0       0.4       0.0       0.0       3.1
 3 C  dyz             0.0       0.0       1.0       0.0       0.0       1.0
 3 C  dx2y2           0.0       0.0       0.0       0.0       0.6       0.0
 3 C  dxy             0.1       1.1       0.0       0.1       3.7       0.0
 4 H  s              11.5       4.0       0.0      18.9       6.7       0.0
 4 H  pz              0.0       0.0       0.1       0.0       0.0       0.5
 4 H  px              0.6       0.2       0.0       1.0       0.2       0.0
 4 H  py              0.9       0.1       0.0       0.8       0.3       0.0
 5 H  s              10.5       1.8       6.1       1.1       6.2       5.3
 5 H  pz              0.9       0.2       0.2       0.0       0.7       0.1
 5 H  px              0.0       0.0       0.0       0.0       0.5       0.1
 5 H  py              0.4       0.0       0.4       0.3       0.0       0.4
 6 H  s              10.6       1.8       6.1       1.1       6.2       5.3
 6 H  pz              0.9       0.2       0.2       0.0       0.7       0.1
 6 H  px              0.0       0.0       0.0       0.0       0.5       0.1
 6 H  py              0.4       0.0       0.4       0.3       0.0       0.4
 7 H  s               0.0      11.5       9.4       2.7       1.4      12.3
 7 H  pz              0.0       1.0       0.3       0.6       0.0       0.2
 7 H  px              0.1       0.0       0.0       0.0       0.1       0.1
 7 H  py              0.0       0.4       0.7       0.0       0.3       0.5
 8 H  s               0.0      11.5       9.4       2.7       1.4      12.3
 8 H  pz              0.0       1.0       0.3       0.6       0.0       0.2
 8 H  px              0.1       0.0       0.0       0.0       0.1       0.1
 8 H  py              0.0       0.4       0.7       0.0       0.3       0.5
 9 H  s               0.0      11.5       9.4       2.7       1.4      12.3
 9 H  pz              0.0       1.0       0.3       0.6       0.0       0.2
 9 H  px              0.1       0.0       0.0       0.0       0.1       0.1
 9 H  py              0.0       0.4       0.7       0.0       0.3       0.5
10 H  s               0.0      11.5       9.4       2.7       1.4      12.3
10 H  pz              0.0       1.0       0.3       0.6       0.0       0.2
10 H  px              0.1       0.0       0.0       0.0       0.1       0.1
10 H  py              0.0       0.4       0.7       0.0       0.3       0.5
11 H  s              10.5       1.8       6.1       1.1       6.2       5.3
11 H  pz              0.9       0.2       0.2       0.0       0.7       0.1
11 H  px              0.0       0.0       0.0       0.0       0.5       0.1
11 H  py              0.4       0.0       0.4       0.3       0.0       0.4
12 H  s              10.5       1.8       6.1       1.1       6.2       5.3
12 H  pz              0.9       0.2       0.2       0.0       0.7       0.1
12 H  px              0.0       0.0       0.0       0.0       0.5       0.1
12 H  py              0.4       0.0       0.4       0.3       0.0       0.4
13 H  s              11.5       4.0       0.0      18.9       6.7       0.0
13 H  pz              0.0       0.0       0.1       0.0       0.0       0.5
13 H  px              0.6       0.2       0.0       1.0       0.2       0.0
13 H  py              0.9       0.1       0.0       0.8       0.3       0.0

                     24        25        26        27        28        29   
                   0.21183   0.22426   0.22552   0.24582   0.25365   0.28438
                   0.00000   0.00000   0.00000   0.00000   0.00000   0.00000
                  --------  --------  --------  --------  --------  --------
 0 C  s               0.1       0.0       0.0       0.1       0.1       0.1
 0 C  pz              0.0       6.2       9.3       0.0       0.0       0.0
 0 C  px              4.2       0.0       0.0      16.6       2.9       2.4
 0 C  py              4.2       0.0       0.0       1.1      13.2      13.0
 0 C  dz2             3.9       0.0       0.0       0.0       0.1       6.0
 0 C  dxz             0.0       0.9       1.1       0.0       0.0       0.0
 0 C  dyz             0.0       5.2       1.6       0.0       0.0       0.0
 0 C  dx2y2           1.0       0.0       0.0       5.8       0.8       0.1
 0 C  dxy             0.1       0.0       0.0       1.8       0.9       1.4
 1 C  s               2.1       0.0       0.0       0.9       0.1       0.1
 1 C  pz              0.0       1.8       1.5       0.0       0.0       0.0
 1 C  px              0.6       0.0       0.0       4.7       2.8       7.3
 1 C  py              0.6       0.0       0.0       4.1       8.8       5.8
 1 C  dz2             0.1       0.0       0.0       2.0       4.7       1.5
 1 C  dxz             0.0       2.9       1.7       0.0       0.0       0.0
 1 C  dyz             0.0       2.0       0.9       0.0       0.0       0.0
 1 C  dx2y2           0.9       0.0       0.0       0.0       0.0       1.1
 1 C  dxy             1.2       0.0       0.0       1.0       0.5       5.6
 1 C  f+3             0.1       0.0       0.0       0.1       0.1       0.0
 2 C  s               2.1       0.0       0.0       0.9       0.1       0.1
 2 C  pz              0.0       1.8       1.5       0.0       0.0       0.0
 2 C  px              0.6       0.0       0.0       4.7       2.8       7.3
 2 C  py              0.6       0.0       0.0       4.1       8.8       5.8
 2 C  dz2             0.1       0.0       0.0       2.0       4.7       1.5
 2 C  dxz             0.0       2.9       1.7       0.0       0.0       0.0
 2 C  dyz             0.0       2.0       0.9       0.0       0.0       0.0
 2 C  dx2y2           0.9       0.0       0.0       0.0       0.0       1.1
 2 C  dxy             1.2       0.0       0.0       1.0       0.5       5.6
 2 C  f+3             0.1       0.0       0.0       0.1       0.1       0.0
 3 C  s               0.1       0.0       0.0       0.1       0.1       0.1
 3 C  pz              0.0       6.2       9.3       0.0       0.0       0.0
 3 C  px              4.2       0.0       0.0      16.6       2.9       2.4
 3 C  py              4.2       0.0       0.0       1.1      13.2      13.0
 3 C  dz2             3.9       0.0       0.0       0.0       0.1       6.0
 3 C  dxz             0.0       0.9       1.1       0.0       0.0       0.0
 3 C  dyz             0.0       5.2       1.6       0.0       0.0       0.0
 3 C  dx2y2           1.0       0.0       0.0       5.8       0.8       0.1
 3 C  dxy             0.1       0.0       0.0       1.8       0.9       1.4
 4 H  s              14.5       0.0       0.0       2.5       4.7       1.3
 4 H  pz              0.0       0.8       0.1       0.0       0.0       0.0
 4 H  px              1.7       0.0       0.0       0.0       0.5       0.1
 4 H  py              0.1       0.0       0.0       0.8       0.0       0.2
 5 H  s               3.6       9.0      11.1       1.0       3.2       0.4
 5 H  pz              0.6       0.2       0.5       0.0       0.2       0.3
 5 H  px              0.0       0.0       0.2       0.4       0.0       0.2
[...]
                   4.69452   4.73873   4.80048   4.84190   4.97126   5.12984
                   0.00000   0.00000   0.00000   0.00000   0.00000   0.00000
                  --------  --------  --------  --------  --------  --------
 0 C  s               0.0       2.9       0.5       7.5       1.8       7.8
 0 C  pz              0.3       0.0       0.0       0.0       0.0       0.0
 0 C  px              0.0       0.5       0.4       1.7       0.4       4.6
 0 C  py              0.0       0.9       0.2       0.5       0.2       0.7
 0 C  dz2             0.0       1.1       0.3       0.8       0.3       1.5
 0 C  dyz             0.2       0.0       0.0       0.0       0.0       0.0
 0 C  dx2y2           0.0       0.8       0.5       0.7       0.1       2.6
 0 C  dxy             0.0       1.4       1.7       3.4       0.0       2.7
 0 C  f0              0.6       0.0       0.0       0.0       0.0       0.0
 0 C  f+1             0.0       2.3       1.7       0.9       0.5       0.6
 0 C  f-1             0.0       8.6       0.0       4.7       0.6       0.5
 0 C  f+2             0.5       0.0       0.0       0.0       0.0       0.0
 0 C  f-2             1.0       0.0       0.0       0.0       0.0       0.0
 0 C  f+3             0.0       0.7       2.4       0.1       0.4       1.3
 0 C  f-3             0.0       0.3       2.7       4.7       0.5       2.1
 1 C  s               0.0       1.8       2.7       3.9       9.0       7.1
 1 C  pz              1.9       0.0       0.0       0.0       0.0       0.0
 1 C  px              0.0       1.4       0.6       2.2       7.7       3.4
 1 C  py              0.0       1.1       0.4       1.0       3.0       1.3
 1 C  dz2             0.0       2.2       0.8       3.3       1.5       0.7
 1 C  dxz             0.1       0.0       0.0       0.0       0.0       0.0
 1 C  dyz            13.3       0.0       0.0       0.0       0.0       0.0
 1 C  dx2y2           0.0       2.6       2.7       3.5       0.0       1.5
 1 C  dxy             0.0       0.4       0.2       0.4      12.4       3.4
 1 C  f0              4.1       0.0       0.0       0.0       0.0       0.0
 1 C  f+1             0.0       0.3       2.0       1.6       1.4       0.6
 1 C  f-1             0.0       3.0       9.3       0.0       3.1       1.1
 1 C  f+2             7.0       0.0       0.0       0.0       0.0       0.0
 1 C  f-2             7.4       0.0       0.0       0.0       0.0       0.0
 1 C  f+3             0.0       1.7      10.1       3.3       2.1       0.0
 1 C  f-3             0.0       5.3       1.5       3.1       3.8       5.7
 2 C  s               0.0       1.8       2.7       3.9       9.0       7.1
 2 C  pz              1.9       0.0       0.0       0.0       0.0       0.0
 2 C  px              0.0       1.4       0.6       2.2       7.7       3.4
 2 C  py              0.0       1.1       0.4       1.0       3.0       1.3
 2 C  dz2             0.0       2.2       0.8       3.3       1.5       0.7
 2 C  dxz             0.1       0.0       0.0       0.0       0.0       0.0
 2 C  dyz            13.3       0.0       0.0       0.0       0.0       0.0
 2 C  dx2y2           0.0       2.6       2.7       3.5       0.0       1.5
 2 C  dxy             0.0       0.4       0.2       0.4      12.4       3.4
 2 C  f0              4.1       0.0       0.0       0.0       0.0       0.0
 2 C  f+1             0.0       0.3       2.0       1.6       1.4       0.6
 2 C  f-1             0.0       3.0       9.3       0.0       3.1       1.1
 2 C  f+2             7.0       0.0       0.0       0.0       0.0       0.0
 2 C  f-2             7.4       0.0       0.0       0.0       0.0       0.0
 2 C  f+3             0.0       1.7      10.1       3.3       2.1       0.0
 2 C  f-3             0.0       5.3       1.5       3.1       3.8       5.7
 3 C  s               0.0       2.9       0.5       7.5       1.8       7.8
 3 C  pz              0.3       0.0       0.0       0.0       0.0       0.0
 3 C  px              0.0       0.5       0.4       1.7       0.4       4.6
 3 C  py              0.0       0.9       0.2       0.5       0.2       0.7
 3 C  dz2             0.0       1.1       0.3       0.8       0.3       1.5
 3 C  dyz             0.2       0.0       0.0       0.0       0.0       0.0
 3 C  dx2y2           0.0       0.8       0.5       0.7       0.1       2.6
 3 C  dxy             0.0       1.4       1.7       3.4       0.0       2.7
 3 C  f0              0.6       0.0       0.0       0.0       0.0       0.0
 3 C  f+1             0.0       2.3       1.7       0.9       0.5       0.6
 3 C  f-1             0.0       8.6       0.0       4.7       0.6       0.5
 3 C  f+2             0.5       0.0       0.0       0.0       0.0       0.0
 3 C  f-2             1.0       0.0       0.0       0.0       0.0       0.0
 3 C  f+3             0.0       0.7       2.4       0.1       0.4       1.3
 3 C  f-3             0.0       0.3       2.7       4.7       0.5       2.1
 4 H  s               0.0       0.5       3.0       0.3       0.3       0.3
 4 H  px              0.0       0.0       0.1       0.0       0.1       0.0
 4 H  py              0.0       0.2       0.5       0.0       0.0       0.0
 5 H  s               0.2       2.9       0.0       1.0       0.1       0.1
 5 H  py              0.0       0.3       0.0       0.0       0.0       0.0
 6 H  s               0.2       2.9       0.0       1.0       0.1       0.1
 6 H  py              0.0       0.3       0.0       0.0       0.0       0.0
 7 H  s               4.7       1.1       2.3       0.0       0.2       0.1
 7 H  pz              1.1       0.2       0.2       0.1       0.0       0.0
 7 H  py              0.5       0.2       0.2       0.0       0.0       0.0
 8 H  s               4.7       1.1       2.3       0.0       0.2       0.1
 8 H  pz              1.1       0.2       0.2       0.1       0.0       0.0
 8 H  py              0.5       0.2       0.2       0.0       0.0       0.0
 9 H  s               4.7       1.1       2.3       0.0       0.2       0.1
 9 H  pz              1.1       0.2       0.2       0.1       0.0       0.0
 9 H  py              0.5       0.2       0.2       0.0       0.0       0.0
10 H  s               4.7       1.1       2.3       0.0       0.2       0.1
10 H  pz              1.1       0.2       0.2       0.1       0.0       0.0
10 H  py              0.5       0.2       0.2       0.0       0.0       0.0
11 H  s               0.2       2.9       0.0       1.0       0.1       0.1
11 H  py              0.0       0.3       0.0       0.0       0.0       0.0
12 H  s               0.2       2.9       0.0       1.0       0.1       0.1
12 H  py              0.0       0.3       0.0       0.0       0.0       0.0
13 H  s               0.0       0.5       3.0       0.3       0.3       0.3
13 H  px              0.0       0.0       0.1       0.0       0.1       0.0
13 H  py              0.0       0.2       0.5       0.0       0.0       0.0

                    180       181       182       183   
                  22.37169  22.43827  22.49467  22.56056
                   0.00000   0.00000   0.00000   0.00000
                  --------  --------  --------  --------
 0 C  s              40.4      49.3       9.0       0.0
 1 C  s               8.9       0.0      40.4      49.5
 2 C  s               8.9       0.0      40.4      49.5
 3 C  s              40.4      49.3       9.0       0.0


                      *****************************
                      * MAYER POPULATION ANALYSIS *
                      *****************************

  NA   - Mulliken gross atomic population
  ZA   - Total nuclear charge
  QA   - Mulliken gross atomic charge
  VA   - Mayer's total valence
  BVA  - Mayer's bonded valence
  FA   - Mayer's free valence

  ATOM       NA         ZA         QA         VA         BVA        FA
  0 C      6.3278     6.0000    -0.3278     3.9271     3.9271    -0.0000
  1 C      6.1579     6.0000    -0.1579     3.8909     3.8909     0.0000
  2 C      6.1579     6.0000    -0.1579     3.8909     3.8909    -0.0000
  3 C      6.3278     6.0000    -0.3278     3.9271     3.9271     0.0000
  4 H      0.8878     1.0000     0.1122     0.9726     0.9726    -0.0000
  5 H      0.8973     1.0000     0.1027     0.9745     0.9745     0.0000
  6 H      0.8973     1.0000     0.1027     0.9745     0.9745     0.0000
  7 H      0.9160     1.0000     0.0840     0.9704     0.9704     0.0000
  8 H      0.9160     1.0000     0.0840     0.9704     0.9704     0.0000
  9 H      0.9160     1.0000     0.0840     0.9704     0.9704    -0.0000
 10 H      0.9160     1.0000     0.0840     0.9704     0.9704    -0.0000
 11 H      0.8973     1.0000     0.1027     0.9745     0.9745    -0.0000
 12 H      0.8973     1.0000     0.1027     0.9745     0.9745    -0.0000
 13 H      0.8878     1.0000     0.1122     0.9726     0.9726     0.0000

  Mayer bond orders larger than 0.100000
B(  0-C ,  1-C ) :   0.9872 B(  0-C ,  4-H ) :   0.9840 B(  0-C ,  5-H ) :   0.9809 
B(  0-C ,  6-H ) :   0.9809 B(  1-C ,  2-C ) :   0.9896 B(  1-C ,  7-H ) :   0.9726 
B(  1-C ,  8-H ) :   0.9726 B(  2-C ,  3-C ) :   0.9872 B(  2-C ,  9-H ) :   0.9726 
B(  2-C , 10-H ) :   0.9726 B(  3-C , 11-H ) :   0.9809 B(  3-C , 12-H ) :   0.9809 
B(  3-C , 13-H ) :   0.9840 

-------
TIMINGS
-------

Total SCF time: 0 days 0 hours 0 min 28 sec 

Total time                  ....      28.887 sec
Sum of individual times     ....      28.064 sec  ( 97.2%)

SCF preparation             ....       0.043 sec  (  0.1%)
Fock matrix formation       ....      27.806 sec  ( 96.3%)
  Startup                   ....       0.002 sec  (  0.0% of F)
  Split-RI-J                ....       0.880 sec  (  3.2% of F)
  Chain of spheres X        ....      24.118 sec  ( 86.7% of F)
  XC integration            ....       3.601 sec  ( 13.0% of F)
    XC Preparation          ....       0.000 sec  (  0.0% of XC)
    Basis function eval.    ....       0.966 sec  ( 26.8% of XC)
    Density eval.           ....       0.680 sec  ( 18.9% of XC)
    XC-Functional eval.     ....       1.044 sec  ( 29.0% of XC)
    XC-Potential eval.      ....       0.846 sec  ( 23.5% of XC)
Diagonalization             ....       0.000 sec  (  0.0%)
Density matrix formation    ....       0.012 sec  (  0.0%)
Total Energy calculation    ....       0.001 sec  (  0.0%)
Population analysis         ....       0.077 sec  (  0.3%)
Orbital Transformation      ....       0.019 sec  (  0.1%)
Orbital Orthonormalization  ....       0.000 sec  (  0.0%)
DIIS solution               ....       0.032 sec  (  0.1%)
  MO trafo                  ....       0.000 sec  (  0.0 % of DIIS)
  Orb grad                  ....       0.000 sec  (  0.0 % of DIIS)
  Energy W gradient         ....       0.000 sec  (  0.0 % of DIIS)
  DIIS error                ....       0.003 sec  (  9.2 % of DIIS)
  DIIS work                 ....       0.020 sec  ( 61.4 % of DIIS)
  Form Q                    ....       0.000 sec  (  0.0 % of DIIS)
  Form QpQm                 ....       0.000 sec  (  0.0 % of DIIS)
  Exp/Cayley                ....       0.000 sec  (  0.0 % of DIIS)
  Orb update                ....       0.000 sec  (  0.0 % of DIIS)
  Wake-sleep                ....       0.000 sec  (  0.9 % of DIIS)
SOSCF solution              ....       0.011 sec  (  0.0%)
  MO trafo                  ....       0.006 sec  ( 57.8 % of SOSCF)
  Orb grad                  ....       0.000 sec  (  0.9 % of SOSCF)
  Rot update                ....       0.000 sec  (  2.5 % of SOSCF)
  Step                      ....       0.004 sec  ( 38.6 % of SOSCF)
Grid generation             ....       0.062 sec  (  0.2%)
Finished LeanSCF after  28.9 sec

Maximum memory used throughout the entire LEANSCF-calculation: 21.1 MB
------------------   -----------------
gCP correction             0.009763867
------------------   -----------------

-------------------------   --------------------
FINAL SINGLE POINT ENERGY      -158.453861803340
-------------------------   --------------------


------------------------------------------------------------------------------
                              ORCA PROPERTY CALCULATIONS
------------------------------------------------------------------------------

GBWName                                 ... sp.gbw
Number of atoms                         ...     14
Number of basis functions               ...    184
Max core memory                         ...   1024 MB

Electric properties:
Dipole moment                           ... YES
Quadrupole moment                       ...  NO
Static polarizability (Dipole/Dipole)   ...  NO
Static polarizability (Dipole/Quad.)    ...  NO
Static polarizability (Quad./Quad.)     ...  NO
Static polarizability (Velocity)        ...  NO

Atomic electric properties:
Dipole moment                           ...  NO
Quadrupole moment                       ...  NO
Static polarizability                   ...  NO

Choice of electric origin               ... Center of mass
Position of electric origin             ...     0.000001     0.000001     0.000010

General magnetic properties:
Magnetizability                         ...  NO

EPR properties:
g-Tensor (aka g-matrix)                 ...  NO
Zero-Field splitting spin-orbit         ...  NO
Zero-field splitting spin-spin          ...  NO
Hyperfine couplings                     ...  NO (   0 nuclei)
Quadrupole couplings                    ...  NO (   0 nuclei)
Contact density                         ...  NO (   0 nuclei)

NMR properties:
Chemical shifts                         ...  NO (   0 nuclei)
Spin-rotation constants                 ...  NO (   0 nuclei)
Spin-spin couplings                     ...  NO (   0 nuclei,    0 pairs)

Choice of magnetic origin               ... GIAO
Position of magnetic origin             ...     0.000000     0.000000     0.000000

Properties with geometric perturbations:
SCF Hessian                             ...  NO
IR spectrum                             ...  NO
VCD spectrum                            ...  NO
X-ray spectroscopy properties:
SCF XES/XAS/RIXS spectra                ...  NO


-------------
DIPOLE MOMENT
-------------

Method             : SCF
Type of density    : Electron Density
Multiplicity       :   1
Irrep              :   0
Energy             :  -158.4636256701399475 Eh
Relativity type    : 
Basis              : AO
                                X                 Y                 Z
Electronic contribution:     -0.000000553      -0.000000738      -0.000052751
Nuclear contribution   :      0.000000181       0.000001108       0.000050044
                        -----------------------------------------
Total Dipole Moment    :     -0.000000372       0.000000371      -0.000002707
                        -----------------------------------------
Magnitude (a.u.)       :      0.000002757
Magnitude (Debye)      :      0.000007009



--------------------
Rotational spectrum 
--------------------
 
Rotational constants in cm-1:             0.780741             0.121260             0.113829 
Rotational constants in MHz :         23406.014971          3635.284037          3412.508757 

Dipole components along the rotational axes: 
x,y,z [a.u.] :    -0.000000    -0.000000    -0.000003 
x,y,z [Debye]:    -0.000001    -0.000001    -0.000007 

 

Dipole moment calculation done in   0.0 sec 

Maximum memory used throughout the entire PROP-calculation: 12.1 MB

--------------------------------
SUGGESTED CITATIONS FOR THIS RUN
--------------------------------

Below you find a list of papers that are relevant to this ORCA run
We neither can nor want to force you to cite these papers, but we appreciate if you do
You receive ORCA, which is the product of decades of hard work by many enthusiastic individuals, for free
The only thing we kindly ask in return is that you cite our papers,
We deeply appreciate it, if you show your appreciation for ORCA by not just citing the generic ORCA reference.

Please note that relegating all ORCA citations to the supporting information does *not* help us.
SI sections are not indexed - citations you put there will not count into any citation statistics
But we need these citations in order to attract the funding resources that allow us to do what we are doing

Therefore, if you are a happy ORCA user, please consider citing a few of the papers listed below in the main body of your paper

In addition to the list printed below, the program has created the file sp.bibtex that contains the list in bibtex format
You can import this file easily into all common literature databanks and citation aid programs


List of essential papers. We consider these as the minimum necessary citations

  1. Neese,F.
     Software update: the ORCA program system, version 5.0
     WIRES Comput. Molec. Sci., 2022 12(1)e1606
     doi.org/10.1002/wcms.1606

List of papers to cite with high priority. The work reported in these papers was absolutely
necessary for this run to complete.
Our perspective: the developers of density functionals and basis sets usually get cited in chemistry papers
Good! But without the algorithms to do something with them, the functionals or basis sets would not do anything.
Hence, in our opinion, the algorithm design and method developments papers are equally worthy of getting cited

  1. Neese,F.
     An improvement of the resolution of the identity approximation for the formation of the Coulomb matrix
     J. Comp. Chem., 2003 24(14)1740-1747
     doi.org/10.1002/jcc.10318
  2. Neese,F.; Wennmohs,F.; Hansen,A.; Becker,U.
     Efficient, approximate and parallel Hartree-Fock and hybrid DFT calculations. A 'chain-of-spheres' algorithm for the Hartree-Fock exchange
     Chem. Phys., 2009 356(1-3)98-109
     doi.org/10.1016/j.chemphys.2008.10.036
  3. Helmich-Paris,B.; de Souza,B.; Neese,F.; Izsák,R.
     An improved chain of spheres for exchange algorithm
     J. Chem. Phys., 2021 155 104109
     doi.org/doi: 10.1063/5.0058766.
  4. Neese,F.
     The SHARK Integral Generation and Digestion System
     J. Comp. Chem., 2022  1-16
     doi.org/10.1002/jcc.26942

List of suggested additional citations. These are papers that are important in the 'surrounding' of 
of this run, or papers that preceded the highly important papers. If you like your results we are grateful for a citation.

  1. Izsak,R.; Neese,F.
     An overlap fitted chain of spheres exchange method
     J. Chem. Phys., 2011 135 144105
     doi.org/10.1063/1.3646921
  2. Izsak,R.; Hansen,A.; Neese,F.
     The resolution of identity and chain of spheres approximations for the LPNO-CCSD singles Fock term
     Molec. Phys., 2012 110 2413-2417
     doi.org/10.1080/00268976.2012.687466
  3. Neese,F.
     The ORCA program system
     WIRES Comput. Molec. Sci., 2012 2(1)73-78
     doi.org/10.1002/wcms.81
  4. Izsak,R.; Neese,F.; Klopper,W.
     Robust fitting techniques in the chain of spheres approximation to the Fock exchange: The role of the complementary space
     J. Chem. Phys., 2013 139 
     doi.org/10.1063/1.4819264
  5. Neese,F.
     Software update: the ORCA program system, version 4.0
     WIRES Comput. Molec. Sci., 2018 8(1)1-6
     doi.org/10.1002/wcms.1327
  6. Neese,F.; Wennmohs,F.; Becker,U.; Riplinger,C.
     The ORCA quantum chemistry program package
     J. Chem. Phys., 2020 152 Art. No. L224108
     doi.org/10.1063/5.0004608

List of optional additional citations

  1. Neese,F.
     Approximate second-order SCF convergence for spin unrestricted wavefunctions
     Chem. Phys. Lett., 2000 325(1-3)93-98
     doi.org/10.1016/s0009-2614(00)00662-x

Timings for individual modules:

Sum of individual times          ...       29.633 sec (=   0.494 min)
Startup calculation              ...        0.641 sec (=   0.011 min)   2.2 %
SCF iterations                   ...       28.955 sec (=   0.483 min)  97.7 %
Property calculations            ...        0.037 sec (=   0.001 min)   0.1 %
                             ****ORCA TERMINATED NORMALLY****
TOTAL RUN TIME: 0 days 0 hours 0 minutes 29 seconds 680 msec
