8
 energy: -229.014092093572 gnorm: 0.037430997109 xtb: 6.7.1 (41059b4)
C            1.75504642167771        0.18789709278326       -0.00003181650001
O            0.48233505561374       -0.42344461028764        0.00004919880002
C           -0.60858924496968        0.32709275214494        0.00001692790001
O           -1.71285854715901       -0.11596828305139       -0.00003789390002
H            2.29555303901722       -0.13568723976013       -0.89096057079481
H            2.29690680631782       -0.13871899466147        0.88894982289392
H            1.66999607224002        1.27874208726664        0.00186311430083
H           -0.39129766617339        1.42124170272979        0.00014560460006
8
 energy: -229.014922848589 gnorm: 0.017479694606 xtb: 6.7.1 (41059b4)
C            1.75951327032880        0.18733861712751       -0.00005013781666
O            0.47929121934588       -0.43761523365384        0.00005492033644
C           -0.61568305979288        0.33078248098158        0.00008645884845
O           -1.72726022376760       -0.11426149769370       -0.00008349953369
H            2.30234599602426       -0.13171603596325       -0.89313603139475
H            2.30369114646808       -0.13472126739068        0.89111314005893
H            1.67366721429364        1.28046066800129        0.00186551153222
H           -0.38847360941664        1.42088678151470        0.00014401304466
8
 energy: -229.015158266725 gnorm: 0.005299823595 xtb: 6.7.1 (41059b4)
C            1.76267036835378        0.18788265796939       -0.00006578704245
O            0.47753304740751       -0.45115382005178        0.00002656782281
C           -0.61900687623880        0.33443334218914       -0.00021799233315
O           -1.73147827766221       -0.11038372093809       -0.00000642964032
H            2.30481282529761       -0.12840512120753       -0.89513670145648
H            2.30609238673308       -0.13123014746536        0.89320512268357
H            1.66789330031243        1.28094769072189        0.00175530436349
H           -0.38142481854965        1.41906366691924        0.00043428339253
8
 energy: -229.015172241280 gnorm: 0.001656684497 xtb: 6.7.1 (41059b4)
C            1.76322730793269        0.18831137106900       -0.00004772875946
O            0.47726098946198       -0.45378064134158        0.00012901314133
C           -0.61950917797170        0.33520732006857        0.00104454500174
O           -1.73073796300394       -0.10932920117524       -0.00046402909463
H            2.30446618537632       -0.12736384316095       -0.89537486771429
H            2.30604662669383       -0.13067001886099        0.89311920912822
H            1.66460328516571        1.28043319684555        0.00208259737231
H           -0.37826529569948        1.41834637152568       -0.00049437723083
8
 energy: -229.015153887818 gnorm: 0.003521578806 xtb: 6.7.1 (41059b4)
C            1.76344416917291        0.18875464709543       -0.00014267366924
O            0.47711023679987       -0.45508812355594       -0.00038666686234
C           -0.61990472498770        0.33559174863383       -0.00537495258561
O           -1.72979818429076       -0.10878320406994        0.00177148310679
H            2.30472130543110       -0.12808300934227       -0.89442237481195
H            2.30482851792304       -0.12881230195038        0.89384451903604
H            1.66176740374200        1.27987053775891        0.00033114498081
H           -0.37507678753468        1.41770430547038        0.00437390235136
8
 energy: -229.015171507691 gnorm: 0.001514058733 xtb: 6.7.1 (41059b4)
C            1.76326690163887        0.18865130769310       -0.00009009905558
O            0.47718781313472       -0.45428464206054       -0.00009967064629
C           -0.61978994977751        0.33536117499989       -0.00164323697914
O           -1.72999581025567       -0.10912306446563        0.00046790954963
H            2.30431856557888       -0.12756558319346       -0.89487163429090
H            2.30526762184903       -0.12977257766266        0.89333013451659
H            1.66267125592254        1.28000578098596        0.00133303062168
H           -0.37583445015364        1.41788218043782        0.00156793607588
8
 energy: -229.015173204657 gnorm: 0.001228057520 xtb: 6.7.1 (41059b4)
C            1.76289552166193        0.18840340496246       -0.00003274077845
O            0.47721609302666       -0.45341926451042        0.00009026622462
C           -0.61944483967433        0.33508698723743        0.00077973697278
O           -1.73043342241591       -0.10954624362706       -0.00004900351122
H            2.30417412473855       -0.12708783477135       -0.89522743556625
H            2.30563607204495       -0.13071129871375        0.89294364142824
H            1.66404205477084        1.28027397034990        0.00230713677008
H           -0.37699364362593        1.41815483700794       -0.00081724375646
8
 energy: -229.015174223792 gnorm: 0.000118980229 xtb: 6.7.1 (41059b4)
C            1.76307688491544        0.18852320136499       -0.00002830430373
O            0.47720311662439       -0.45385854760962        0.00003502348340
C           -0.61969115625648        0.33522736917359        0.00001142773117
O           -1.73026752251200       -0.10935904306798        0.00021359590630
H            2.30417644982329       -0.12710707224855       -0.89516022152388
H            2.30553912386218       -0.13043880399808        0.89306966403880
H            1.66339335355772        1.28016651897904        0.00211797423838
H           -0.37633829180755        1.41800094161268       -0.00026479980895
8
 energy: -229.015174223792 gnorm: 0.000118980229 xtb: 6.7.1 (41059b4)
C            1.76307688491544        0.18852320136499       -0.00002830430373
O            0.47720311662439       -0.45385854760962        0.00003502348340
C           -0.61969115625648        0.33522736917359        0.00001142773117
O           -1.73026752251200       -0.10935904306798        0.00021359590630
H            2.30417644982329       -0.12710707224855       -0.89516022152388
H            2.30553912386218       -0.13043880399808        0.89306966403880
H            1.66339335355772        1.28016651897904        0.00211797423838
H           -0.37633829180755        1.41800094161268       -0.00026479980895
