22
 energy: -463.183944558524 gnorm: 0.018106883621 xtb: 6.7.1 (41059b4)
C            2.40798789026704        1.14898001510914        0.00002962230001
C            1.26825538926200        1.91195517524724        0.00002281920001
C            0.00000540310000        1.29213110547258        0.00000469860000
C           -1.26824751436199        1.91195925924724       -0.00002052680001
C           -2.40798245216704        1.14899003300915       -0.00004741820002
C           -2.37943664935439       -0.26055727241546       -0.00000469600000
C           -1.16683049981705       -0.89074326539471        0.00002114350001
C           -0.00000487790000       -0.10976987554864        0.00000392430000
C            1.16682510311705       -0.89074315229471       -0.00001508040001
C            2.37943532735439       -0.26056818641546        0.00000521870000
C            0.77526110474354       -2.34259802123807       -0.00011978110005
C           -0.77526928384354       -2.34259569373807        0.00011749490005
H            3.37153893849402        1.63918875732637        0.00005248450002
H            1.33340124439087        2.99062563172523        0.00004286410002
H           -1.33337599689085        2.99063053522523       -0.00001496240001
H           -3.37152874939401        1.63920798762638       -0.00003958230002
H           -3.30793292266583       -0.81305167076028        0.00001450110001
H            3.30792968186583       -0.81306218216029       -0.00001611290001
H            1.17401660372024       -2.85098736346335       -0.88013932929001
H            1.17432396462037       -2.85126758146347        0.87959186748977
H           -1.17433230472038       -2.85126594626347       -0.87959541198977
H           -1.17402783182024       -2.85098978606335        0.88013443839001
22
 energy: -463.184785228849 gnorm: 0.005068076084 xtb: 6.7.1 (41059b4)
C            2.41629255327126        1.15584214523451        0.00003104186488
C            1.27051336605348        1.92144449249331        0.00002428767800
C            0.00000428529665        1.29664471829296        0.00000490179821
C           -1.27050457731463        1.92144995976515       -0.00001283838502
C           -2.41628645060443        1.15585272377046       -0.00002259000615
C           -2.38647416613601       -0.26014558192986       -0.00000480869621
C           -1.16861574843483       -0.89313256266093        0.00001648853987
C           -0.00000137391819       -0.11147505885363        0.00000296259171
C            1.16861252183070       -0.89313562782964       -0.00001563453819
C            2.38647394098753       -0.26015657952043        0.00000233753413
C            0.77957463731437       -2.35170543420898       -0.00011986335753
C           -0.77958305219838       -2.35170226464237        0.00011802064414
H            3.38181593316016        1.65041886564627        0.00004980749871
H            1.33624818268989        3.00440833821457        0.00003690538069
H           -1.33622858500310        3.00441451765646       -0.00002030686315
H           -3.38180658816093        1.65043570229584       -0.00004852035747
H           -3.31802210836839       -0.81619285064780        0.00000508452469
H            3.31801999246041       -0.81620593913099       -0.00001217115547
H            1.18165800394562       -2.86526138592207       -0.87896666298295
H            1.18196708385779       -2.86553713797536        0.87841989547868
H           -1.18197715605412       -2.86553160145789       -0.87842279342050
H           -1.18166897878313       -2.86526093735972        0.87896265487285
22
 energy: -463.184863744647 gnorm: 0.001779052009 xtb: 6.7.1 (41059b4)
C            2.41910090644092        1.15840993778155        0.00002918588030
C            1.27097529297583        1.92408590573573        0.00002270508131
C            0.00000384478152        1.29784608824446        0.00000503627853
C           -1.27096559261913        1.92409178420344       -0.00001187441039
C           -2.41909422838027        1.15842057067311       -0.00002463068132
C           -2.38906704468092       -0.25922441146673       -0.00000228092359
C           -1.16974290354648       -0.89339909829779        0.00001670403736
C           -0.00000001535268       -0.11253742514400        0.00000259657600
C            1.16974040754090       -0.89340392099481       -0.00001531386316
C            2.38906750269930       -0.25923514713952        0.00000326191923
C            0.78149815334595       -2.35504192213031       -0.00011927239585
C           -0.78150691723452       -2.35503812937363        0.00011599848540
H            3.38463390834997        1.65546898065489        0.00004820937670
H            1.33713562366301        3.00827554002216        0.00003355071224
H           -1.33711916050188        3.00828190128813       -0.00001939891122
H           -3.38462474184317        1.65548445012909       -0.00004222452150
H           -3.32138740849046       -0.81638945492361        0.00000456831124
H            3.32138567324777       -0.81640398678810       -0.00000972052639
H            1.18349777107541       -2.87092299607817       -0.87889913755617
H            1.18380194181057       -2.87119352161810        0.87835883371414
H           -1.18381291624167       -2.87118649450827       -0.87836299685997
H           -1.18350833808054       -2.87092016402020        0.87889441830590
22
 energy: -463.184865802189 gnorm: 0.000488178583 xtb: 6.7.1 (41059b4)
C            2.41956557647310        1.15887070786019        0.00002811492749
C            1.27078360980923        1.92454069329321        0.00002057044626
C            0.00000377642969        1.29777606786232        0.00000421051511
C           -1.27077326093119        1.92454637933742       -0.00001066497353
C           -2.41955854826771        1.15888137013127       -0.00002117695182
C           -2.38969182317067       -0.25908450389937       -0.00000222150583
C           -1.17011073505903       -0.89350255699796        0.00001635138613
C            0.00000078656166       -0.11352749628663        0.00000214777069
C            1.17010875756617       -0.89350779676214       -0.00001583513409
C            2.38969263583126       -0.25909506547758        0.00000281332489
C            0.78225090943768       -2.35589602095902       -0.00011666745011
C           -0.78225986562826       -2.35589261261148        0.00011309072122
H            3.38459755654688        1.65695033811076        0.00004537653215
H            1.33729047511447        3.00876308550577        0.00003040434728
H           -1.33727528735805        3.00876907633417       -0.00001676691219
H           -3.38458835862116        1.65696520295550       -0.00003953527557
H           -3.32197322230452       -0.81619994125698        0.00000683474314
H            3.32197152668584       -0.81621478206127       -0.00000916945056
H            1.18359991417018       -2.87178919041327       -0.87908060436793
H            1.18389688294279       -2.87205300679850        0.87855317895419
H           -1.18390842377733       -2.87204533878970       -0.87855803830079
H           -1.18361111726075       -2.87178612955656        0.87907581269671
22
 energy: -463.184865802189 gnorm: 0.000488178583 xtb: 6.7.1 (41059b4)
C            2.41956557647310        1.15887070786019        0.00002811492749
C            1.27078360980923        1.92454069329321        0.00002057044626
C            0.00000377642969        1.29777606786232        0.00000421051511
C           -1.27077326093119        1.92454637933742       -0.00001066497353
C           -2.41955854826771        1.15888137013127       -0.00002117695182
C           -2.38969182317067       -0.25908450389937       -0.00000222150583
C           -1.17011073505903       -0.89350255699796        0.00001635138613
C            0.00000078656166       -0.11352749628663        0.00000214777069
C            1.17010875756617       -0.89350779676214       -0.00001583513409
C            2.38969263583126       -0.25909506547758        0.00000281332489
C            0.78225090943768       -2.35589602095902       -0.00011666745011
C           -0.78225986562826       -2.35589261261148        0.00011309072122
H            3.38459755654688        1.65695033811076        0.00004537653215
H            1.33729047511447        3.00876308550577        0.00003040434728
H           -1.33727528735805        3.00876907633417       -0.00001676691219
H           -3.38458835862116        1.65696520295550       -0.00003953527557
H           -3.32197322230452       -0.81619994125698        0.00000683474314
H            3.32197152668584       -0.81621478206127       -0.00000916945056
H            1.18359991417018       -2.87178919041327       -0.87908060436793
H            1.18389688294279       -2.87205300679850        0.87855317895419
H           -1.18390842377733       -2.87204533878970       -0.87855803830079
H           -1.18361111726075       -2.87178612955656        0.87907581269671
