      -----------------------------------------------------------      
     |                   =====================                   |     
     |                           x T B                           |     
     |                   =====================                   |     
     |                         S. Grimme                         |     
     |          Mulliken Center for Theoretical Chemistry        |     
     |                    University of Bonn                     |     
      -----------------------------------------------------------      

   * xtb version 6.7.1 (41059b4) compiled by 'michael@archlinux' on 2025-03-24

   xtb is free software: you can redistribute it and/or modify it under
   the terms of the GNU Lesser General Public License as published by
   the Free Software Foundation, either version 3 of the License, or
   (at your option) any later version.
   
   xtb is distributed in the hope that it will be useful,
   but WITHOUT ANY WARRANTY; without even the implied warranty of
   MERCHANTABILITY or FITNESS FOR A PARTICULAR PURPOSE.  See the
   GNU Lesser General Public License for more details.
   
   Cite this work as:
   * C. Bannwarth, E. Caldeweyher, S. Ehlert, A. Hansen, P. Pracht,
     J. Seibert, S. Spicher, S. Grimme, WIREs Comput. Mol. Sci., 2020, 11,
     e01493. DOI: 10.1002/wcms.1493
   
   for GFN2-xTB:
   * C. Bannwarth, S. Ehlert and S. Grimme., J. Chem. Theory Comput., 2019,
     15, 1652-1671. DOI: 10.1021/acs.jctc.8b01176
   for GFN1-xTB:
   * S. Grimme, C. Bannwarth, P. Shushkov, J. Chem. Theory Comput., 2017,
     13, 1989-2009. DOI: 10.1021/acs.jctc.7b00118
   for GFN0-xTB:
   * P. Pracht, E. Caldeweyher, S. Ehlert, S. Grimme, ChemRxiv, 2019, preprint.
     DOI: 10.26434/chemrxiv.8326202.v1
   for GFN-FF:
   * S. Spicher and S. Grimme, Angew. Chem. Int. Ed., 2020, 59, 15665-15673.
     DOI: 10.1002/anie.202004239
   
   for ALPB and GBSA implicit solvation:
   * S. Ehlert, M. Stahn, S. Spicher, S. Grimme, J. Chem. Theory Comput.,
     2021, 17, 4250-4261. DOI: 10.1021/acs.jctc.1c00471
   
   for ddCOSMO and CPCM-X implicit solvation:
   * M. Stahn, S. Ehlert, S. Grimme, J. Phys. Chem. A,
     2023, XX, XXXX-XXXX. DOI: 10.1021/acs.jpca.3c04382
   
   for DFT-D4:
   * E. Caldeweyher, C. Bannwarth and S. Grimme, J. Chem. Phys., 2017,
     147, 034112. DOI: 10.1063/1.4993215
   * E. Caldeweyher, S. Ehlert, A. Hansen, H. Neugebauer, S. Spicher,
     C. Bannwarth and S. Grimme, J. Chem. Phys., 2019, 150, 154122.
     DOI: 10.1063/1.5090222
   * E. Caldeweyher, J.-M. Mewes, S. Ehlert and S. Grimme, Phys. Chem. Chem. Phys.
     2020, 22, 8499-8512. DOI: 10.1039/D0CP00502A
   
   for sTDA-xTB:
   * S. Grimme and C. Bannwarth, J. Chem. Phys., 2016, 145, 054103.
     DOI: 10.1063/1.4959605
   
   in the mass-spec context:
   * V. Asgeirsson, C. Bauer and S. Grimme, Chem. Sci., 2017, 8, 4879.
     DOI: 10.1039/c7sc00601b
   * J. Koopman and S. Grimme, ACS Omega 2019, 4, 12, 15120-15133.
     DOI: 10.1021/acsomega.9b02011
   
   for metadynamics refer to:
   * S. Grimme, J. Chem. Theory Comput., 2019, 155, 2847-2862
     DOI: 10.1021/acs.jctc.9b00143
   
   for SPH calculations refer to:
   * S. Spicher and S. Grimme, J. Chem. Theory Comput., 2021, 17, 1701-1714
     DOI: 10.1021/acs.jctc.0c01306
   
   for ONIOM refer to:
   * C. Plett, A. Katbashev, S. Ehlert, S. Grimme, M. Bursch,
     Phys. Chem. Chem. Phys., 2023, 25, 17860-17868. DOI: 10.1039/D3CP02178E
   
   for DIPRO refer to:
   * J. Kohn, N. Gildemeister, S. Grimme, D. Fazzi, A. Hansen,
     J. Chem. Phys., 2023, just accepted.
   
   for PTB refer to:
   * S. Grimme, M. Mueller, A. Hansen, J. Chem. Phys., 2023, 158, 124111.
     DOI: 10.1063/5.0137838
   
   with help from (in alphabetical order)
   P. Atkinson, C. Bannwarth, F. Bohle, G. Brandenburg, E. Caldeweyher
   M. Checinski, S. Dohm, S. Ehlert, S. Ehrlich, I. Gerasimov, C. Hölzer
   A. Katbashev, J. Kohn, J. Koopman, C. Lavigne, S. Lehtola, F. März, M. Müller,
   F. Musil, H. Neugebauer, J. Pisarek, C. Plett, P. Pracht, F. Pultar,
   J. Seibert, P. Shushkov, S. Spicher, M. Stahn, M. Steiner, T. Strunk,
   J. Stückrath, T. Rose, and J. Unsleber
   
 * started run on 2025/04/09 at 02:48:53.967     
   ID    Z sym.   atoms
    1    6 C      1, 2, 4-6
    2    8 O      3
    3    1 H      7-14

           -------------------------------------------------
          |                Calculation Setup                |
           -------------------------------------------------

          program call               : /usr/bin/xtb xtb_opt.coord --opt normal --orca -I xtb_opt-xcontrol-inp
          coordinate file            : xtb_opt.coord
          omp threads                :                    16

           -------------------------------------------------
          |                   Orca driver                   |
           -------------------------------------------------
orca executable           : /home/michael/Documents/CHEM4561/orca_avx2/orca
orca input file           : xtb_opt.inp
orca input line           : 
orca parallel             : true
orca number of threads    : 16
                         * ORCA takes the control...
  ------------------------------------------------------------------------

                                 *****************
                                 * O   R   C   A *
                                 *****************

                                            #,                                       
                                            ###                                      
                                            ####                                     
                                            #####                                    
                                            ######                                   
                                           ########,                                 
                                     ,,################,,,,,                         
                               ,,#################################,,                 
                          ,,##########################################,,             
                       ,#########################################, ''#####,          
                    ,#############################################,,   '####,        
                  ,##################################################,,,,####,       
                ,###########''''           ''''###############################       
              ,#####''   ,,,,##########,,,,          '''####'''          '####       
            ,##' ,,,,###########################,,,                        '##       
           ' ,,###''''                  '''############,,,                           
         ,,##''                                '''############,,,,        ,,,,,,###''
      ,#''                                            '''#######################'''  
     '                                                          ''''####''''         
             ,#######,   #######,   ,#######,      ##                                
            ,#'     '#,  ##    ##  ,#'     '#,    #''#        ,####,   ,####,        
            ##       ##  ##   ,#'  ##            #'  '#       #'       #'  '#        
            ##       ##  #######   ##           ,######,      #####,   #    #        
            '#,     ,#'  ##    ##  '#,     ,#' ,#      #,     #,   #   #,  ,#        
             '#######'   ##     ##  '#######'  #'      '#     '####' # '####'        



                #########################################################
                #                        -***-                          #
                #          Department of theory and spectroscopy        #
                #                                                       #
                #                      Frank Neese                      #
                #                                                       #
                #     Directorship, Architecture, Infrastructure        #
                #                    SHARK, DRIVERS                     #
                #        Core code/Algorithms in most modules           #
                #                                                       #
                #        Max Planck Institute fuer Kohlenforschung      #
                #                Kaiser Wilhelm Platz 1                 #
                #                 D-45470 Muelheim/Ruhr                 #
                #                      Germany                          #
                #                                                       #
                #                  All rights reserved                  #
                #                        -***-                          #
                #########################################################


                         Program Version 6.0.1  -  RELEASE   -


 With contributions from (in alphabetic order):
[Max-Planck-Institut fuer Kohlenforschung]                               
  Daniel Aravena         : Magnetic Suceptibility                        
  Michael Atanasov       : Ab Initio Ligand Field Theory (pilot matlab implementation)
  Alexander A. Auer      : GIAO ZORA, VPT2 properties, NMR spectrum      
  Ute Becker             : All parallelization in ORCA, NUMFREQ, NUMCALC 
  Giovanni Bistoni       : ED, misc. LED, open-shell LED, HFLD           
  Martin Brehm           : Molecular dynamics                            
  Dmytro Bykov           : pre 5.0 version of the SCF Hessian            
  Marcos Casanova-Páez   : Triplet and SCS-CIS(D). UHF-(DLPNO)-IP/EA/STEOM-CCSD. UHF-CVS-IP/STEOM-CCSD   
  Vijay G. Chilkuri      : MRCI spin determinant printing, contributions to CSF-ICE 
  Pauline Colinet        : FMM embedding                                 
  Dipayan Datta          : RHF DLPNO-CCSD density                        
  Achintya Kumar Dutta   : EOM-CC, STEOM-CC                              
  Nicolas Foglia         : Exact transition moments, OPA infrastructure, MCD improvements    
  Dmitry Ganyushin       : Spin-Orbit,Spin-Spin,Magnetic field MRCI      
  Miquel Garcia-Rates    : C-PCM and meta-GGA Hessian, CCSD/C-PCM, Gaussian charge scheme 
  Tiago L. C. Gouveia    : GS-ROHF, GS-ROCIS                             
  Yang Guo               : DLPNO-NEVPT2, F12-NEVPT2, CIM, IAO-localization        
  Andreas Hansen         : Spin unrestricted coupled pair/coupled cluster methods 
  Ingolf Harden          : AUTO-CI MPn and infrastructure                
  Benjamin Helmich-Paris : MC-RPA, TRAH-(SCF,CASSCF), AVAS, COSX integrals, SCF dyn. polar. 
  Lee Huntington         : MR-EOM, pCC                                   
  Robert Izsak           : Overlap fitted RIJCOSX, COSX-SCS-MP3, EOM     
  Riya Kayal             : Wick's Theorem for AUTO-CI, AUTO-CI UHF-CCSDT 
  Emily Kempfer          : AUTO-CI, RHF CISDT and CCSDT                  
  Christian Kollmar      : KDIIS, OOCD, Brueckner-CCSD(T), CCSD density, CASPT2, CASPT2-K, improved NEVPT2 
  Axel Koslowski         : Symmetry handling                             
  Simone Kossmann        : meta-GGA functionals, TD-DFT gradient, OOMP2, (MP2 Hessian; deprecated post 5.0) 
  Lucas Lang             : DCDCAS                                        
  Marvin Lechner         : AUTO-CI (C++ implementation), FIC-MRCC        
  Spencer Leger          : CASSCF response                               
  Dagmar Lenk            : GEPOL surface, SMD, ORCA-2-JSON               
  Dimitrios Liakos       : Extrapolation schemes; Compound Job, initial MDCI parallelization 
  Dimitrios Manganas     : Further ROCIS development; embedding schemes. LFT, Crystal Embedding 
  Dimitrios Pantazis     : SARC Basis sets                               
  Anastasios Papadopoulos: AUTO-CI, single reference methods and gradients 
  Taras Petrenko         : pre 6.0 DFT Hessian and TD-DFT gradient, (ASA, deprecated), ECA, 1-Electron XAS/XES, NRVS 
  Peter Pinski           : DLPNO-MP2, DLPNO-MP2 Gradient                 
  Christoph Reimann      : Effective Core Potentials                     
  Marius Retegan         : Local ZFS, SOC                                
  Christoph Riplinger    : Optimizer, TS searches, QM/MM, DLPNO-CCSD(T), (RO)-DLPNO pert. Triples 
  Michael Roemelt        : Original ROCIS implementation                 
  Masaaki Saitow         : Open-shell DLPNO-CCSD energy and density      
  Barbara Sandhoefer     : DKH picture change effects                    
  Kantharuban Sivalingam : CASSCF convergence/infrastructure, NEVPT2 and variants, FIC-MRCI 
  Bernardo de Souza      : ESD, SOC TD-DFT                               
  Georgi L. Stoychev     : AutoAux, RI-MP2 NMR, DLPNO-MP2 response, X2C  
  Van Anh Tran           : RI-MP2 g-tensors                              
  Willem Van den Heuvel  : Paramagnetic NMR                              
  Zikuan Wang            : NOTCH, Electric field optimization            
  Frank Wennmohs         : Technical directorship and infrastructure     
  Hang Xu                : AUTO-CI-Response properties                   
                                                                         
[FACCTs GmbH]                                                            
  Markus Bursch, Miquel Garcia-Rates, Christoph Riplinger, Bernardo de Souza, Georgi L. Stoychev 
                                                                 
  APM, Basis sets (HGBS, AHGBS, def-TZVP (Ac-Lr), def2-XVPD (La-Lu)), CI-OPT, improved COSX, DLPNO-Multilevel,           
  DOCKER, DRACO, updates on ESD, GOAT, IRC, LR-CPCM, MBIS, meta-GGA TD-DFT gradient, ML-optimized integration grids, 
  MM, NACMEs, nearIR, NEB, NEB-TS, NL-DFT gradient (VV10), 2- and 3-layer-ONIOM, interface openCOSMO-RS, QMMM,   
  Crystal-QMMM, SF, symmetry and pop. for TD-DFT, r2SCAN hybrids, SOLVATOR                                   
                                                                         
[Other institutions]                                                     
  V. Asgeirsson          : NEB                                           
  Christoph Bannwarth    : sTDA-DFT, sTD-DFT, PBEh-3c, B97-3c, D3        
  Sebastian Ehlert       : rSCAN, r2SCAN, r2SCAN-3c, D4, dhf basis sets  
  Marvin Friede          : D4 for Fr, Ra, Ac-Lr                          
  Lars Goerigk           : TD-DFT with DH, B97 family of functionals     
  Stefan Grimme          : VdW corrections, initial TS optimization, DFT functionals, gCP, sTDA/sTD-DF 
  Waldemar Hujo          : DFT-NL                                        
  H. Jonsson             : NEB                                           
  Holger Kruse           : gCP                                           
  Marcel Mueller         : wB97X-3c, vDZP basis set                      
  Hagen Neugebauer       : wr2SCAN                                       
  Tobias Risthaus        : range-separated hybrid DFT                    
  Lukas Wittmann         : regularized MP2, r2SCAN double-hybrids, wr2SCAN        
                                                                         
We gratefully acknowledge several colleagues who have allowed us to      
interface, adapt or use parts of their codes:                            
  Ed Valeev, F. Pavosevic, A. Kumar             : LibInt (2-el integral package), F12 methods 
  Garnet Chan, S. Sharma, J. Yang, R. Olivares  : DMRG                   
  Ulf Ekstrom                                   : XCFun DFT Library      
  Mihaly Kallay                                 : mrcc  (arbitrary order and MRCC methods)
  Frank Weinhold                                : gennbo (NPA and NBO analysis)           
  Simon Mueller                                 : openCOSMO-RS                            
  Christopher J. Cramer and Donald G. Truhlar   : smd solvation model                     
  S Lehtola, MJT Oliveira, MAL Marques          : LibXC Library                           
  Liviu Ungur et al                             : ANISO software                          


 Your calculation uses the libint2 library for the computation of 2-el integrals
 For citations please refer to: http://libint.valeyev.net

 Your ORCA version has been built with support for libXC version: 6.2.2
 For citations please refer to: https://libxc.gitlab.io

 This ORCA versions uses:
   CBLAS   interface :  Fast vector & matrix operations
   LAPACKE interface :  Fast linear algebra routines
   SCALAPACK package :  Parallel linear algebra routines
   Shared memory     :  Shared parallel matrices
   BLAS/LAPACK       :  OpenBLAS 0.3.27  USE64BITINT DYNAMIC_ARCH NO_AFFINITY Zen SINGLE_THREADED
        Core in use  :  Zen
   Copyright (c) 2011-2014, The OpenBLAS Project




***************************************
The coordinates will be read from file: xtb_opt.xyz
***************************************


Your calculation utilizes the geometrical counterpoise correction gCP
Please cite in your paper:
H.Kruse, S. Grimme J.Chem.Phys., 136, (2012), 154101 
   

Your calculation utilizes the atom-pairwise dispersion correction
based on EEQ partial charges (D4)


================================================================================

----- Orbital basis set information -----
Your calculation utilizes the basis: def2-mTZVPP
   Stefan Grimme, Andreas Hansen, Sebastian Ehlert, and Jan-Michael Mewes 
   J. Chem. Phys. 154, 064103 (2021). DOI: 10.1063/5.0040021

----- AuxJ basis set information -----
Your calculation utilizes the auxiliary basis: def2/J
   F. Weigend, Phys. Chem. Chem. Phys. 8, 1057 (2006).

================================================================================
                                        WARNINGS
                       Please study these warnings very carefully!
================================================================================

WARNING: Old DensityContainer found on disk!
         Will remove this file - 
         If you want to keep old densities, please start your calculation with a different basename. 



WARNING: SCAN, rSCAN, or r2SCAN functional requested.
  ===> : libXC variant has now been activated.



================================================================================
                                       INPUT FILE
================================================================================
NAME = xtb_opt.inp
|  1> ! r2scan-3c def2/J RI DEFGRID2 scfconv7 ENGRAD tightSCF miniprint
|  2> * xyzfile 0 1 xtb_opt.xyz
|  3> 
|  4>                          ****END OF INPUT****
================================================================================

                     *******************************
                     * Energy+Gradient Calculation *
                     *******************************

---------------------------------
CARTESIAN COORDINATES (ANGSTROEM)
---------------------------------
  C      2.016830    0.773163   -0.000065
  C      0.784873   -0.100098   -0.000095
  O      0.838869   -1.307265    0.000314
  C     -0.497918    0.645091   -0.000535
  C     -1.665481    0.030871   -0.741300
  C     -1.665237    0.032055    0.741621
  H      2.012337    1.410499   -0.882106
  H      2.011390    1.412046    0.880750
  H      2.912512    0.158122    0.000880
  H     -0.411973    1.723458   -0.001280
  H     -2.328688    0.697839   -1.270474
  H     -1.473071   -0.905251   -1.243040
  H     -2.328250    0.699877    1.269938
  H     -1.472631   -0.903230    1.244787

----------------------------
CARTESIAN COORDINATES (A.U.)
----------------------------
  NO LB      ZA    FRAG     MASS         X           Y           Z
   0 C     6.0000    0    12.011    3.811257    1.461066   -0.000122
   1 C     6.0000    0    12.011    1.483195   -0.189158   -0.000179
   2 O     8.0000    0    15.999    1.585232   -2.470373    0.000594
   3 C     6.0000    0    12.011   -0.940929    1.219046   -0.001011
   4 C     6.0000    0    12.011   -3.147304    0.058338   -1.400853
   5 C     6.0000    0    12.011   -3.146842    0.060575    1.401461
   6 H     1.0000    0     1.008    3.802766    2.665458   -1.666938
   7 H     1.0000    0     1.008    3.800977    2.668381    1.664377
   8 H     1.0000    0     1.008    5.503849    0.298807    0.001664
   9 H     1.0000    0     1.008   -0.778516    3.256863   -0.002418
  10 H     1.0000    0     1.008   -4.400582    1.318724   -2.400848
  11 H     1.0000    0     1.008   -2.783701   -1.710677   -2.349006
  12 H     1.0000    0     1.008   -4.399755    1.322575    2.399836
  13 H     1.0000    0     1.008   -2.782870   -1.706858    2.352307

------------------------------------------------------------------------------
                   ___                                                        
                  /   \      - P O W E R E D   B Y -                         
                 /     \                                                     
                 |  |  |   _    _      __       _____    __    __             
                 |  |  |  | |  | |    /  \     |  _  \  |  |  /  |          
                  \  \/   | |  | |   /    \    | | | |  |  | /  /          
                 / \  \   | |__| |  /  /\  \   | |_| |  |  |/  /          
                |  |  |   |  __  | /  /__\  \  |    /   |      \           
                |  |  |   | |  | | |   __   |  |    \   |  |\   \          
                \     /   | |  | | |  |  |  |  | |\  \  |  | \   \       
                 \___/    |_|  |_| |__|  |__|  |_| \__\ |__|  \__/        
                                                                              
                      - O R C A' S   B I G   F R I E N D -                    
                                      &                                       
                       - I N T E G R A L  F E E D E R -                       
                                                                              
 v1 FN, 2020, v2 2021, v3 2022-2024                                           
------------------------------------------------------------------------------


----------------------
SHARK INTEGRAL PACKAGE
----------------------

Number of atoms                             ...     14
Number of basis functions                   ...    159
Number of shells                            ...     79
Maximum angular momentum                    ...      2
Integral batch strategy                     ... SHARK/LIBINT Hybrid
RI-J (if used) integral strategy            ... SPLIT-RIJ (Revised 2003 algorithm where possible)
Printlevel                                  ...      1
Contraction scheme used                     ... SEGMENTED contraction
Prescreening option                         ... SCHWARTZ
   Thresh                                   ... 3.000e-11
   Tcut                                     ... 1.000e-12
   Tpresel                                  ... 1.000e-12 
Coulomb Range Separation                    ... NOT USED
Exchange Range Separation                   ... NOT USED
Multipole approximations                    ... NOT USED
Finite Nucleus Model                        ... NOT USED
CABS basis                                  ... NOT available
Auxiliary Coulomb fitting basis             ... AVAILABLE
   # of basis functions in Aux-J            ...    382
   # of shells in Aux-J                     ...    130
   Maximum angular momentum in Aux-J        ...      4
Auxiliary J/K fitting basis                 ... NOT available
Auxiliary Correlation fitting basis         ... NOT available
Auxiliary 'external' fitting basis          ... NOT available

Checking pre-screening integrals            ... done (  0.0 sec) Dimension = 79
Check shell pair data                       ... done (  0.0 sec)
Shell pair information
Shell pair cut-off parameter TPreSel        ...   1.0e-12
Total number of shell pairs                 ...      3160
Shell pairs after pre-screening             ...      2990
Total number of primitive shell pairs       ...     11331
Primitive shell pairs kept                  ...      8040
          la=0 lb=0:   1005 shell pairs
          la=1 lb=0:   1132 shell pairs
          la=1 lb=1:    333 shell pairs
          la=2 lb=0:    312 shell pairs
          la=2 lb=1:    180 shell pairs
          la=2 lb=2:     28 shell pairs

Calculating one electron integrals          ... done (  0.0 sec)
Calculating RI/J V-Matrix + Cholesky decomp.... done (  0.0 sec)
Calculating Nuclear repulsion               ... done (  0.0 sec) ENN=    231.228548226289 Eh

Diagonalization of the overlap matrix:
Smallest eigenvalue                        ... 2.199e-04
Time for diagonalization                   ...    0.002 sec
Threshold for overlap eigenvalues          ... 1.000e-07
Number of eigenvalues below threshold      ... 0
Time for construction of square roots      ...    0.001 sec
Total time needed                          ...    0.003 sec

-------------------
DFT GRID GENERATION
-------------------

General Integration Accuracy     IntAcc      ... 4.388
Radial Grid Type                 RadialGrid  ... OptM3 with GC (2021)
Angular Grid (max. ang.)         AngularGrid ... 4 (Lebedev-302)
Angular grid pruning method      GridPruning ... 4 (adaptive)
Weight generation scheme         WeightScheme... mBecke (2022)
Basis function cutoff            BFCut       ... 1.0000e-11
Integration weight cutoff        WCut        ... 1.0000e-14
Partially contracted basis set               ... off
Rotationally invariant grid construction     ... off
Angular grids for H and He will be reduced by one unit
Diffuse basis detected: some atoms will have their outermost
                        angular grid increased by 1.

Total number of grid points                  ...    62277
Total number of batches                      ...      979
Average number of points per batch           ...       63
Average number of grid points per atom       ...     4448
Initializing property integral containers    ... done (  0.0 sec)

SHARK setup successfully completed in   0.4 seconds

Maximum memory used throughout the entire STARTUP-calculation: 28.3 MB
Occupation numbers will be reassigned to an Aufbau configuration
             **** ENERGY FILE WAS UPDATED (xtb_opt.en.tmp) ****
Finished Guess after   0.0 sec
Maximum memory used throughout the entire GUESS-calculation: 11.4 MB
----------------------------------------D-I-I-S--------------------------------------------
Iteration    Energy (Eh)           Delta-E    RMSDP     MaxDP     DIISErr   Damp  Time(sec)
-------------------------------------------------------------------------------------------
               ***  Starting incremental Fock matrix formation  ***
                              *** Initializing SOSCF ***
---------------------------------------S-O-S-C-F--------------------------------------
Iteration    Energy (Eh)           Delta-E    RMSDP     MaxDP     MaxGrad    Time(sec)
--------------------------------------------------------------------------------------
    1    -270.4763306523927895     0.00e+00  3.37e-05  1.88e-03  1.10e-04     0.8
               *** Restarting incremental Fock matrix formation ***
    2    -270.4763298342873554     8.18e-07  8.13e-05  4.69e-03  3.00e-04     0.8
    3    -270.4763204955605147     9.34e-06  6.60e-05  3.88e-03  8.89e-04     0.6
    4    -270.4763313981095507    -1.09e-05  1.98e-06  7.12e-05  1.13e-05     0.6
                  *** Gradient check signals convergence ***

               *****************************************************
               *                     SUCCESS                       *
               *           SCF CONVERGED AFTER   4 CYCLES          *
               *****************************************************

             **** ENERGY FILE WAS UPDATED (xtb_opt.en.tmp) ****

----------------
TOTAL SCF ENERGY
----------------

Total Energy       :       -270.47633139810955 Eh           -7360.03515 eV

Components:
Nuclear Repulsion  :        231.22854822628852 Eh            6292.04868 eV
Electronic Energy  :       -501.70487962439807 Eh          -13652.08383 eV
One Electron Energy:       -823.39440689025639 Eh          -22405.70090 eV
Two Electron Energy:        321.68952726585832 Eh            8753.61706 eV

Virial components:
Potential Energy   :       -539.83927860778249 Eh          -14689.77358 eV
Kinetic Energy     :        269.36294720967294 Eh            7329.73843 eV
Virial Ratio       :          2.00413339770733

DFT components:
N(Alpha)           :       23.000004813953 electrons
N(Beta)            :       23.000004813953 electrons
N(Total)           :       46.000009627907 electrons
E(X)               :      -37.153786082433 Eh       
E(C)               :       -1.465780335706 Eh       
E(XC)              :      -38.619566418139 Eh       

---------------
SCF CONVERGENCE
---------------

  Last Energy change         ...    1.0903e-05  Tolerance :   1.0000e-07
  Last MAX-Density change    ...    7.1208e-05  Tolerance :   1.0000e-07
  Last RMS-Density change    ...    1.9823e-06  Tolerance :   5.0000e-09
  Last DIIS Error            ...    7.8067e-04  Tolerance :   1.0000e-07
  Last Orbital Gradient      ...    1.1293e-05  Tolerance :   1.0000e-04
  Last Orbital Rotation      ...    3.0993e-05  Tolerance :   1.0000e-04


----------------
ORBITAL ENERGIES
----------------

  NO   OCC          E(Eh)            E(eV) 
   0   2.0000     -18.931129      -515.1422 
   1   2.0000     -10.116521      -275.2845 
   2   2.0000     -10.051793      -273.5232 
   3   2.0000     -10.046757      -273.3861 
   4   2.0000     -10.046550      -273.3805 
   5   2.0000     -10.033290      -273.0197 
   6   2.0000      -1.004556       -27.3354 
   7   2.0000      -0.840672       -22.8759 
   8   2.0000      -0.721230       -19.6257 
   9   2.0000      -0.611185       -16.6312 
  10   2.0000      -0.579102       -15.7582 
  11   2.0000      -0.503867       -13.7109 
  12   2.0000      -0.474057       -12.8997 
  13   2.0000      -0.445170       -12.1137 
  14   2.0000      -0.415903       -11.3173 
  15   2.0000      -0.393185       -10.6991 
  16   2.0000      -0.382822       -10.4171 
  17   2.0000      -0.350647        -9.5416 
  18   2.0000      -0.349404        -9.5078 
  19   2.0000      -0.329679        -8.9710 
  20   2.0000      -0.287615        -7.8264 
  21   2.0000      -0.274886        -7.4800 
  22   2.0000      -0.215152        -5.8546 
  23   0.0000      -0.042542        -1.1576 
  24   0.0000       0.075323         2.0496 
  25   0.0000       0.099199         2.6993 
  26   0.0000       0.104758         2.8506 
  27   0.0000       0.109244         2.9727 
  28   0.0000       0.114989         3.1290 
  29   0.0000       0.134905         3.6709 
  30   0.0000       0.153899         4.1878 
  31   0.0000       0.170137         4.6296 
  32   0.0000       0.185090         5.0366 
  33   0.0000       0.187751         5.1090 
*Only the first 10 virtual orbitals were printed.
Total SCF time: 0 days 0 hours 0 min 2 sec 
Finished LeanSCF after   2.9 sec

Maximum memory used throughout the entire LEANSCF-calculation: 17.3 MB


-------------------------------------------------------------------------------
                          DFT DISPERSION CORRECTION                            
                                                                               
                                DFTD4 V3.4.0                                   
-------------------------------------------------------------------------------
-------------------------   ----------------
Dispersion correction           -0.003204921
-------------------------   ----------------

------------------   -----------------
gCP correction             0.005371572
------------------   -----------------

-------------------------   --------------------
FINAL SINGLE POINT ENERGY      -270.474164746259
-------------------------   --------------------

------------------------------------------------------------------------------
                         ORCA SCF GRADIENT CALCULATION
------------------------------------------------------------------------------

Nuc. rep. gradient        (SHARK) ... done (  0.0 sec)
HCore & Overlap gradient  (SHARK) ... done (  0.1 sec)
Split-RIJ-J gradient      (SHARK) ... done (  0.5 sec)
XC gradient                       ... done (  2.2 sec)
Dispersion correction             ... done (  0.0 sec)

-------------------
DISPERSION GRADIENT
-------------------

   1   C   :    0.000076256    0.000027325   -0.000000011
   2   C   :    0.000033157   -0.000006778   -0.000000002
   3   O   :    0.000033494   -0.000053442    0.000000012
   4   C   :   -0.000019575    0.000010887   -0.000000011
   5   C   :   -0.000056155   -0.000005399   -0.000021642
   6   C   :   -0.000056154   -0.000005364    0.000021654
   7   H   :    0.000032174    0.000013327   -0.000006564
   8   H   :    0.000032178    0.000013346    0.000006555
   9   H   :    0.000028090    0.000000229    0.000000005
  10   H   :   -0.000008949    0.000016157   -0.000000014
  11   H   :   -0.000027921    0.000005141   -0.000014442
  12   H   :   -0.000019333   -0.000010303   -0.000011843
  13   H   :   -0.000027922    0.000005162    0.000014440
  14   H   :   -0.000019339   -0.000010288    0.000011862

Difference to translation invariance:
           :   -0.0000000000   -0.0000000000    0.0000000000

Difference to rotation invariance:
           :    0.0000000000   -0.0000000000    0.0000000000

Norm of the Dispersion gradient    ...    0.0001624842
RMS gradient                       ...    0.0000250719
MAX gradient                       ...    0.0000762561
gCP correction                   ... done

------------------
CARTESIAN GRADIENT
------------------

   1   C   :   -0.001611358    0.007221742    0.000043921
   2   C   :   -0.001182775   -0.012840482   -0.000014782
   3   O   :    0.000087712    0.013515881   -0.000001756
   4   C   :   -0.000227941   -0.000453380    0.000010673
   5   C   :    0.002626169    0.001176746    0.000209302
   6   C   :    0.002626011    0.001177143   -0.000200033
   7   H   :    0.000158759   -0.004159172    0.002956693
   8   H   :    0.000163462   -0.004187725   -0.002988824
   9   H   :   -0.002420302    0.001645314   -0.000004735
  10   H   :    0.001477986   -0.002726267    0.000007114
  11   H   :    0.001794994   -0.004034903    0.000374309
  12   H   :   -0.002647251    0.003843244    0.000374260
  13   H   :    0.001798139   -0.004038920   -0.000375305
  14   H   :   -0.002643604    0.003860781   -0.000390838

Difference to translation invariance:
           :    0.0000000000   -0.0000000000    0.0000000000

Difference to rotation invariance:
           :    0.0000038706    0.0000026221    0.0000283900

Norm of the Cartesian gradient     ...    0.0239720729
RMS gradient                       ...    0.0036989712
MAX gradient                       ...    0.0135158805

-------
TIMINGS
-------

Total SCF gradient time     ....        2.810 sec

Densities                   ....       0.000 sec  (  0.0%)
One electron gradient       ....       0.091 sec  (  3.2%)
RI-J Coulomb gradient       ....       0.509 sec  ( 18.1%)
XC gradient                 ....       2.189 sec  ( 77.9%)

Maximum memory used throughout the entire SCFGRAD-calculation: 31.5 MB

------------------------------------------------------------------------------
                              ORCA PROPERTY CALCULATIONS
------------------------------------------------------------------------------

GBWName                                 ... xtb_opt.gbw
Number of atoms                         ...     14
Number of basis functions               ...    159
Max core memory                         ...   1024 MB

Electric properties:
Dipole moment                           ... YES
Quadrupole moment                       ...  NO
Static polarizability (Dipole/Dipole)   ...  NO
Static polarizability (Dipole/Quad.)    ...  NO
Static polarizability (Quad./Quad.)     ...  NO
Static polarizability (Velocity)        ...  NO

Atomic electric properties:
Dipole moment                           ...  NO
Quadrupole moment                       ...  NO
Static polarizability                   ...  NO

Choice of electric origin               ... Center of mass
Position of electric origin             ...    -0.000010     0.000021    -0.000000

General magnetic properties:
Magnetizability                         ...  NO

EPR properties:
g-Tensor (aka g-matrix)                 ...  NO
Zero-Field splitting spin-orbit         ...  NO
Zero-field splitting spin-spin          ...  NO
Hyperfine couplings                     ...  NO (   0 nuclei)
Quadrupole couplings                    ...  NO (   0 nuclei)
Contact density                         ...  NO (   0 nuclei)

NMR properties:
Chemical shifts                         ...  NO (   0 nuclei)
Spin-rotation constants                 ...  NO (   0 nuclei)
Spin-spin couplings                     ...  NO (   0 nuclei,    0 pairs)

Choice of magnetic origin               ... GIAO
Position of magnetic origin             ...     0.000000     0.000000     0.000000

Properties with geometric perturbations:
SCF Hessian                             ...  NO
IR spectrum                             ...  NO
VCD spectrum                            ...  NO
X-ray spectroscopy properties:
SCF XES/XAS/RIXS spectra                ...  NO


-------------
DIPOLE MOMENT
-------------

Method             : SCF
Type of density    : Electron Density
Multiplicity       :   1
Irrep              :   0
Energy             :  -270.4763313981095507 Eh
Relativity type    : 
Basis              : AO
                                X                 Y                 Z
Electronic contribution:      0.739621319      -2.896309399       0.000210249
Nuclear contribution   :     -0.999259158       4.008509667      -0.000505389
                        -----------------------------------------
Total Dipole Moment    :     -0.259637839       1.112200268      -0.000295140
                        -----------------------------------------
Magnitude (a.u.)       :      1.142103905
Magnitude (Debye)      :      2.902997422



--------------------
Rotational spectrum 
--------------------
 
Rotational constants in cm-1:             0.239197             0.088517             0.077105 
Rotational constants in MHz :          7170.943445          2653.684344          2311.564078 

Dipole components along the rotational axes: 
x,y,z [a.u.] :    -0.259629     1.112202    -0.000295 
x,y,z [Debye]:    -0.659925     2.826993    -0.000750 

 

Dipole moment calculation done in   0.0 sec 

Maximum memory used throughout the entire PROP-calculation: 9.7 MB

--------------------------------
SUGGESTED CITATIONS FOR THIS RUN
--------------------------------

Below you find a list of papers that are relevant to this ORCA run
We neither can nor want to force you to cite these papers, but we appreciate if you do
You receive ORCA, which is the product of decades of hard work by many enthusiastic individuals, for free
The only thing we kindly ask in return is that you cite our papers,
We deeply appreciate it, if you show your appreciation for ORCA by not just citing the generic ORCA reference.

Please note that relegating all ORCA citations to the supporting information does *not* help us.
SI sections are not indexed - citations you put there will not count into any citation statistics
But we need these citations in order to attract the funding resources that allow us to do what we are doing

Therefore, if you are a happy ORCA user, please consider citing a few of the papers listed below in the main body of your paper

In addition to the list printed below, the program has created the file xtb_opt.bibtex that contains the list in bibtex format
You can import this file easily into all common literature databanks and citation aid programs


List of essential papers. We consider these as the minimum necessary citations

  1. Neese,F.
     Software update: the ORCA program system, version 5.0
     WIRES Comput. Molec. Sci., 2022 12(1)e1606
     doi.org/10.1002/wcms.1606
  2. Grimme,S.; Hansen,A.; Ehlert,S.; Mewes,J.
     r2SCAN-3c: A 'Swiss army knife' composite electronic-structure method
     J. Chem. Phys., 2021 154 064103
     doi.org/10.1063/5.0040021

List of papers to cite with high priority. The work reported in these papers was absolutely
necessary for this run to complete.
Our perspective: the developers of density functionals and basis sets usually get cited in chemistry papers
Good! But without the algorithms to do something with them, the functionals or basis sets would not do anything.
Hence, in our opinion, the algorithm design and method developments papers are equally worthy of getting cited

  1. Neese,F.
     An improvement of the resolution of the identity approximation for the formation of the Coulomb matrix
     J. Comp. Chem., 2003 24(14)1740-1747
     doi.org/10.1002/jcc.10318
  2. Neese,F.
     The SHARK Integral Generation and Digestion System
     J. Comp. Chem., 2022  1-16
     doi.org/10.1002/jcc.26942
  3. Lehtola,S.; Steigemann,C.; Oliveira,M.; Marques,M.
     Recent developments in Libxc - A comprehensive library of functionals for density functional theory
     Software X, 2018 7 
     doi.org/10.1016/j.softx.2017.11.002
  4. Caldeweyher,E.; Bannwarth,C.; Grimme,S.
     Extension of the D3 dispersion coefficient model
     J. Chem. Phys., 2017 147 034112
     doi.org/10.1063/1.4993215
  5. Caldeweyher,E.; Ehlert,S.; Hansen,A.; Neugebauer,H.; Spicher,S.; Bannwarth,C.; Grimme,S.
     A generally applicable atomic-charge dependent London dispersion correction
     J. Chem. Phys., 2019 150 154122
     doi.org/10.1063/1.5090222
  6. Caldeweyher,E.; Mewes,J.; Ehlert,S.; Grimme,S.
     Extension and evaluation of the D4 London-dispersion model for periodic systems
     Phys. Chem. Chem. Phys., 2020 22(16)8499-8512
     doi.org/10.1039/D0CP00502A
  7. Wittmann,L.; Gordiy,I.; Friede,M.; Helmich-Paris,B.; Grimme,S.; Hansen,A.; Bursch,M.
     Extension of the D3 and D4 London Dispersion Corrections to the full Actinides Series
     Phys. Chem. Chem. Phys., 2024 26(32)21379-21394
     doi.org/https://doi.org/10.1039/D4CP01514B 

List of suggested additional citations. These are papers that are important in the 'surrounding' of 
of this run, or papers that preceded the highly important papers. If you like your results we are grateful for a citation.

  1. Neese,F.
     The ORCA program system
     WIRES Comput. Molec. Sci., 2012 2(1)73-78
     doi.org/10.1002/wcms.81
  2. Neese,F.
     Software update: the ORCA program system, version 4.0
     WIRES Comput. Molec. Sci., 2018 8(1)1-6
     doi.org/10.1002/wcms.1327
  3. Neese,F.; Wennmohs,F.; Becker,U.; Riplinger,C.
     The ORCA quantum chemistry program package
     J. Chem. Phys., 2020 152 Art. No. L224108
     doi.org/10.1063/5.0004608

List of optional additional citations

  1. Neese,F.
     Approximate second-order SCF convergence for spin unrestricted wavefunctions
     Chem. Phys. Lett., 2000 325(1-3)93-98
     doi.org/10.1016/s0009-2614(00)00662-x

Timings for individual modules:

Sum of individual times          ...        6.174 sec (=   0.103 min)
Startup calculation              ...        0.370 sec (=   0.006 min)   6.0 %
SCF iterations                   ...        2.918 sec (=   0.049 min)  47.3 %
Property calculations            ...        0.037 sec (=   0.001 min)   0.6 %
SCF Gradient evaluation          ...        2.849 sec (=   0.047 min)  46.1 %
                             ****ORCA TERMINATED NORMALLY****
TOTAL RUN TIME: 0 days 0 hours 0 minutes 6 seconds 244 msec
  ------------------------------------------------------------------------
          * successful ORCA run, taking over control again...

         :::::::::::::::::::::::::::::::::::::::::::::::::::::
         ::                  ORCA SUMMARY                   ::
         :::::::::::::::::::::::::::::::::::::::::::::::::::::
         :: total energy            -270.474164746259 Eh    ::
         :: gradient norm              0.023972072889 Eh/a0 ::
         :: HOMO-LUMO gap              0.000000000000 eV    ::
         :::::::::::::::::::::::::::::::::::::::::::::::::::::

      ----------------------------------------------------------- 
     |                       L-ANC optimizer                     |
      ----------------------------------------------------------- 
          low memory version by Sebastian Ehlert

          ...................................................
          :                      SETUP                      :
          :.................................................:
          :   energy convergence        0.5000000E-05 Eh    :
          :   grad. convergence         0.1000000E-02 Eh/a0 :
          :   optimization log               true           :
          :   writing optlog all                1     steps :
          :   Hessian reset                     8     steps :
          :   maximium step len.        1.0000000     a0    :
          :   LBFGS images                      8           :
          ...................................................
 * calculating model hessian...
Using Lindh-Hessian (1995)
 Shifting diagonal of input Hessian by    1.0000000000000000E-002
 Lowest  eigenvalues of input Hessian
    0.000000    0.000000    0.000000    0.000000    0.000000    0.000000
    0.014285    0.017248    0.023965    0.029033    0.033544    0.050330
    0.053258    0.056291    0.063521    0.065099    0.075278    0.096434
 Highest eigenvalues
    1.177754    1.271284    1.370029    1.437443    1.835092    2.184327


........................................................................
.............................. CYCLE    1 ..............................
........................................................................
                         * ORCA takes the control...
  ------------------------------------------------------------------------

                                 *****************
                                 * O   R   C   A *
                                 *****************

                                            #,                                       
                                            ###                                      
                                            ####                                     
                                            #####                                    
                                            ######                                   
                                           ########,                                 
                                     ,,################,,,,,                         
                               ,,#################################,,                 
                          ,,##########################################,,             
                       ,#########################################, ''#####,          
                    ,#############################################,,   '####,        
                  ,##################################################,,,,####,       
                ,###########''''           ''''###############################       
              ,#####''   ,,,,##########,,,,          '''####'''          '####       
            ,##' ,,,,###########################,,,                        '##       
           ' ,,###''''                  '''############,,,                           
         ,,##''                                '''############,,,,        ,,,,,,###''
      ,#''                                            '''#######################'''  
     '                                                          ''''####''''         
             ,#######,   #######,   ,#######,      ##                                
            ,#'     '#,  ##    ##  ,#'     '#,    #''#        ,####,   ,####,        
            ##       ##  ##   ,#'  ##            #'  '#       #'       #'  '#        
            ##       ##  #######   ##           ,######,      #####,   #    #        
            '#,     ,#'  ##    ##  '#,     ,#' ,#      #,     #,   #   #,  ,#        
             '#######'   ##     ##  '#######'  #'      '#     '####' # '####'        



                #########################################################
                #                        -***-                          #
                #          Department of theory and spectroscopy        #
                #                                                       #
                #                      Frank Neese                      #
                #                                                       #
                #     Directorship, Architecture, Infrastructure        #
                #                    SHARK, DRIVERS                     #
                #        Core code/Algorithms in most modules           #
                #                                                       #
                #        Max Planck Institute fuer Kohlenforschung      #
                #                Kaiser Wilhelm Platz 1                 #
                #                 D-45470 Muelheim/Ruhr                 #
                #                      Germany                          #
                #                                                       #
                #                  All rights reserved                  #
                #                        -***-                          #
                #########################################################


                         Program Version 6.0.1  -  RELEASE   -


 With contributions from (in alphabetic order):
[Max-Planck-Institut fuer Kohlenforschung]                               
  Daniel Aravena         : Magnetic Suceptibility                        
  Michael Atanasov       : Ab Initio Ligand Field Theory (pilot matlab implementation)
  Alexander A. Auer      : GIAO ZORA, VPT2 properties, NMR spectrum      
  Ute Becker             : All parallelization in ORCA, NUMFREQ, NUMCALC 
  Giovanni Bistoni       : ED, misc. LED, open-shell LED, HFLD           
  Martin Brehm           : Molecular dynamics                            
  Dmytro Bykov           : pre 5.0 version of the SCF Hessian            
  Marcos Casanova-Páez   : Triplet and SCS-CIS(D). UHF-(DLPNO)-IP/EA/STEOM-CCSD. UHF-CVS-IP/STEOM-CCSD   
  Vijay G. Chilkuri      : MRCI spin determinant printing, contributions to CSF-ICE 
  Pauline Colinet        : FMM embedding                                 
  Dipayan Datta          : RHF DLPNO-CCSD density                        
  Achintya Kumar Dutta   : EOM-CC, STEOM-CC                              
  Nicolas Foglia         : Exact transition moments, OPA infrastructure, MCD improvements    
  Dmitry Ganyushin       : Spin-Orbit,Spin-Spin,Magnetic field MRCI      
  Miquel Garcia-Rates    : C-PCM and meta-GGA Hessian, CCSD/C-PCM, Gaussian charge scheme 
  Tiago L. C. Gouveia    : GS-ROHF, GS-ROCIS                             
  Yang Guo               : DLPNO-NEVPT2, F12-NEVPT2, CIM, IAO-localization        
  Andreas Hansen         : Spin unrestricted coupled pair/coupled cluster methods 
  Ingolf Harden          : AUTO-CI MPn and infrastructure                
  Benjamin Helmich-Paris : MC-RPA, TRAH-(SCF,CASSCF), AVAS, COSX integrals, SCF dyn. polar. 
  Lee Huntington         : MR-EOM, pCC                                   
  Robert Izsak           : Overlap fitted RIJCOSX, COSX-SCS-MP3, EOM     
  Riya Kayal             : Wick's Theorem for AUTO-CI, AUTO-CI UHF-CCSDT 
  Emily Kempfer          : AUTO-CI, RHF CISDT and CCSDT                  
  Christian Kollmar      : KDIIS, OOCD, Brueckner-CCSD(T), CCSD density, CASPT2, CASPT2-K, improved NEVPT2 
  Axel Koslowski         : Symmetry handling                             
  Simone Kossmann        : meta-GGA functionals, TD-DFT gradient, OOMP2, (MP2 Hessian; deprecated post 5.0) 
  Lucas Lang             : DCDCAS                                        
  Marvin Lechner         : AUTO-CI (C++ implementation), FIC-MRCC        
  Spencer Leger          : CASSCF response                               
  Dagmar Lenk            : GEPOL surface, SMD, ORCA-2-JSON               
  Dimitrios Liakos       : Extrapolation schemes; Compound Job, initial MDCI parallelization 
  Dimitrios Manganas     : Further ROCIS development; embedding schemes. LFT, Crystal Embedding 
  Dimitrios Pantazis     : SARC Basis sets                               
  Anastasios Papadopoulos: AUTO-CI, single reference methods and gradients 
  Taras Petrenko         : pre 6.0 DFT Hessian and TD-DFT gradient, (ASA, deprecated), ECA, 1-Electron XAS/XES, NRVS 
  Peter Pinski           : DLPNO-MP2, DLPNO-MP2 Gradient                 
  Christoph Reimann      : Effective Core Potentials                     
  Marius Retegan         : Local ZFS, SOC                                
  Christoph Riplinger    : Optimizer, TS searches, QM/MM, DLPNO-CCSD(T), (RO)-DLPNO pert. Triples 
  Michael Roemelt        : Original ROCIS implementation                 
  Masaaki Saitow         : Open-shell DLPNO-CCSD energy and density      
  Barbara Sandhoefer     : DKH picture change effects                    
  Kantharuban Sivalingam : CASSCF convergence/infrastructure, NEVPT2 and variants, FIC-MRCI 
  Bernardo de Souza      : ESD, SOC TD-DFT                               
  Georgi L. Stoychev     : AutoAux, RI-MP2 NMR, DLPNO-MP2 response, X2C  
  Van Anh Tran           : RI-MP2 g-tensors                              
  Willem Van den Heuvel  : Paramagnetic NMR                              
  Zikuan Wang            : NOTCH, Electric field optimization            
  Frank Wennmohs         : Technical directorship and infrastructure     
  Hang Xu                : AUTO-CI-Response properties                   
                                                                         
[FACCTs GmbH]                                                            
  Markus Bursch, Miquel Garcia-Rates, Christoph Riplinger, Bernardo de Souza, Georgi L. Stoychev 
                                                                 
  APM, Basis sets (HGBS, AHGBS, def-TZVP (Ac-Lr), def2-XVPD (La-Lu)), CI-OPT, improved COSX, DLPNO-Multilevel,           
  DOCKER, DRACO, updates on ESD, GOAT, IRC, LR-CPCM, MBIS, meta-GGA TD-DFT gradient, ML-optimized integration grids, 
  MM, NACMEs, nearIR, NEB, NEB-TS, NL-DFT gradient (VV10), 2- and 3-layer-ONIOM, interface openCOSMO-RS, QMMM,   
  Crystal-QMMM, SF, symmetry and pop. for TD-DFT, r2SCAN hybrids, SOLVATOR                                   
                                                                         
[Other institutions]                                                     
  V. Asgeirsson          : NEB                                           
  Christoph Bannwarth    : sTDA-DFT, sTD-DFT, PBEh-3c, B97-3c, D3        
  Sebastian Ehlert       : rSCAN, r2SCAN, r2SCAN-3c, D4, dhf basis sets  
  Marvin Friede          : D4 for Fr, Ra, Ac-Lr                          
  Lars Goerigk           : TD-DFT with DH, B97 family of functionals     
  Stefan Grimme          : VdW corrections, initial TS optimization, DFT functionals, gCP, sTDA/sTD-DF 
  Waldemar Hujo          : DFT-NL                                        
  H. Jonsson             : NEB                                           
  Holger Kruse           : gCP                                           
  Marcel Mueller         : wB97X-3c, vDZP basis set                      
  Hagen Neugebauer       : wr2SCAN                                       
  Tobias Risthaus        : range-separated hybrid DFT                    
  Lukas Wittmann         : regularized MP2, r2SCAN double-hybrids, wr2SCAN        
                                                                         
We gratefully acknowledge several colleagues who have allowed us to      
interface, adapt or use parts of their codes:                            
  Ed Valeev, F. Pavosevic, A. Kumar             : LibInt (2-el integral package), F12 methods 
  Garnet Chan, S. Sharma, J. Yang, R. Olivares  : DMRG                   
  Ulf Ekstrom                                   : XCFun DFT Library      
  Mihaly Kallay                                 : mrcc  (arbitrary order and MRCC methods)
  Frank Weinhold                                : gennbo (NPA and NBO analysis)           
  Simon Mueller                                 : openCOSMO-RS                            
  Christopher J. Cramer and Donald G. Truhlar   : smd solvation model                     
  S Lehtola, MJT Oliveira, MAL Marques          : LibXC Library                           
  Liviu Ungur et al                             : ANISO software                          


 Your calculation uses the libint2 library for the computation of 2-el integrals
 For citations please refer to: http://libint.valeyev.net

 Your ORCA version has been built with support for libXC version: 6.2.2
 For citations please refer to: https://libxc.gitlab.io

 This ORCA versions uses:
   CBLAS   interface :  Fast vector & matrix operations
   LAPACKE interface :  Fast linear algebra routines
   SCALAPACK package :  Parallel linear algebra routines
   Shared memory     :  Shared parallel matrices
   BLAS/LAPACK       :  OpenBLAS 0.3.27  USE64BITINT DYNAMIC_ARCH NO_AFFINITY Zen SINGLE_THREADED
        Core in use  :  Zen
   Copyright (c) 2011-2014, The OpenBLAS Project




***************************************
The coordinates will be read from file: xtb_opt.xyz
***************************************


Your calculation utilizes the geometrical counterpoise correction gCP
Please cite in your paper:
H.Kruse, S. Grimme J.Chem.Phys., 136, (2012), 154101 
   

Your calculation utilizes the atom-pairwise dispersion correction
based on EEQ partial charges (D4)


================================================================================

----- Orbital basis set information -----
Your calculation utilizes the basis: def2-mTZVPP
   Stefan Grimme, Andreas Hansen, Sebastian Ehlert, and Jan-Michael Mewes 
   J. Chem. Phys. 154, 064103 (2021). DOI: 10.1063/5.0040021

----- AuxJ basis set information -----
Your calculation utilizes the auxiliary basis: def2/J
   F. Weigend, Phys. Chem. Chem. Phys. 8, 1057 (2006).

================================================================================
                                        WARNINGS
                       Please study these warnings very carefully!
================================================================================

WARNING: Old DensityContainer found on disk!
         Will remove this file - 
         If you want to keep old densities, please start your calculation with a different basename. 



WARNING: SCAN, rSCAN, or r2SCAN functional requested.
  ===> : libXC variant has now been activated.



================================================================================
                                       INPUT FILE
================================================================================
NAME = xtb_opt.inp
|  1> ! r2scan-3c def2/J RI DEFGRID2 scfconv7 ENGRAD tightSCF miniprint
|  2> * xyzfile 0 1 xtb_opt.xyz
|  3> 
|  4>                          ****END OF INPUT****
================================================================================

                     *******************************
                     * Energy+Gradient Calculation *
                     *******************************

---------------------------------
CARTESIAN COORDINATES (ANGSTROEM)
---------------------------------
  C      2.026252    0.767316   -0.000088
  C      0.783383   -0.094183   -0.000017
  O      0.831639   -1.309104    0.000365
  C     -0.505356    0.649603   -0.000536
  C     -1.671866    0.027333   -0.741582
  C     -1.671638    0.028490    0.741897
  H      2.022377    1.415588   -0.881549
  H      2.021495    1.417149    0.880185
  H      2.922163    0.146677    0.000848
  H     -0.430519    1.731869   -0.001325
  H     -2.335431    0.702622   -1.269287
  H     -1.462151   -0.911382   -1.242346
  H     -2.335007    0.704629    1.268756
  H     -1.461777   -0.909429    1.244078

----------------------------
CARTESIAN COORDINATES (A.U.)
----------------------------
  NO LB      ZA    FRAG     MASS         X           Y           Z
   0 C     6.0000    0    12.011    3.829061    1.450016   -0.000167
   1 C     6.0000    0    12.011    1.480380   -0.177980   -0.000031
   2 O     8.0000    0    15.999    1.571570   -2.473849    0.000690
   3 C     6.0000    0    12.011   -0.954984    1.227571   -0.001013
   4 C     6.0000    0    12.011   -3.159369    0.051652   -1.401387
   5 C     6.0000    0    12.011   -3.158938    0.053839    1.401982
   6 H     1.0000    0     1.008    3.821738    2.675073   -1.665886
   7 H     1.0000    0     1.008    3.820071    2.678023    1.663308
   8 H     1.0000    0     1.008    5.522087    0.277180    0.001602
   9 H     1.0000    0     1.008   -0.813563    3.272759   -0.002503
  10 H     1.0000    0     1.008   -4.413325    1.327763   -2.398606
  11 H     1.0000    0     1.008   -2.763066   -1.722263   -2.347694
  12 H     1.0000    0     1.008   -4.412525    1.331555    2.397601
  13 H     1.0000    0     1.008   -2.762359   -1.718573    2.350967

------------------------------------------------------------------------------
                   ___                                                        
                  /   \      - P O W E R E D   B Y -                         
                 /     \                                                     
                 |  |  |   _    _      __       _____    __    __             
                 |  |  |  | |  | |    /  \     |  _  \  |  |  /  |          
                  \  \/   | |  | |   /    \    | | | |  |  | /  /          
                 / \  \   | |__| |  /  /\  \   | |_| |  |  |/  /          
                |  |  |   |  __  | /  /__\  \  |    /   |      \           
                |  |  |   | |  | | |   __   |  |    \   |  |\   \          
                \     /   | |  | | |  |  |  |  | |\  \  |  | \   \       
                 \___/    |_|  |_| |__|  |__|  |_| \__\ |__|  \__/        
                                                                              
                      - O R C A' S   B I G   F R I E N D -                    
                                      &                                       
                       - I N T E G R A L  F E E D E R -                       
                                                                              
 v1 FN, 2020, v2 2021, v3 2022-2024                                           
------------------------------------------------------------------------------


----------------------
SHARK INTEGRAL PACKAGE
----------------------

Number of atoms                             ...     14
Number of basis functions                   ...    159
Number of shells                            ...     79
Maximum angular momentum                    ...      2
Integral batch strategy                     ... SHARK/LIBINT Hybrid
RI-J (if used) integral strategy            ... SPLIT-RIJ (Revised 2003 algorithm where possible)
Printlevel                                  ...      1
Contraction scheme used                     ... SEGMENTED contraction
Prescreening option                         ... SCHWARTZ
   Thresh                                   ... 3.000e-11
   Tcut                                     ... 1.000e-12
   Tpresel                                  ... 1.000e-12 
Coulomb Range Separation                    ... NOT USED
Exchange Range Separation                   ... NOT USED
Multipole approximations                    ... NOT USED
Finite Nucleus Model                        ... NOT USED
CABS basis                                  ... NOT available
Auxiliary Coulomb fitting basis             ... AVAILABLE
   # of basis functions in Aux-J            ...    382
   # of shells in Aux-J                     ...    130
   Maximum angular momentum in Aux-J        ...      4
Auxiliary J/K fitting basis                 ... NOT available
Auxiliary Correlation fitting basis         ... NOT available
Auxiliary 'external' fitting basis          ... NOT available

Checking pre-screening integrals            ... done (  0.0 sec) Dimension = 79
Check shell pair data                       ... done (  0.0 sec)
Shell pair information
Shell pair cut-off parameter TPreSel        ...   1.0e-12
Total number of shell pairs                 ...      3160
Shell pairs after pre-screening             ...      2989
Total number of primitive shell pairs       ...     11331
Primitive shell pairs kept                  ...      8029
          la=0 lb=0:   1004 shell pairs
          la=1 lb=0:   1132 shell pairs
          la=1 lb=1:    333 shell pairs
          la=2 lb=0:    312 shell pairs
          la=2 lb=1:    180 shell pairs
          la=2 lb=2:     28 shell pairs

Calculating one electron integrals          ... done (  0.0 sec)
Calculating RI/J V-Matrix + Cholesky decomp.... done (  0.0 sec)
Calculating Nuclear repulsion               ... done (  0.0 sec) ENN=    230.644496142210 Eh

Diagonalization of the overlap matrix:
Smallest eigenvalue                        ... 2.225e-04
Time for diagonalization                   ...    0.002 sec
Threshold for overlap eigenvalues          ... 1.000e-07
Number of eigenvalues below threshold      ... 0
Time for construction of square roots      ...    0.001 sec
Total time needed                          ...    0.003 sec

-------------------
DFT GRID GENERATION
-------------------

General Integration Accuracy     IntAcc      ... 4.388
Radial Grid Type                 RadialGrid  ... OptM3 with GC (2021)
Angular Grid (max. ang.)         AngularGrid ... 4 (Lebedev-302)
Angular grid pruning method      GridPruning ... 4 (adaptive)
Weight generation scheme         WeightScheme... mBecke (2022)
Basis function cutoff            BFCut       ... 1.0000e-11
Integration weight cutoff        WCut        ... 1.0000e-14
Partially contracted basis set               ... off
Rotationally invariant grid construction     ... off
Angular grids for H and He will be reduced by one unit
Diffuse basis detected: some atoms will have their outermost
                        angular grid increased by 1.

Total number of grid points                  ...    62289
Total number of batches                      ...      980
Average number of points per batch           ...       63
Average number of grid points per atom       ...     4449
Initializing property integral containers    ... done (  0.0 sec)

SHARK setup successfully completed in   0.4 seconds

Maximum memory used throughout the entire STARTUP-calculation: 28.3 MB
Occupation numbers will be reassigned to an Aufbau configuration
             **** ENERGY FILE WAS UPDATED (xtb_opt.en.tmp) ****
Finished Guess after   0.0 sec
Maximum memory used throughout the entire GUESS-calculation: 11.4 MB
----------------------------------------D-I-I-S--------------------------------------------
Iteration    Energy (Eh)           Delta-E    RMSDP     MaxDP     DIISErr   Damp  Time(sec)
-------------------------------------------------------------------------------------------
               ***  Starting incremental Fock matrix formation  ***
    1    -270.4767181475959887     0.00e+00  6.79e-05  2.08e-03  4.02e-03  0.700   0.8
                              *** Initializing SOSCF ***
---------------------------------------S-O-S-C-F--------------------------------------
Iteration    Energy (Eh)           Delta-E    RMSDP     MaxDP     MaxGrad    Time(sec)
--------------------------------------------------------------------------------------
    2    -270.4767697240855568    -5.16e-05  2.05e-04  7.30e-03  2.57e-03     0.6
               *** Restarting incremental Fock matrix formation ***
    3    -270.4768844261686809    -1.15e-04  1.03e-04  5.94e-03  4.57e-04     0.8
    4    -270.4768834447636436     9.81e-07  7.22e-05  4.21e-03  4.26e-04     0.6
    5    -270.4768881510797200    -4.71e-06  2.21e-05  5.49e-04  2.01e-04     0.6
    6    -270.4768868961862154     1.25e-06  1.39e-05  2.44e-04  2.76e-04     0.6
    7    -270.4768886384478037    -1.74e-06  3.03e-06  4.83e-05  1.54e-05     0.6
                  *** Gradient check signals convergence ***

               *****************************************************
               *                     SUCCESS                       *
               *           SCF CONVERGED AFTER   7 CYCLES          *
               *****************************************************

             **** ENERGY FILE WAS UPDATED (xtb_opt.en.tmp) ****

----------------
TOTAL SCF ENERGY
----------------

Total Energy       :       -270.47688863844780 Eh           -7360.05032 eV

Components:
Nuclear Repulsion  :        230.64449614220970 Eh            6276.15581 eV
Electronic Energy  :       -501.12138478065748 Eh          -13636.20613 eV
One Electron Energy:       -822.26187994501640 Eh          -22374.88327 eV
Two Electron Energy:        321.14049516435892 Eh            8738.67714 eV

Virial components:
Potential Energy   :       -539.74083508672857 Eh          -14687.09480 eV
Kinetic Energy     :        269.26394644828071 Eh            7327.04448 eV
Virial Ratio       :          2.00450465874160

DFT components:
N(Alpha)           :       23.000003079949 electrons
N(Beta)            :       23.000003079949 electrons
N(Total)           :       46.000006159899 electrons
E(X)               :      -37.129320518279 Eh       
E(C)               :       -1.464834468884 Eh       
E(XC)              :      -38.594154987163 Eh       

---------------
SCF CONVERGENCE
---------------

  Last Energy change         ...    1.7423e-06  Tolerance :   1.0000e-07
  Last MAX-Density change    ...    4.8345e-05  Tolerance :   1.0000e-07
  Last RMS-Density change    ...    3.0257e-06  Tolerance :   5.0000e-09
  Last DIIS Error            ...    2.5674e-03  Tolerance :   1.0000e-07
  Last Orbital Gradient      ...    1.5393e-05  Tolerance :   1.0000e-04
  Last Orbital Rotation      ...    3.3622e-05  Tolerance :   1.0000e-04


----------------
ORBITAL ENERGIES
----------------

  NO   OCC          E(Eh)            E(eV) 
   0   2.0000     -18.931222      -515.1447 
   1   2.0000     -10.118193      -275.3300 
   2   2.0000     -10.052879      -273.5527 
   3   2.0000     -10.048032      -273.4208 
   4   2.0000     -10.047827      -273.4153 
   5   2.0000     -10.035900      -273.0907 
   6   2.0000      -1.000577       -27.2271 
   7   2.0000      -0.839791       -22.8519 
   8   2.0000      -0.719826       -19.5874 
   9   2.0000      -0.610105       -16.6018 
  10   2.0000      -0.577534       -15.7155 
  11   2.0000      -0.503403       -13.6983 
  12   2.0000      -0.473023       -12.8716 
  13   2.0000      -0.444127       -12.0853 
  14   2.0000      -0.413453       -11.2506 
  15   2.0000      -0.392312       -10.6753 
  16   2.0000      -0.383657       -10.4398 
  17   2.0000      -0.350006        -9.5242 
  18   2.0000      -0.348873        -9.4933 
  19   2.0000      -0.328379        -8.9356 
  20   2.0000      -0.287989        -7.8366 
  21   2.0000      -0.273245        -7.4354 
  22   2.0000      -0.215436        -5.8623 
  23   0.0000      -0.044231        -1.2036 
  24   0.0000       0.074477         2.0266 
  25   0.0000       0.098418         2.6781 
  26   0.0000       0.104302         2.8382 
  27   0.0000       0.107972         2.9381 
  28   0.0000       0.113816         3.0971 
  29   0.0000       0.133413         3.6304 
  30   0.0000       0.153290         4.1712 
  31   0.0000       0.169078         4.6008 
  32   0.0000       0.184738         5.0270 
  33   0.0000       0.186813         5.0834 
*Only the first 10 virtual orbitals were printed.
Total SCF time: 0 days 0 hours 0 min 4 sec 
Finished LeanSCF after   4.7 sec

Maximum memory used throughout the entire LEANSCF-calculation: 17.2 MB


-------------------------------------------------------------------------------
                          DFT DISPERSION CORRECTION                            
                                                                               
                                DFTD4 V3.4.0                                   
-------------------------------------------------------------------------------
-------------------------   ----------------
Dispersion correction           -0.003199768
-------------------------   ----------------

------------------   -----------------
gCP correction             0.005328782
------------------   -----------------

-------------------------   --------------------
FINAL SINGLE POINT ENERGY      -270.474759624896
-------------------------   --------------------

------------------------------------------------------------------------------
                         ORCA SCF GRADIENT CALCULATION
------------------------------------------------------------------------------

Nuc. rep. gradient        (SHARK) ... done (  0.0 sec)
HCore & Overlap gradient  (SHARK) ... done (  0.1 sec)
Split-RIJ-J gradient      (SHARK) ... done (  0.5 sec)
XC gradient                       ... done (  2.2 sec)
Dispersion correction             ... done (  0.0 sec)

-------------------
DISPERSION GRADIENT
-------------------

   1   C   :    0.000076756    0.000027319   -0.000000010
   2   C   :    0.000033198   -0.000006735   -0.000000000
   3   O   :    0.000032994   -0.000053596    0.000000014
   4   C   :   -0.000020221    0.000010984   -0.000000011
   5   C   :   -0.000055960   -0.000005410   -0.000021655
   6   C   :   -0.000055959   -0.000005376    0.000021667
   7   H   :    0.000032264    0.000013226   -0.000006415
   8   H   :    0.000032267    0.000013244    0.000006405
   9   H   :    0.000027945    0.000000290    0.000000005
  10   H   :   -0.000009391    0.000016348   -0.000000015
  11   H   :   -0.000027739    0.000005074   -0.000014355
  12   H   :   -0.000019203   -0.000010240   -0.000011731
  13   H   :   -0.000027741    0.000005095    0.000014353
  14   H   :   -0.000019209   -0.000010225    0.000011749

Difference to translation invariance:
           :    0.0000000000   -0.0000000000   -0.0000000000

Difference to rotation invariance:
           :   -0.0000000000   -0.0000000000   -0.0000000000

Norm of the Dispersion gradient    ...    0.0001625185
RMS gradient                       ...    0.0000250771
MAX gradient                       ...    0.0000767565
gCP correction                   ... done

------------------
CARTESIAN GRADIENT
------------------

   1   C   :   -0.000010171    0.002689308    0.000006967
   2   C   :   -0.000781020   -0.003007469    0.000013897
   3   O   :    0.000499416    0.002209956   -0.000007210
   4   C   :   -0.002342077   -0.000982784   -0.000000692
   5   C   :    0.001782588    0.001118066    0.001619705
   6   C   :    0.001787676    0.001112469   -0.001619394
   7   H   :   -0.000178777   -0.001154989    0.000589517
   8   H   :   -0.000182183   -0.001162901   -0.000598129
   9   H   :   -0.000083747    0.000365616   -0.000001632
  10   H   :    0.000848873   -0.000578656    0.000000547
  11   H   :    0.000156136   -0.000834606   -0.000468476
  12   H   :   -0.000827961    0.000527663   -0.000549531
  13   H   :    0.000158379   -0.000833008    0.000467812
  14   H   :   -0.000827132    0.000531335    0.000546618

Difference to translation invariance:
           :   -0.0000000000   -0.0000000000    0.0000000000

Difference to rotation invariance:
           :    0.0000036897    0.0000026702    0.0000205229

Norm of the Cartesian gradient     ...    0.0071861971
RMS gradient                       ...    0.0011088543
MAX gradient                       ...    0.0030074689

-------
TIMINGS
-------

Total SCF gradient time     ....        2.782 sec

Densities                   ....       0.000 sec  (  0.0%)
One electron gradient       ....       0.085 sec  (  3.1%)
RI-J Coulomb gradient       ....       0.502 sec  ( 18.0%)
XC gradient                 ....       2.175 sec  ( 78.2%)

Maximum memory used throughout the entire SCFGRAD-calculation: 31.5 MB

------------------------------------------------------------------------------
                              ORCA PROPERTY CALCULATIONS
------------------------------------------------------------------------------

GBWName                                 ... xtb_opt.gbw
Number of atoms                         ...     14
Number of basis functions               ...    159
Max core memory                         ...   1024 MB

Electric properties:
Dipole moment                           ... YES
Quadrupole moment                       ...  NO
Static polarizability (Dipole/Dipole)   ...  NO
Static polarizability (Dipole/Quad.)    ...  NO
Static polarizability (Quad./Quad.)     ...  NO
Static polarizability (Velocity)        ...  NO

Atomic electric properties:
Dipole moment                           ...  NO
Quadrupole moment                       ...  NO
Static polarizability                   ...  NO

Choice of electric origin               ... Center of mass
Position of electric origin             ...    -0.005483    -0.001222     0.000029

General magnetic properties:
Magnetizability                         ...  NO

EPR properties:
g-Tensor (aka g-matrix)                 ...  NO
Zero-Field splitting spin-orbit         ...  NO
Zero-field splitting spin-spin          ...  NO
Hyperfine couplings                     ...  NO (   0 nuclei)
Quadrupole couplings                    ...  NO (   0 nuclei)
Contact density                         ...  NO (   0 nuclei)

NMR properties:
Chemical shifts                         ...  NO (   0 nuclei)
Spin-rotation constants                 ...  NO (   0 nuclei)
Spin-spin couplings                     ...  NO (   0 nuclei,    0 pairs)

Choice of magnetic origin               ... GIAO
Position of magnetic origin             ...     0.000000     0.000000     0.000000

Properties with geometric perturbations:
SCF Hessian                             ...  NO
IR spectrum                             ...  NO
VCD spectrum                            ...  NO
X-ray spectroscopy properties:
SCF XES/XAS/RIXS spectra                ...  NO


-------------
DIPOLE MOMENT
-------------

Method             : SCF
Type of density    : Electron Density
Multiplicity       :   1
Irrep              :   0
Energy             :  -270.4768886384478037 Eh
Relativity type    : 
Basis              : AO
                                X                 Y                 Z
Electronic contribution:      0.707322290      -2.891431875       0.000374948
Nuclear contribution   :     -0.959271559       4.017522571      -0.000709366
                        -----------------------------------------
Total Dipole Moment    :     -0.251949269       1.126090697      -0.000334418
                        -----------------------------------------
Magnitude (a.u.)       :      1.153931888
Magnitude (Debye)      :      2.933061766



--------------------
Rotational spectrum 
--------------------
 
Rotational constants in cm-1:             0.238827             0.088060             0.076719 
Rotational constants in MHz :          7159.854629          2639.966291          2299.971138 

Dipole components along the rotational axes: 
x,y,z [a.u.] :    -0.250732     1.126362    -0.000257 
x,y,z [Debye]:    -0.637309     2.862986    -0.000654 

 

Dipole moment calculation done in   0.0 sec 

Maximum memory used throughout the entire PROP-calculation: 9.7 MB

--------------------------------
SUGGESTED CITATIONS FOR THIS RUN
--------------------------------

[...]
    1    -270.4770228380140793     0.00e+00  6.85e-07  2.30e-05  1.85e-06     0.8
               *** Restarting incremental Fock matrix formation ***
    2    -270.4770228383738981    -3.60e-10  5.16e-07  9.36e-06  3.26e-06     0.7
                  *** Gradient check signals convergence ***

               *****************************************************
               *                     SUCCESS                       *
               *           SCF CONVERGED AFTER   2 CYCLES          *
               *****************************************************

             **** ENERGY FILE WAS UPDATED (xtb_opt.en.tmp) ****

----------------
TOTAL SCF ENERGY
----------------

Total Energy       :       -270.47702283837390 Eh           -7360.05397 eV

Components:
Nuclear Repulsion  :        230.66477150221738 Eh            6276.70753 eV
Electronic Energy  :       -501.14179434059128 Eh          -13636.76150 eV
One Electron Energy:       -822.32137389672823 Eh          -22376.50218 eV
Two Electron Energy:        321.17957955613696 Eh            8739.74068 eV

Virial components:
Potential Energy   :       -539.71725568880709 Eh          -14686.45317 eV
Kinetic Energy     :        269.24023285043319 Eh            7326.39920 eV
Virial Ratio       :          2.00459362991499

DFT components:
N(Alpha)           :       22.999999401656 electrons
N(Beta)            :       22.999999401656 electrons
N(Total)           :       45.999998803311 electrons
E(X)               :      -37.123499069715 Eh       
E(C)               :       -1.464693453281 Eh       
E(XC)              :      -38.588192522996 Eh       

---------------
SCF CONVERGENCE
---------------

  Last Energy change         ...    3.5982e-10  Tolerance :   1.0000e-07
  Last MAX-Density change    ...    9.3559e-06  Tolerance :   1.0000e-07
  Last RMS-Density change    ...    5.1555e-07  Tolerance :   5.0000e-09
  Last DIIS Error            ...    9.6531e-06  Tolerance :   1.0000e-07
  Last Orbital Gradient      ...    3.2593e-06  Tolerance :   1.0000e-04
  Last Orbital Rotation      ...    7.9541e-06  Tolerance :   1.0000e-04


----------------
ORBITAL ENERGIES
----------------

  NO   OCC          E(Eh)            E(eV) 
   0   2.0000     -18.930544      -515.1263 
   1   2.0000     -10.118223      -275.3309 
   2   2.0000     -10.053282      -273.5637 
   3   2.0000     -10.048151      -273.4241 
   4   2.0000     -10.047946      -273.4185 
   5   2.0000     -10.036437      -273.1053 
   6   2.0000      -0.999405       -27.1952 
   7   2.0000      -0.838169       -22.8077 
   8   2.0000      -0.719278       -19.5726 
   9   2.0000      -0.610100       -16.6017 
  10   2.0000      -0.576619       -15.6906 
  11   2.0000      -0.503331       -13.6963 
  12   2.0000      -0.472662       -12.8618 
  13   2.0000      -0.443444       -12.0667 
  14   2.0000      -0.412531       -11.2255 
  15   2.0000      -0.392457       -10.6793 
  16   2.0000      -0.384185       -10.4542 
  17   2.0000      -0.349727        -9.5166 
  18   2.0000      -0.349421        -9.5082 
  19   2.0000      -0.327480        -8.9112 
  20   2.0000      -0.287802        -7.8315 
  21   2.0000      -0.271454        -7.3866 
  22   2.0000      -0.215614        -5.8672 
  23   0.0000      -0.044654        -1.2151 
  24   0.0000       0.074824         2.0361 
  25   0.0000       0.099244         2.7006 
  26   0.0000       0.104199         2.8354 
  27   0.0000       0.107292         2.9196 
  28   0.0000       0.113568         3.0903 
  29   0.0000       0.132715         3.6113 
  30   0.0000       0.153464         4.1760 
  31   0.0000       0.168730         4.5914 
  32   0.0000       0.184730         5.0267 
  33   0.0000       0.186890         5.0855 
*Only the first 10 virtual orbitals were printed.
Total SCF time: 0 days 0 hours 0 min 1 sec 
Finished LeanSCF after   1.6 sec

Maximum memory used throughout the entire LEANSCF-calculation: 17.2 MB


-------------------------------------------------------------------------------
                          DFT DISPERSION CORRECTION                            
                                                                               
                                DFTD4 V3.4.0                                   
-------------------------------------------------------------------------------
-------------------------   ----------------
Dispersion correction           -0.003198754
-------------------------   ----------------

------------------   -----------------
gCP correction             0.005343597
------------------   -----------------

-------------------------   --------------------
FINAL SINGLE POINT ENERGY      -270.474877995633
-------------------------   --------------------

------------------------------------------------------------------------------
                         ORCA SCF GRADIENT CALCULATION
------------------------------------------------------------------------------

Nuc. rep. gradient        (SHARK) ... done (  0.0 sec)
HCore & Overlap gradient  (SHARK) ... done (  0.1 sec)
Split-RIJ-J gradient      (SHARK) ... done (  0.5 sec)
XC gradient                       ... done (  2.3 sec)
Dispersion correction             ... done (  0.0 sec)

-------------------
DISPERSION GRADIENT
-------------------

   1   C   :    0.000077370    0.000027059   -0.000000010
   2   C   :    0.000032907   -0.000006479   -0.000000001
   3   O   :    0.000032012   -0.000053114    0.000000019
   4   C   :   -0.000020802    0.000011113   -0.000000011
   5   C   :   -0.000055567   -0.000005555   -0.000021486
   6   C   :   -0.000055567   -0.000005522    0.000021497
   7   H   :    0.000032311    0.000013098   -0.000006366
   8   H   :    0.000032314    0.000013115    0.000006354
   9   H   :    0.000027988    0.000000146    0.000000004
  10   H   :   -0.000009919    0.000016697   -0.000000015
  11   H   :   -0.000027610    0.000004967   -0.000014250
  12   H   :   -0.000018910   -0.000010264   -0.000011503
  13   H   :   -0.000027612    0.000004988    0.000014248
  14   H   :   -0.000018915   -0.000010249    0.000011521

Difference to translation invariance:
           :    0.0000000000    0.0000000000   -0.0000000000

Difference to rotation invariance:
           :    0.0000000000   -0.0000000000   -0.0000000000

Norm of the Dispersion gradient    ...    0.0001620184
RMS gradient                       ...    0.0000250000
MAX gradient                       ...    0.0000773699
gCP correction                   ... done

------------------
CARTESIAN GRADIENT
------------------

   1   C   :   -0.000071419   -0.000180027    0.000010483
   2   C   :    0.000111926    0.000117117   -0.000033146
   3   O   :   -0.000069620    0.000101392    0.000008511
   4   C   :    0.000442313    0.000124102    0.000006270
   5   C   :   -0.000240828   -0.000123719   -0.000415215
   6   C   :   -0.000248649   -0.000118041    0.000419800
   7   H   :    0.000007300    0.000010759    0.000022673
   8   H   :    0.000013405    0.000015904   -0.000021615
   9   H   :   -0.000036709    0.000023402    0.000001112
  10   H   :   -0.000105062   -0.000069640    0.000000806
  11   H   :    0.000069339   -0.000012870    0.000117049
  12   H   :    0.000030435    0.000063073    0.000121338
  13   H   :    0.000067253   -0.000014712   -0.000115928
  14   H   :    0.000030315    0.000063262   -0.000122139

Difference to translation invariance:
           :   -0.0000000000    0.0000000000    0.0000000000

Difference to rotation invariance:
           :    0.0000029440    0.0000026404   -0.0000071928

Norm of the Cartesian gradient     ...    0.0009405478
RMS gradient                       ...    0.0001451297
MAX gradient                       ...    0.0004423132

-------
TIMINGS
-------

Total SCF gradient time     ....        2.914 sec

Densities                   ....       0.000 sec  (  0.0%)
One electron gradient       ....       0.086 sec  (  2.9%)
RI-J Coulomb gradient       ....       0.510 sec  ( 17.5%)
XC gradient                 ....       2.297 sec  ( 78.8%)

Maximum memory used throughout the entire SCFGRAD-calculation: 31.5 MB

------------------------------------------------------------------------------
                              ORCA PROPERTY CALCULATIONS
------------------------------------------------------------------------------

GBWName                                 ... xtb_opt.gbw
Number of atoms                         ...     14
Number of basis functions               ...    159
Max core memory                         ...   1024 MB

Electric properties:
Dipole moment                           ... YES
Quadrupole moment                       ...  NO
Static polarizability (Dipole/Dipole)   ...  NO
Static polarizability (Dipole/Quad.)    ...  NO
Static polarizability (Quad./Quad.)     ...  NO
Static polarizability (Velocity)        ...  NO

Atomic electric properties:
Dipole moment                           ...  NO
Quadrupole moment                       ...  NO
Static polarizability                   ...  NO

Choice of electric origin               ... Center of mass
Position of electric origin             ...    -0.013804     0.007023     0.000070

General magnetic properties:
Magnetizability                         ...  NO

EPR properties:
g-Tensor (aka g-matrix)                 ...  NO
Zero-Field splitting spin-orbit         ...  NO
Zero-field splitting spin-spin          ...  NO
Hyperfine couplings                     ...  NO (   0 nuclei)
Quadrupole couplings                    ...  NO (   0 nuclei)
Contact density                         ...  NO (   0 nuclei)

NMR properties:
Chemical shifts                         ...  NO (   0 nuclei)
Spin-rotation constants                 ...  NO (   0 nuclei)
Spin-spin couplings                     ...  NO (   0 nuclei,    0 pairs)

Choice of magnetic origin               ... GIAO
Position of magnetic origin             ...     0.000000     0.000000     0.000000

Properties with geometric perturbations:
SCF Hessian                             ...  NO
IR spectrum                             ...  NO
VCD spectrum                            ...  NO
X-ray spectroscopy properties:
SCF XES/XAS/RIXS spectra                ...  NO


-------------
DIPOLE MOMENT
-------------

Method             : SCF
Type of density    : Electron Density
Multiplicity       :   1
Irrep              :   0
Energy             :  -270.4770228383738981 Eh
Relativity type    : 
Basis              : AO
                                X                 Y                 Z
Electronic contribution:      0.659993896      -2.831202579       0.000499101
Nuclear contribution   :     -0.900748883       3.957933801      -0.000966327
                        -----------------------------------------
Total Dipole Moment    :     -0.240754987       1.126731222      -0.000467226
                        -----------------------------------------
Magnitude (a.u.)       :      1.152165973
Magnitude (Debye)      :      2.928573166



--------------------
Rotational spectrum 
--------------------
 
Rotational constants in cm-1:             0.240376             0.088022             0.076819 
Rotational constants in MHz :          7206.301743          2638.828679          2302.977525 

Dipole components along the rotational axes: 
x,y,z [a.u.] :    -0.234181     1.128116    -0.000219 
x,y,z [Debye]:    -0.595241     2.867443    -0.000556 

 

Dipole moment calculation done in   0.0 sec 

Maximum memory used throughout the entire PROP-calculation: 9.7 MB

--------------------------------
SUGGESTED CITATIONS FOR THIS RUN
--------------------------------

Below you find a list of papers that are relevant to this ORCA run
We neither can nor want to force you to cite these papers, but we appreciate if you do
You receive ORCA, which is the product of decades of hard work by many enthusiastic individuals, for free
The only thing we kindly ask in return is that you cite our papers,
We deeply appreciate it, if you show your appreciation for ORCA by not just citing the generic ORCA reference.

Please note that relegating all ORCA citations to the supporting information does *not* help us.
SI sections are not indexed - citations you put there will not count into any citation statistics
But we need these citations in order to attract the funding resources that allow us to do what we are doing

Therefore, if you are a happy ORCA user, please consider citing a few of the papers listed below in the main body of your paper

In addition to the list printed below, the program has created the file xtb_opt.bibtex that contains the list in bibtex format
You can import this file easily into all common literature databanks and citation aid programs


List of essential papers. We consider these as the minimum necessary citations

  1. Neese,F.
     Software update: the ORCA program system, version 5.0
     WIRES Comput. Molec. Sci., 2022 12(1)e1606
     doi.org/10.1002/wcms.1606
  2. Grimme,S.; Hansen,A.; Ehlert,S.; Mewes,J.
     r2SCAN-3c: A 'Swiss army knife' composite electronic-structure method
     J. Chem. Phys., 2021 154 064103
     doi.org/10.1063/5.0040021

List of papers to cite with high priority. The work reported in these papers was absolutely
necessary for this run to complete.
Our perspective: the developers of density functionals and basis sets usually get cited in chemistry papers
Good! But without the algorithms to do something with them, the functionals or basis sets would not do anything.
Hence, in our opinion, the algorithm design and method developments papers are equally worthy of getting cited

  1. Neese,F.
     An improvement of the resolution of the identity approximation for the formation of the Coulomb matrix
     J. Comp. Chem., 2003 24(14)1740-1747
     doi.org/10.1002/jcc.10318
  2. Neese,F.
     The SHARK Integral Generation and Digestion System
     J. Comp. Chem., 2022  1-16
     doi.org/10.1002/jcc.26942
  3. Lehtola,S.; Steigemann,C.; Oliveira,M.; Marques,M.
     Recent developments in Libxc - A comprehensive library of functionals for density functional theory
     Software X, 2018 7 
     doi.org/10.1016/j.softx.2017.11.002
  4. Caldeweyher,E.; Bannwarth,C.; Grimme,S.
     Extension of the D3 dispersion coefficient model
     J. Chem. Phys., 2017 147 034112
     doi.org/10.1063/1.4993215
  5. Caldeweyher,E.; Ehlert,S.; Hansen,A.; Neugebauer,H.; Spicher,S.; Bannwarth,C.; Grimme,S.
     A generally applicable atomic-charge dependent London dispersion correction
     J. Chem. Phys., 2019 150 154122
     doi.org/10.1063/1.5090222
  6. Caldeweyher,E.; Mewes,J.; Ehlert,S.; Grimme,S.
     Extension and evaluation of the D4 London-dispersion model for periodic systems
     Phys. Chem. Chem. Phys., 2020 22(16)8499-8512
     doi.org/10.1039/D0CP00502A
  7. Wittmann,L.; Gordiy,I.; Friede,M.; Helmich-Paris,B.; Grimme,S.; Hansen,A.; Bursch,M.
     Extension of the D3 and D4 London Dispersion Corrections to the full Actinides Series
     Phys. Chem. Chem. Phys., 2024 26(32)21379-21394
     doi.org/https://doi.org/10.1039/D4CP01514B 

List of suggested additional citations. These are papers that are important in the 'surrounding' of 
of this run, or papers that preceded the highly important papers. If you like your results we are grateful for a citation.

  1. Neese,F.
     The ORCA program system
     WIRES Comput. Molec. Sci., 2012 2(1)73-78
     doi.org/10.1002/wcms.81
  2. Neese,F.
     Software update: the ORCA program system, version 4.0
     WIRES Comput. Molec. Sci., 2018 8(1)1-6
     doi.org/10.1002/wcms.1327
  3. Neese,F.; Wennmohs,F.; Becker,U.; Riplinger,C.
     The ORCA quantum chemistry program package
     J. Chem. Phys., 2020 152 Art. No. L224108
     doi.org/10.1063/5.0004608

List of optional additional citations

  1. Neese,F.
     Approximate second-order SCF convergence for spin unrestricted wavefunctions
     Chem. Phys. Lett., 2000 325(1-3)93-98
     doi.org/10.1016/s0009-2614(00)00662-x

Timings for individual modules:

Sum of individual times          ...        5.002 sec (=   0.083 min)
Startup calculation              ...        0.374 sec (=   0.006 min)   7.5 %
SCF iterations                   ...        1.640 sec (=   0.027 min)  32.8 %
Property calculations            ...        0.036 sec (=   0.001 min)   0.7 %
SCF Gradient evaluation          ...        2.951 sec (=   0.049 min)  59.0 %
                             ****ORCA TERMINATED NORMALLY****
TOTAL RUN TIME: 0 days 0 hours 0 minutes 5 seconds 69 msec
  ------------------------------------------------------------------------
          * successful ORCA run, taking over control again...

         :::::::::::::::::::::::::::::::::::::::::::::::::::::
         ::                  ORCA SUMMARY                   ::
         :::::::::::::::::::::::::::::::::::::::::::::::::::::
         :: total energy            -270.474877995633 Eh    ::
         :: gradient norm              0.000940547808 Eh/a0 ::
         :: HOMO-LUMO gap              0.000000000000 eV    ::
         :::::::::::::::::::::::::::::::::::::::::::::::::::::

           -------------------------------------------------
          |                Property Printout                |
           -------------------------------------------------
           -------------------------------------------------
          |                Geometry Summary                 |
           -------------------------------------------------

      molecular mass/u    :       84.1166104
   center of mass at/Å    :       -0.0072971       0.0037028       0.0000368
  moments of inertia/u·Å² :        0.7012933E+02   0.1915114E+03   0.2194416E+03
rotational constants/cm⁻¹ :        0.2403792E+00   0.8802416E-01   0.7682060E-01

 * 12 selected distances

     #   Z          #   Z                                           value/Å
     2   6          3   8                                         1.2181957
     4   6          5   6                                         1.5209832
     4   6          6   6                                         1.5210216 (max)
     5   6          6   6                                         1.4840066
     1   6          7   1                                         1.0961604
     1   6          8   1                                         1.0961583
     1   6          9   1                                         1.0901066
     4   6         10   1                                         1.0853355
     5   6         11   1                                         1.0840710 (min)
     5   6         12   1                                         1.0845289
     6   6         13   1                                         1.0840720
     6   6         14   1                                         1.0845288

 * 3 distinct bonds (by element types)

   Z      Z             #   av. dist./Å        max./Å        min./Å
   1 H    6 C           8     1.0881202     1.0961604     1.0840710
   6 C    6 C           3     1.5086705     1.5210216     1.4840066
   6 C    8 O           1     1.2181957     1.2181957     1.2181957


optimized geometry written to: xtbopt.coord


           -------------------------------------------------
          | TOTAL ENERGY             -270.474877995633 Eh   |
          | GRADIENT NORM               0.000940547808 Eh/α |
           -------------------------------------------------

------------------------------------------------------------------------
 * finished run on 2025/04/09 at 02:49:34.541     
------------------------------------------------------------------------
 total:
 * wall-time:     0 d,  0 h,  0 min, 40.574 sec
 *  cpu-time:     0 d,  0 h,  0 min,  0.473 sec
 * ratio c/w:     0.012 speedup
 SCF:
 * wall-time:     0 d,  0 h,  0 min,  6.263 sec
 *  cpu-time:     0 d,  0 h,  0 min,  0.068 sec
 * ratio c/w:     0.011 speedup
 ANC optimizer:
 * wall-time:     0 d,  0 h,  0 min, 34.233 sec
 *  cpu-time:     0 d,  0 h,  0 min,  0.004 sec
 * ratio c/w:     0.000 speedup

