
                                 *****************
                                 * O   R   C   A *
                                 *****************

                                            #,                                       
                                            ###                                      
                                            ####                                     
                                            #####                                    
                                            ######                                   
                                           ########,                                 
                                     ,,################,,,,,                         
                               ,,#################################,,                 
                          ,,##########################################,,             
                       ,#########################################, ''#####,          
                    ,#############################################,,   '####,        
                  ,##################################################,,,,####,       
                ,###########''''           ''''###############################       
              ,#####''   ,,,,##########,,,,          '''####'''          '####       
            ,##' ,,,,###########################,,,                        '##       
           ' ,,###''''                  '''############,,,                           
         ,,##''                                '''############,,,,        ,,,,,,###''
      ,#''                                            '''#######################'''  
     '                                                          ''''####''''         
             ,#######,   #######,   ,#######,      ##                                
            ,#'     '#,  ##    ##  ,#'     '#,    #''#        ,####,   ,####,        
            ##       ##  ##   ,#'  ##            #'  '#       #'       #'  '#        
            ##       ##  #######   ##           ,######,      #####,   #    #        
            '#,     ,#'  ##    ##  '#,     ,#' ,#      #,     #,   #   #,  ,#        
             '#######'   ##     ##  '#######'  #'      '#     '####' # '####'        



                #########################################################
                #                        -***-                          #
                #          Department of theory and spectroscopy        #
                #                                                       #
                #                      Frank Neese                      #
                #                                                       #
                #     Directorship, Architecture, Infrastructure        #
                #                    SHARK, DRIVERS                     #
                #        Core code/Algorithms in most modules           #
                #                                                       #
                #        Max Planck Institute fuer Kohlenforschung      #
                #                Kaiser Wilhelm Platz 1                 #
                #                 D-45470 Muelheim/Ruhr                 #
                #                      Germany                          #
                #                                                       #
                #                  All rights reserved                  #
                #                        -***-                          #
                #########################################################


                         Program Version 6.0.1  -  RELEASE   -


 With contributions from (in alphabetic order):
[Max-Planck-Institut fuer Kohlenforschung]                               
  Daniel Aravena         : Magnetic Suceptibility                        
  Michael Atanasov       : Ab Initio Ligand Field Theory (pilot matlab implementation)
  Alexander A. Auer      : GIAO ZORA, VPT2 properties, NMR spectrum      
  Ute Becker             : All parallelization in ORCA, NUMFREQ, NUMCALC 
  Giovanni Bistoni       : ED, misc. LED, open-shell LED, HFLD           
  Martin Brehm           : Molecular dynamics                            
  Dmytro Bykov           : pre 5.0 version of the SCF Hessian            
  Marcos Casanova-Páez   : Triplet and SCS-CIS(D). UHF-(DLPNO)-IP/EA/STEOM-CCSD. UHF-CVS-IP/STEOM-CCSD   
  Vijay G. Chilkuri      : MRCI spin determinant printing, contributions to CSF-ICE 
  Pauline Colinet        : FMM embedding                                 
  Dipayan Datta          : RHF DLPNO-CCSD density                        
  Achintya Kumar Dutta   : EOM-CC, STEOM-CC                              
  Nicolas Foglia         : Exact transition moments, OPA infrastructure, MCD improvements    
  Dmitry Ganyushin       : Spin-Orbit,Spin-Spin,Magnetic field MRCI      
  Miquel Garcia-Rates    : C-PCM and meta-GGA Hessian, CCSD/C-PCM, Gaussian charge scheme 
  Tiago L. C. Gouveia    : GS-ROHF, GS-ROCIS                             
  Yang Guo               : DLPNO-NEVPT2, F12-NEVPT2, CIM, IAO-localization        
  Andreas Hansen         : Spin unrestricted coupled pair/coupled cluster methods 
  Ingolf Harden          : AUTO-CI MPn and infrastructure                
  Benjamin Helmich-Paris : MC-RPA, TRAH-(SCF,CASSCF), AVAS, COSX integrals, SCF dyn. polar. 
  Lee Huntington         : MR-EOM, pCC                                   
  Robert Izsak           : Overlap fitted RIJCOSX, COSX-SCS-MP3, EOM     
  Riya Kayal             : Wick's Theorem for AUTO-CI, AUTO-CI UHF-CCSDT 
  Emily Kempfer          : AUTO-CI, RHF CISDT and CCSDT                  
  Christian Kollmar      : KDIIS, OOCD, Brueckner-CCSD(T), CCSD density, CASPT2, CASPT2-K, improved NEVPT2 
  Axel Koslowski         : Symmetry handling                             
  Simone Kossmann        : meta-GGA functionals, TD-DFT gradient, OOMP2, (MP2 Hessian; deprecated post 5.0) 
  Lucas Lang             : DCDCAS                                        
  Marvin Lechner         : AUTO-CI (C++ implementation), FIC-MRCC        
  Spencer Leger          : CASSCF response                               
  Dagmar Lenk            : GEPOL surface, SMD, ORCA-2-JSON               
  Dimitrios Liakos       : Extrapolation schemes; Compound Job, initial MDCI parallelization 
  Dimitrios Manganas     : Further ROCIS development; embedding schemes. LFT, Crystal Embedding 
  Dimitrios Pantazis     : SARC Basis sets                               
  Anastasios Papadopoulos: AUTO-CI, single reference methods and gradients 
  Taras Petrenko         : pre 6.0 DFT Hessian and TD-DFT gradient, (ASA, deprecated), ECA, 1-Electron XAS/XES, NRVS 
  Peter Pinski           : DLPNO-MP2, DLPNO-MP2 Gradient                 
  Christoph Reimann      : Effective Core Potentials                     
  Marius Retegan         : Local ZFS, SOC                                
  Christoph Riplinger    : Optimizer, TS searches, QM/MM, DLPNO-CCSD(T), (RO)-DLPNO pert. Triples 
  Michael Roemelt        : Original ROCIS implementation                 
  Masaaki Saitow         : Open-shell DLPNO-CCSD energy and density      
  Barbara Sandhoefer     : DKH picture change effects                    
  Kantharuban Sivalingam : CASSCF convergence/infrastructure, NEVPT2 and variants, FIC-MRCI 
  Bernardo de Souza      : ESD, SOC TD-DFT                               
  Georgi L. Stoychev     : AutoAux, RI-MP2 NMR, DLPNO-MP2 response, X2C  
  Van Anh Tran           : RI-MP2 g-tensors                              
  Willem Van den Heuvel  : Paramagnetic NMR                              
  Zikuan Wang            : NOTCH, Electric field optimization            
  Frank Wennmohs         : Technical directorship and infrastructure     
  Hang Xu                : AUTO-CI-Response properties                   
                                                                         
[FACCTs GmbH]                                                            
  Markus Bursch, Miquel Garcia-Rates, Christoph Riplinger, Bernardo de Souza, Georgi L. Stoychev 
                                                                 
  APM, Basis sets (HGBS, AHGBS, def-TZVP (Ac-Lr), def2-XVPD (La-Lu)), CI-OPT, improved COSX, DLPNO-Multilevel,           
  DOCKER, DRACO, updates on ESD, GOAT, IRC, LR-CPCM, MBIS, meta-GGA TD-DFT gradient, ML-optimized integration grids, 
  MM, NACMEs, nearIR, NEB, NEB-TS, NL-DFT gradient (VV10), 2- and 3-layer-ONIOM, interface openCOSMO-RS, QMMM,   
  Crystal-QMMM, SF, symmetry and pop. for TD-DFT, r2SCAN hybrids, SOLVATOR                                   
                                                                         
[Other institutions]                                                     
  V. Asgeirsson          : NEB                                           
  Christoph Bannwarth    : sTDA-DFT, sTD-DFT, PBEh-3c, B97-3c, D3        
  Sebastian Ehlert       : rSCAN, r2SCAN, r2SCAN-3c, D4, dhf basis sets  
  Marvin Friede          : D4 for Fr, Ra, Ac-Lr                          
  Lars Goerigk           : TD-DFT with DH, B97 family of functionals     
  Stefan Grimme          : VdW corrections, initial TS optimization, DFT functionals, gCP, sTDA/sTD-DF 
  Waldemar Hujo          : DFT-NL                                        
  H. Jonsson             : NEB                                           
  Holger Kruse           : gCP                                           
  Marcel Mueller         : wB97X-3c, vDZP basis set                      
  Hagen Neugebauer       : wr2SCAN                                       
  Tobias Risthaus        : range-separated hybrid DFT                    
  Lukas Wittmann         : regularized MP2, r2SCAN double-hybrids, wr2SCAN        
                                                                         
We gratefully acknowledge several colleagues who have allowed us to      
interface, adapt or use parts of their codes:                            
  Ed Valeev, F. Pavosevic, A. Kumar             : LibInt (2-el integral package), F12 methods 
  Garnet Chan, S. Sharma, J. Yang, R. Olivares  : DMRG                   
  Ulf Ekstrom                                   : XCFun DFT Library      
  Mihaly Kallay                                 : mrcc  (arbitrary order and MRCC methods)
  Frank Weinhold                                : gennbo (NPA and NBO analysis)           
  Simon Mueller                                 : openCOSMO-RS                            
  Christopher J. Cramer and Donald G. Truhlar   : smd solvation model                     
  S Lehtola, MJT Oliveira, MAL Marques          : LibXC Library                           
  Liviu Ungur et al                             : ANISO software                          


 Your calculation uses the libint2 library for the computation of 2-el integrals
 For citations please refer to: http://libint.valeyev.net

 Your ORCA version has been built with support for libXC version: 6.2.2
 For citations please refer to: https://libxc.gitlab.io

 This ORCA versions uses:
   CBLAS   interface :  Fast vector & matrix operations
   LAPACKE interface :  Fast linear algebra routines
   SCALAPACK package :  Parallel linear algebra routines
   Shared memory     :  Shared parallel matrices
   BLAS/LAPACK       :  OpenBLAS 0.3.27  USE64BITINT DYNAMIC_ARCH NO_AFFINITY Zen SINGLE_THREADED
        Core in use  :  Zen
   Copyright (c) 2011-2014, The OpenBLAS Project


Your calculation utilizes the geometrical counterpoise correction gCP
Please cite in your paper:
H.Kruse, S. Grimme J.Chem.Phys., 136, (2012), 154101 
   

Your calculation utilizes the atom-pairwise dispersion correction
based on EEQ partial charges (D4)


================================================================================

----- Orbital basis set information -----
Your calculation utilizes the basis: def2-SV(P)
   F. Weigend and R. Ahlrichs, Phys. Chem. Chem. Phys. 7, 3297 (2005).

----- AuxJ basis set information -----
Your calculation utilizes the auxiliary basis: def2/J
   F. Weigend, Phys. Chem. Chem. Phys. 8, 1057 (2006).

================================================================================
                                        WARNINGS
                       Please study these warnings very carefully!
================================================================================

WARNING: Old DensityContainer found on disk!
         Will remove this file - 
         If you want to keep old densities, please start your calculation with a different basename. 


================================================================================
                                       INPUT FILE
================================================================================
NAME = sp.inp
|  1> ! pbe def2-sv(p) def2/J RI DEFGRID1 loosescf d4 GCP(DFT/SV(P)) printgap
|  2> %output
|  3>     printlevel normal
|  4> end
|  5> * xyz 0 1
|  6> C -2.6052798646 1.401890983 0.0003460629
|  7> C -1.6074599913 0.2921695743 -0.0004429191
|  8> C -1.8700438687 -1.046407598 -0.0003054625
|  9> N -0.7004417992 -1.7611995654 0.000121766
| 10> C 0.3488513978 -0.8907326586 0.0002467911
| 11> C -0.184051875 0.4222346893 6.29639e-05
| 12> C 0.6903690842 1.5094528858 9.011e-06
| 13> C 2.0452694737 1.2691405701 -0.0002003609
| 14> C 2.5545424479 -0.0326799703 -0.0001295658
| 15> C 1.7177111075 -1.1271346116 0.0001379469
| 16> H -3.2656564675 1.3284369461 -0.8632669159
| 17> H -3.2221979771 1.3665658581 0.8981316467
| 18> H -2.0997389038 2.3628081754 -0.0323786727
| 19> H -2.8177703572 -1.5509704232 -0.0009783603
| 20> H -0.6300076872 -2.7640016769 0.0002764829
| 21> H 0.3110181587 2.5208380874 0.0002184906
| 22> H 2.7364384445 2.0995484581 -0.0003358205
| 23> H 3.6246929299 -0.1793018215 -0.0003036848
| 24> H 2.1089250276 -2.1344044922 0.000228144
| 25> *
| 26> 
| 27>                          ****END OF INPUT****
================================================================================

                       ****************************
                       * Single Point Calculation *
                       ****************************

---------------------------------
CARTESIAN COORDINATES (ANGSTROEM)
---------------------------------
  C     -2.605280    1.401891    0.000346
  C     -1.607460    0.292170   -0.000443
  C     -1.870044   -1.046408   -0.000305
  N     -0.700442   -1.761200    0.000122
  C      0.348851   -0.890733    0.000247
  C     -0.184052    0.422235    0.000063
  C      0.690369    1.509453    0.000009
  C      2.045269    1.269141   -0.000200
  C      2.554542   -0.032680   -0.000130
  C      1.717711   -1.127135    0.000138
  H     -3.265656    1.328437   -0.863267
  H     -3.222198    1.366566    0.898132
  H     -2.099739    2.362808   -0.032379
  H     -2.817770   -1.550970   -0.000978
  H     -0.630008   -2.764002    0.000276
  H      0.311018    2.520838    0.000218
  H      2.736438    2.099548   -0.000336
  H      3.624693   -0.179302   -0.000304
  H      2.108925   -2.134404    0.000228

----------------------------
CARTESIAN COORDINATES (A.U.)
----------------------------
  NO LB      ZA    FRAG     MASS         X           Y           Z
   0 C     6.0000    0    12.011   -4.923265    2.649190    0.000654
   1 C     6.0000    0    12.011   -3.037659    0.552120   -0.000837
   2 C     6.0000    0    12.011   -3.533871   -1.977424   -0.000577
   3 N     7.0000    0    14.007   -1.323643   -3.328185    0.000230
   4 C     6.0000    0    12.011    0.659234   -1.683241    0.000466
   5 C     6.0000    0    12.011   -0.347808    0.797908    0.000119
   6 C     6.0000    0    12.011    1.304609    2.852453    0.000017
   7 C     6.0000    0    12.011    3.864999    2.398328   -0.000379
   8 C     6.0000    0    12.011    4.827386   -0.061756   -0.000245
   9 C     6.0000    0    12.011    3.246004   -2.129976    0.000261
  10 H     1.0000    0     1.008   -6.171196    2.510382   -1.631338
  11 H     1.0000    0     1.008   -6.089072    2.582435    1.697223
  12 H     1.0000    0     1.008   -3.967931    4.465060   -0.061187
  13 H     1.0000    0     1.008   -5.324814   -2.930909   -0.001849
  14 H     1.0000    0     1.008   -1.190542   -5.223206    0.000522
  15 H     1.0000    0     1.008    0.587739    4.763694    0.000413
  16 H     1.0000    0     1.008    5.171119    3.967572   -0.000635
  17 H     1.0000    0     1.008    6.849677   -0.338831   -0.000574
  18 H     1.0000    0     1.008    3.985291   -4.033440    0.000431

--------------------------------
INTERNAL COORDINATES (ANGSTROEM)
--------------------------------
 C      0   0   0     0.000000000000     0.00000000     0.00000000
 C      1   0   0     1.492356099251     0.00000000     0.00000000
 C      2   1   0     1.364089131167   126.94072267     0.00000000
 N      3   2   1     1.370728543572   110.33224291   180.05914572
 C      4   3   2     1.363352069253   108.89094552     0.00000000
 C      5   4   3     1.416993009371   107.58713202     0.00000000
 C      6   5   4     1.395225939982   119.10009318   180.00626646
 C      7   6   5     1.376046917216   118.75111661     0.00000000
 C      8   7   6     1.397889726219   121.42315328     0.00000000
 C      9   8   7     1.377721933375   121.23263054     0.00000000
 H      1   2   3     1.089642202903   110.77325824   301.98899808
 H      1   2   3     1.089887506332   110.78111754    61.71633890
 H      1   2   3     1.086280084516   110.27974850   181.82164601
 H      3   2   1     1.073671082953   129.12908190     0.09322804
 H      4   3   2     1.005272631130   125.44852278   180.00142908
 H      7   6   5     1.080188499557   120.63110330   180.02149867
 H      8   7   6     1.080412803052   119.71376069   179.99444835
 H      9   8   7     1.080148161916   119.16701477   179.99979222
 H     10   9   8     1.080574361985   121.37240742   180.00217078

---------------------------
INTERNAL COORDINATES (A.U.)
---------------------------
 C      0   0   0     0.000000000000     0.00000000     0.00000000
 C      1   0   0     2.820144321872     0.00000000     0.00000000
 C      2   1   0     2.577754880164   126.94072267     0.00000000
 N      3   2   1     2.590301551299   110.33224291   180.05914572
 C      4   3   2     2.576362035003   108.89094552     0.00000000
 C      5   4   3     2.677728721391   107.58713202     0.00000000
 C      6   5   4     2.636594921510   119.10009318   180.00626646
 C      7   6   5     2.600351820966   118.75111661     0.00000000
 C      8   7   6     2.641628747977   121.42315328     0.00000000
 C      9   8   7     2.603517142775   121.23263054     0.00000000
 H      1   2   3     2.059125347449   110.77325824   301.98899808
 H      1   2   3     2.059588903750   110.78111754    61.71633890
 H      1   2   3     2.052771864468   110.27974850   181.82164601
 H      3   2   1     2.028944304692   129.12908190     0.09322804
 H      4   3   2     1.899689962762   125.44852278   180.00142908
 H      7   6   5     2.041260437174   120.63110330   180.02149867
 H      8   7   6     2.041684309350   119.71376069   179.99444835
 H      9   8   7     2.041184210081   119.16701477   179.99979222
 H     10   9   8     2.041989611488   121.37240742   180.00217078

---------------------
BASIS SET INFORMATION
---------------------
There are 3 groups of distinct atoms

 Group   1 Type C   : 7s4p1d contracted to 3s2p1d pattern {511/31/1}
 Group   2 Type N   : 7s4p1d contracted to 3s2p1d pattern {511/31/1}
 Group   3 Type H   : 4s contracted to 2s pattern {31}

Atom   0C    basis set group =>   1
Atom   1C    basis set group =>   1
Atom   2C    basis set group =>   1
Atom   3N    basis set group =>   2
Atom   4C    basis set group =>   1
Atom   5C    basis set group =>   1
Atom   6C    basis set group =>   1
Atom   7C    basis set group =>   1
Atom   8C    basis set group =>   1
Atom   9C    basis set group =>   1
Atom  10H    basis set group =>   3
Atom  11H    basis set group =>   3
Atom  12H    basis set group =>   3
Atom  13H    basis set group =>   3
Atom  14H    basis set group =>   3
Atom  15H    basis set group =>   3
Atom  16H    basis set group =>   3
Atom  17H    basis set group =>   3
Atom  18H    basis set group =>   3
---------------------------------
AUXILIARY/J BASIS SET INFORMATION
---------------------------------
There are 3 groups of distinct atoms

 Group   1 Type C   : 12s5p4d2f1g contracted to 6s4p3d1f1g pattern {711111/2111/211/2/1}
 Group   2 Type N   : 12s5p4d2f1g contracted to 6s4p3d1f1g pattern {711111/2111/211/2/1}
 Group   3 Type H   : 5s2p1d contracted to 3s1p1d pattern {311/2/1}

Atom   0C    basis set group =>   1
Atom   1C    basis set group =>   1
Atom   2C    basis set group =>   1
Atom   3N    basis set group =>   2
Atom   4C    basis set group =>   1
Atom   5C    basis set group =>   1
Atom   6C    basis set group =>   1
Atom   7C    basis set group =>   1
Atom   8C    basis set group =>   1
Atom   9C    basis set group =>   1
Atom  10H    basis set group =>   3
Atom  11H    basis set group =>   3
Atom  12H    basis set group =>   3
Atom  13H    basis set group =>   3
Atom  14H    basis set group =>   3
Atom  15H    basis set group =>   3
Atom  16H    basis set group =>   3
Atom  17H    basis set group =>   3
Atom  18H    basis set group =>   3

Checking for AutoStart:
The File: sp.gbw exists
Trying to determine its content:
     ... Fine, the file contains calculation information
     ... Fine, the calculation information was read
     ... Fine, the file contains a basis set
     ... Fine, the basis set was read
     ... Fine, the file contains a geometry
     ... Fine, the geometry was read
     ... Fine, the file contains a set of orbitals
     ... Fine, the orbitals can be read
     => possible old guess file was deleted
     => GBW file was renamed to GES file
     => GES file is set as startup file
     => Guess is set to MORead
     ... now leaving AutoStart

------------------------------------------------------------------------------
                             ORCA STARTUP CALCULATIONS
                           -- RI-GTO INTEGRALS CHOSEN --
------------------------------------------------------------------------------
------------------------------------------------------------------------------
                   ___                                                        
                  /   \      - P O W E R E D   B Y -                         
                 /     \                                                     
                 |  |  |   _    _      __       _____    __    __             
                 |  |  |  | |  | |    /  \     |  _  \  |  |  /  |          
                  \  \/   | |  | |   /    \    | | | |  |  | /  /          
                 / \  \   | |__| |  /  /\  \   | |_| |  |  |/  /          
                |  |  |   |  __  | /  /__\  \  |    /   |      \           
                |  |  |   | |  | | |   __   |  |    \   |  |\   \          
                \     /   | |  | | |  |  |  |  | |\  \  |  | \   \       
                 \___/    |_|  |_| |__|  |__|  |_| \__\ |__|  \__/        
                                                                              
                      - O R C A' S   B I G   F R I E N D -                    
                                      &                                       
                       - I N T E G R A L  F E E D E R -                       
                                                                              
 v1 FN, 2020, v2 2021, v3 2022-2024                                           
------------------------------------------------------------------------------


----------------------
SHARK INTEGRAL PACKAGE
----------------------

Number of atoms                             ...     19
Number of basis functions                   ...    158
Number of shells                            ...     78
Maximum angular momentum                    ...      2
Integral batch strategy                     ... SHARK/LIBINT Hybrid
RI-J (if used) integral strategy            ... SPLIT-RIJ (Revised 2003 algorithm where possible)
Printlevel                                  ...      1
Contraction scheme used                     ... SEGMENTED contraction
Prescreening option                         ... SCHWARTZ
   Thresh                                   ... 1.000e-09
   Tcut                                     ... 1.000e-10
   Tpresel                                  ... 1.000e-10 
Coulomb Range Separation                    ... NOT USED
Exchange Range Separation                   ... NOT USED
Multipole approximations                    ... NOT USED
Finite Nucleus Model                        ... NOT USED
CABS basis                                  ... NOT available
Auxiliary Coulomb fitting basis             ... AVAILABLE
   # of basis functions in Aux-J            ...    589
   # of shells in Aux-J                     ...    195
   Maximum angular momentum in Aux-J        ...      4
Auxiliary J/K fitting basis                 ... NOT available
Auxiliary Correlation fitting basis         ... NOT available
Auxiliary 'external' fitting basis          ... NOT available

Checking pre-screening integrals            ... done (  0.0 sec) Dimension = 78
Check shell pair data                       ... done (  0.0 sec)
Shell pair information
Shell pair cut-off parameter TPreSel        ...   1.0e-10
Total number of shell pairs                 ...      3081
Shell pairs after pre-screening             ...      2873
Total number of primitive shell pairs       ...     12403
Primitive shell pairs kept                  ...      8033
          la=0 lb=0:   1063 shell pairs
          la=1 lb=0:    923 shell pairs
          la=1 lb=1:    209 shell pairs
          la=2 lb=0:    431 shell pairs
          la=2 lb=1:    196 shell pairs
          la=2 lb=2:     51 shell pairs

Calculating one electron integrals          ... done (  0.0 sec)
Calculating RI/J V-Matrix + Cholesky decomp.... done (  0.0 sec)
Calculating Nuclear repulsion               ... done (  0.0 sec) ENN=    486.714817235673 Eh

Diagonalization of the overlap matrix:
Smallest eigenvalue                        ... 2.550e-04
Time for diagonalization                   ...    0.001 sec
Threshold for overlap eigenvalues          ... 1.000e-07
Number of eigenvalues below threshold      ... 0
Time for construction of square roots      ...    0.000 sec
Total time needed                          ...    0.003 sec

-------------------
DFT GRID GENERATION
-------------------

General Integration Accuracy     IntAcc      ... 4.159
Radial Grid Type                 RadialGrid  ... OptM3 with GC (2021)
Angular Grid (max. ang.)         AngularGrid ... 3 (Lebedev-194)
Angular grid pruning method      GridPruning ... 4 (adaptive)
Weight generation scheme         WeightScheme... mBecke (2022)
Basis function cutoff            BFCut       ... 1.0000e-10
Integration weight cutoff        WCut        ... 1.0000e-14
Partially contracted basis set               ... off
Rotationally invariant grid construction     ... off
Angular grids for H and He will be reduced by one unit

Total number of grid points                  ...    45213
Total number of batches                      ...      718
Average number of points per batch           ...       62
Average number of grid points per atom       ...     2380
Initializing property integral containers    ... done (  0.0 sec)

SHARK setup successfully completed in   0.3 seconds

Maximum memory used throughout the entire STARTUP-calculation: 22.7 MB
-------------------------------------------------------------------------------
                                 ORCA GUESS
                   Start orbitals & Density for SCF / CASSCF
-------------------------------------------------------------------------------

------------
SCF SETTINGS
------------
Hamiltonian:
 Density Functional     Method          .... DFT(GTOs)
 Exchange Functional    Exchange        .... PBE
   PBE kappa parameter   XKappa         ....  0.804000
   PBE mue parameter    XMuePBE         ....  0.219520
 Correlation Functional Correlation     .... PBE
   PBE beta parameter  CBetaPBE         ....  0.066725
 LDA part of GGA corr.  LDAOpt          .... PW91-LDA
 Gradients option       PostSCFGGA      .... off
   NL short-range parameter             ....  6.400000
 RI-approximation to the Coulomb term is turned on
   Number of AuxJ basis functions       .... 589


General Settings:
 Integral files         IntName         .... sp
 Hartree-Fock type      HFTyp           .... RHF
 Total Charge           Charge          ....    0
 Multiplicity           Mult            ....    1
 Number of Electrons    NEL             ....   70
 Basis Dimension        Dim             ....  158
 Nuclear Repulsion      ENuc            ....    486.7148172357 Eh

Convergence Acceleration:
 AO-DIIS                CNVDIIS         .... on
   Start iteration      DIISMaxIt       ....    12
   Startup error        DIISStart       ....  0.200000
   # of expansion vecs  DIISMaxEq       ....     5
   Bias factor          DIISBfac        ....   1.050
   Max. coefficient     DIISMaxC        ....  10.000
 MO-DIIS                CNVKDIIS        .... off
 Trust-Rad. Augm. Hess. CNVTRAH         .... auto
   Auto Start mean grad. ratio tolernc. ....  1.125000
   Auto Start start iteration           ....     1
   Auto Start num. interpolation iter.  ....    10
   Max. Number of Micro iterations      ....    24
   Max. Number of Macro iterations      .... Maxiter - #DIIS iter
   Number of Davidson start vectors     ....     2
   Converg. threshold    (grad. norm)   ....   1.000e-04
   Grad. Scal. Fac. for Micro threshold ....   0.100
   Minimum threshold for Micro iter.    ....   1.000e-02
   NR start threshold (gradient norm)   ....   1.000e-04
   Initial trust radius                 ....   0.400
   Minimum AH scaling param. (alpha)    ....   1.000
   Maximum AH scaling param. (alpha)    .... 1000.000
   Quad. conv. algorithm                .... NR
   White noise on init. David. guess    .... on
   Maximum white noise                  ....   0.010
   Pseudo random numbers                .... off
   Inactive MOs                         .... canonical
   Orbital update algorithm             .... Taylor
   Preconditioner                       .... Diag
   Full preconditioner red. dimension   ....   250
 SOSCF                  CNVSOSCF        .... on
   Start iteration      SOSCFMaxIt      ....   150
   Startup grad/error   SOSCFStart      ....  0.003300
   Hessian update       SOSCFHessUp     .... L-BFGS
 Level Shifting         CNVShift        .... on
   Level shift para.    LevelShift      ....    0.2500
   Turn off err/grad.   ShiftErr        ....    0.0010
 Zerner damping         CNVZerner       .... off
 Static damping         CNVDamp         .... on
   Fraction old density DampFac         ....    0.7000
   Max. Damping (<1)    DampMax         ....    0.9800
   Min. Damping (>=0)   DampMin         ....    0.0000
   Turn off err/grad.   DampErr         ....    0.1000

SCF Procedure:
 Maximum # iterations   MaxIter         ....   125
 SCF integral mode      SCFMode         .... Direct
   Integral package                     .... SHARK and LIBINT hybrid scheme
 Reset frequency        DirectResetFreq ....    20
 Integral Threshold     Thresh          ....  1.000e-09 Eh
 Primitive CutOff       TCut            ....  1.000e-10 Eh

Convergence Tolerance:
 Convergence Check Mode ConvCheckMode   .... Total+1el-Energy
 Convergence forced     ConvForced      .... 0
 Energy Change          TolE            ....  1.000e-05 Eh
 1-El. energy change                    ....  1.000e-02 Eh
 Orbital Gradient       TolG            ....  1.000e-04
 Orbital Rotation angle TolX            ....  1.000e-04
 DIIS Error             TolErr          ....  5.000e-04

---------------------
INITIAL GUESS: MOREAD
---------------------
Guess MOs are being read from file: sp.ges
Input Geometry matches current geometry (good)
Input basis set matches current basis set (good)
Occupation numbers will be reassigned to an Aufbau configuration
MOs were renormalized
MOs were reorthogonalized (Cholesky)
                      ------------------
                      INITIAL GUESS DONE (   0.0 sec)
                      ------------------
             **** ENERGY FILE WAS UPDATED (sp.en.tmp) ****
Finished Guess after   0.0 sec
Maximum memory used throughout the entire GUESS-calculation: 11.5 MB

-------------------------------------------------------------------------------------------
                                      ORCA LEAN-SCF
                              memory conserving SCF solver
-------------------------------------------------------------------------------------------

----------------------------------------D-I-I-S--------------------------------------------
Iteration    Energy (Eh)           Delta-E    RMSDP     MaxDP     DIISErr   Damp  Time(sec)
-------------------------------------------------------------------------------------------
               ***  Starting incremental Fock matrix formation  ***
                              *** Initializing SOSCF ***
---------------------------------------S-O-S-C-F--------------------------------------
Iteration    Energy (Eh)           Delta-E    RMSDP     MaxDP     MaxGrad    Time(sec)
--------------------------------------------------------------------------------------
    1    -402.3091179023330142     0.00e+00  6.87e-06  1.39e-04  1.97e-05     0.4
               *** Restarting incremental Fock matrix formation ***
    2    -402.3091179126158750    -1.03e-08  8.31e-06  2.33e-04  3.28e-05     0.4
    3    -402.3091176444997927     2.68e-07  5.95e-06  1.72e-04  9.64e-05     0.3
                 **** Energy Check signals convergence ****

               *****************************************************
               *                     SUCCESS                       *
               *           SCF CONVERGED AFTER   3 CYCLES          *
               *****************************************************

             **** ENERGY FILE WAS UPDATED (sp.en.tmp) ****

----------------
TOTAL SCF ENERGY
----------------

Total Energy       :       -402.30911764449979 Eh          -10947.38765 eV

Components:
Nuclear Repulsion  :        486.71481723567285 Eh           13244.18350 eV
Electronic Energy  :       -889.02393488017265 Eh          -24191.57114 eV
One Electron Energy:      -1507.62780105830484 Eh          -41024.63812 eV
Two Electron Energy:        618.60386617813219 Eh           16833.06698 eV

Virial components:
Potential Energy   :       -801.09587988047974 Eh          -21798.92713 eV
Kinetic Energy     :        398.78676223597989 Eh           10851.53948 eV
Virial Ratio       :          2.00883267887021

DFT components:
N(Alpha)           :       35.000025018271 electrons
N(Beta)            :       35.000025018271 electrons
N(Total)           :       70.000050036542 electrons
E(X)               :      -56.292700990988 Eh       
E(C)               :       -2.349224211387 Eh       
E(XC)              :      -58.641925202375 Eh       

---------------
SCF CONVERGENCE
---------------

  Last Energy change         ...   -2.6812e-07  Tolerance :   1.0000e-05
  Last MAX-Density change    ...    1.7245e-04  Tolerance :   1.0000e-03
  Last RMS-Density change    ...    5.9479e-06  Tolerance :   1.0000e-04
  Last DIIS Error            ...    7.7277e-05  Tolerance :   5.0000e-04
  Last Orbital Gradient      ...    9.6383e-05  Tolerance :   1.0000e-04
  Last Orbital Rotation      ...    1.4034e-04  Tolerance :   1.0000e-04


----------------
ORBITAL ENERGIES
----------------

  NO   OCC          E(Eh)            E(eV) 
   0   2.0000     -14.033090      -381.8598 
   1   2.0000      -9.915880      -269.8248 
   2   2.0000      -9.911096      -269.6946 
   3   2.0000      -9.885378      -268.9948 
   4   2.0000      -9.881543      -268.8904 
   5   2.0000      -9.880229      -268.8547 
   6   2.0000      -9.879658      -268.8392 
   7   2.0000      -9.879138      -268.8250 
   8   2.0000      -9.878743      -268.8143 
   9   2.0000      -9.874552      -268.7002 
  10   2.0000      -0.893914       -24.3246 
  11   2.0000      -0.754895       -20.5417 
  12   2.0000      -0.715191       -19.4613 
  13   2.0000      -0.656507       -17.8645 
  14   2.0000      -0.648770       -17.6539 
  15   2.0000      -0.619775       -16.8649 
  16   2.0000      -0.557017       -15.1572 
  17   2.0000      -0.525385       -14.2964 
  18   2.0000      -0.498522       -13.5655 
  19   2.0000      -0.482036       -13.1169 
  20   2.0000      -0.428988       -11.6734 
  21   2.0000      -0.416350       -11.3295 
  22   2.0000      -0.389597       -10.6015 
  23   2.0000      -0.385798       -10.4981 
  24   2.0000      -0.378665       -10.3040 
  25   2.0000      -0.361950        -9.8492 
  26   2.0000      -0.353849        -9.6287 
  27   2.0000      -0.343101        -9.3363 
  28   2.0000      -0.325965        -8.8700 
  29   2.0000      -0.301674        -8.2090 
  30   2.0000      -0.295187        -8.0324 
  31   2.0000      -0.285979        -7.7819 
  32   2.0000      -0.239238        -6.5100 
  33   2.0000      -0.195185        -5.3113 
  34   2.0000      -0.172571        -4.6959 
  35   0.0000      -0.034131        -0.9287 
  36   0.0000       0.002017         0.0549 
  37   0.0000       0.032809         0.8928 
  38   0.0000       0.034817         0.9474 
  39   0.0000       0.052070         1.4169 
  40   0.0000       0.065825         1.7912 
  41   0.0000       0.088703         2.4137 
  42   0.0000       0.092568         2.5189 
  43   0.0000       0.110968         3.0196 
  44   0.0000       0.130369         3.5475 
  45   0.0000       0.130884         3.5615 
*Only the first 10 virtual orbitals were printed.

                    ********************************
                    * MULLIKEN POPULATION ANALYSIS *
                    ********************************

-----------------------
MULLIKEN ATOMIC CHARGES
-----------------------
   0 C :   -0.206621
   1 C :   -0.045950
   2 C :   -0.081412
   3 N :   -0.180976
   4 C :    0.131889
   5 C :    0.100559
   6 C :   -0.176539
   7 C :   -0.043212
   8 C :   -0.070641
   9 C :   -0.148040
  10 H :    0.106390
  11 H :    0.107556
  12 H :    0.103969
  13 H :    0.046194
  14 H :    0.220655
  15 H :    0.030973
  16 H :    0.041610
  17 H :    0.045989
  18 H :    0.017607
Sum of atomic charges:    0.0000000

--------------------------------
MULLIKEN REDUCED ORBITAL CHARGES
--------------------------------
  0 C s       :     2.989760  s :     2.989760
      pz      :     1.063810  p :     3.187357
      px      :     1.065789
      py      :     1.057758
      dz2     :     0.005097  d :     0.029504
      dxz     :     0.010195
      dyz     :     0.002248
      dx2y2   :     0.005349
      dxy     :     0.006616

  1 C s       :     3.057787  s :     3.057787
      pz      :     1.068368  p :     2.946543
      px      :     0.994546
      py      :     0.883629
      dz2     :     0.002960  d :     0.041620
      dxz     :     0.006549
      dyz     :     0.007482
      dx2y2   :     0.014297
      dxy     :     0.010332

  2 C s       :     3.229183  s :     3.229183
      pz      :     1.091039  p :     2.802287
      px      :     0.757757
      py      :     0.953491
      dz2     :     0.004613  d :     0.049943
      dxz     :     0.005908
      dyz     :     0.009290
      dx2y2   :     0.011420
      dxy     :     0.018712

  3 N s       :     3.373126  s :     3.373126
      pz      :     1.588077  p :     3.780920
      px      :     1.134197
      py      :     1.058646
      dz2     :     0.002829  d :     0.026931
      dxz     :     0.006215
      dyz     :     0.001795
      dx2y2   :     0.010280
      dxy     :     0.005811

  4 C s       :     2.971342  s :     2.971342
      pz      :     1.022067  p :     2.838739
      px      :     0.784446
      py      :     1.032225
      dz2     :     0.004242  d :     0.058030
      dxz     :     0.011398
      dyz     :     0.008729
      dx2y2   :     0.013924
      dxy     :     0.019736

  5 C s       :     3.062386  s :     3.062386
      pz      :     1.028204  p :     2.795432
      px      :     0.893044
      py      :     0.874184
      dz2     :     0.003055  d :     0.041623
      dxz     :     0.008219
      dyz     :     0.005800
      dx2y2   :     0.012431
      dxy     :     0.012118

  6 C s       :     3.305583  s :     3.305583
      pz      :     1.013836  p :     2.835795
      px      :     0.967366
      py      :     0.854592
      dz2     :     0.003151  d :     0.035161
      dxz     :     0.006726
      dyz     :     0.002583
      dx2y2   :     0.010989
      dxy     :     0.011712

  7 C s       :     3.164072  s :     3.164072
      pz      :     1.028439  p :     2.844156
      px      :     0.924965
      py      :     0.890752
      dz2     :     0.003120  d :     0.034984
      dxz     :     0.005059
      dyz     :     0.003838
      dx2y2   :     0.009030
      dxy     :     0.013936

  8 C s       :     3.177949  s :     3.177949
      pz      :     1.019282  p :     2.857491
      px      :     0.861218
      py      :     0.976990
      dz2     :     0.003136  d :     0.035202
      dxz     :     0.002003
      dyz     :     0.007256
      dx2y2   :     0.013498
      dxy     :     0.009308

  9 C s       :     3.315218  s :     3.315218
      pz      :     1.051354  p :     2.798233
      px      :     1.009323
      py      :     0.737557
      dz2     :     0.003254  d :     0.034588
      dxz     :     0.006692
      dyz     :     0.002733
      dx2y2   :     0.012614
      dxy     :     0.009296

 10 H s       :     0.893610  s :     0.893610

 11 H s       :     0.892444  s :     0.892444

 12 H s       :     0.896031  s :     0.896031

 13 H s       :     0.953806  s :     0.953806

 14 H s       :     0.779345  s :     0.779345

 15 H s       :     0.969027  s :     0.969027

 16 H s       :     0.958390  s :     0.958390

 17 H s       :     0.954011  s :     0.954011

 18 H s       :     0.982393  s :     0.982393


------------------------
MULLIKEN OVERLAP CHARGES
------------------------
B(  0-C ,  1-C ) :   0.8788 B(  0-C ,  2-C ) :  -0.2450 B(  0-C ,  4-C ) :   0.0537 
B(  0-C ,  5-C ) :  -0.1559 B(  0-C , 10-H ) :   0.7064 B(  0-C , 11-H ) :   0.7064 
B(  0-C , 12-H ) :   0.7065 B(  1-C ,  2-C ) :   0.8129 B(  1-C ,  3-N ) :  -0.0674 
B(  1-C ,  4-C ) :  -0.1015 B(  1-C ,  5-C ) :   0.6755 B(  1-C ,  6-C ) :  -0.2509 
B(  1-C , 13-H ) :  -0.1250 B(  2-C ,  3-N ) :   0.7233 B(  2-C ,  4-C ) :  -0.2762 
B(  2-C , 13-H ) :   0.8060 B(  2-C , 14-H ) :  -0.0735 B(  3-N ,  4-C ) :   0.8702 
B(  3-N ,  5-C ) :  -0.2101 B(  3-N ,  9-C ) :  -0.2042 B(  3-N , 13-H ) :  -0.0878 
B(  3-N , 14-H ) :   0.6518 B(  4-C ,  5-C ) :   0.1082 B(  4-C ,  6-C ) :   0.1795 
B(  4-C ,  7-C ) :  -0.4285 B(  4-C ,  8-C ) :   0.4557 B(  4-C ,  9-C ) :   0.2014 
B(  4-C , 18-H ) :  -0.2007 B(  5-C ,  6-C ) :   0.3966 B(  5-C ,  7-C ) :   0.3614 
B(  5-C ,  8-C ) :  -0.4000 B(  5-C ,  9-C ) :   0.1676 B(  5-C , 15-H ) :  -0.1693 
B(  6-C ,  7-C ) :   0.3566 B(  6-C ,  8-C ) :   0.3318 B(  6-C ,  9-C ) :  -0.3480 
B(  6-C , 15-H ) :   0.8735 B(  6-C , 16-H ) :  -0.1792 B(  7-C ,  8-C ) :   0.2780 
B(  7-C ,  9-C ) :   0.3395 B(  7-C , 15-H ) :  -0.1826 B(  7-C , 16-H ) :   0.8753 
B(  7-C , 17-H ) :  -0.1693 B(  8-C ,  9-C ) :   0.2930 B(  8-C , 16-H ) :  -0.1775 
B(  8-C , 17-H ) :   0.8748 B(  8-C , 18-H ) :  -0.1871 B(  9-C , 17-H ) :  -0.1803 
B(  9-C , 18-H ) :   0.8926 


                     *******************************
                     * LOEWDIN POPULATION ANALYSIS *
                     *******************************

----------------------
LOEWDIN ATOMIC CHARGES
----------------------
   0 C :   -0.322616
   1 C :   -0.100311
   2 C :   -0.112251
   3 N :   -0.069603
   4 C :   -0.008471
   5 C :   -0.050888
   6 C :   -0.124051
   7 C :   -0.144231
   8 C :   -0.136409
   9 C :   -0.151468
  10 H :    0.128428
  11 H :    0.128620
  12 H :    0.126403
  13 H :    0.117599
  14 H :    0.239948
  15 H :    0.120036
  16 H :    0.119294
  17 H :    0.120403
  18 H :    0.119567

-------------------------------
LOEWDIN REDUCED ORBITAL CHARGES
-------------------------------
  0 C s       :     2.928076  s :     2.928076
      pz      :     1.124980  p :     3.322413
      px      :     1.100973
      py      :     1.096460
      dz2     :     0.013080  d :     0.072126
      dxz     :     0.024648
      dyz     :     0.004182
      dx2y2   :     0.012388
      dxy     :     0.017828

  1 C s       :     2.844619  s :     2.844619
      pz      :     1.047880  p :     3.145761
      px      :     1.040748
      py      :     1.057132
      dz2     :     0.007493  d :     0.109932
      dxz     :     0.012476
      dyz     :     0.015236
      dx2y2   :     0.043580
      dxy     :     0.031147

  2 C s       :     2.888472  s :     2.888472
      pz      :     1.085230  p :     3.102665
      px      :     0.973012
      py      :     1.044422
      dz2     :     0.009454  d :     0.121115
      dxz     :     0.011351
      dyz     :     0.020624
      dx2y2   :     0.031134
      dxy     :     0.048553

  3 N s       :     3.078902  s :     3.078902
      pz      :     1.548986  p :     3.926661
      px      :     1.202325
      py      :     1.175350
      dz2     :     0.004741  d :     0.064039
      dxz     :     0.012498
      dyz     :     0.002921
      dx2y2   :     0.024451
      dxy     :     0.019427

  4 C s       :     2.820825  s :     2.820825
      pz      :     1.017068  p :     3.041083
      px      :     1.016645
      py      :     1.007369
      dz2     :     0.010121  d :     0.146563
      dxz     :     0.023493
      dyz     :     0.018431
      dx2y2   :     0.038562
      dxy     :     0.055957

  5 C s       :     2.835964  s :     2.835964
      pz      :     1.016378  p :     3.101430
      px      :     1.035673
      py      :     1.049379
      dz2     :     0.007780  d :     0.113493
      dxz     :     0.016950
      dyz     :     0.011947
      dx2y2   :     0.039841
      dxy     :     0.036975

  6 C s       :     2.887444  s :     2.887444
      pz      :     1.003840  p :     3.144330
      px      :     1.081682
      py      :     1.058809
      dz2     :     0.007018  d :     0.092277
      dxz     :     0.014455
      dyz     :     0.004700
      dx2y2   :     0.032701
      dxy     :     0.033403

  7 C s       :     2.887537  s :     2.887537
      pz      :     1.019736  p :     3.164265
      px      :     1.077662
      py      :     1.066868
      dz2     :     0.007088  d :     0.092429
      dxz     :     0.010760
      dyz     :     0.007907
      dx2y2   :     0.028086
      dxy     :     0.038589

  8 C s       :     2.888141  s :     2.888141
      pz      :     1.011599  p :     3.155761
      px      :     1.059200
      py      :     1.084962
      dz2     :     0.007059  d :     0.092507
      dxz     :     0.003437
      dyz     :     0.016037
      dx2y2   :     0.037373
      dxy     :     0.028600

  9 C s       :     2.887365  s :     2.887365
      pz      :     1.037863  p :     3.172214
      px      :     1.067428
      py      :     1.066923
      dz2     :     0.007247  d :     0.091888
      dxz     :     0.014611
      dyz     :     0.004981
      dx2y2   :     0.035579
      dxy     :     0.029471

 10 H s       :     0.871572  s :     0.871572

 11 H s       :     0.871380  s :     0.871380

 12 H s       :     0.873597  s :     0.873597

 13 H s       :     0.882401  s :     0.882401

 14 H s       :     0.760052  s :     0.760052

 15 H s       :     0.879964  s :     0.879964

 16 H s       :     0.880706  s :     0.880706

 17 H s       :     0.879597  s :     0.879597

 18 H s       :     0.880433  s :     0.880433


---------------------------------
LOEWDIN BOND ORDERS (THRESH 0.050000)
---------------------------------
B(  0-C ,  1-C ) :   1.1047 B(  0-C ,  2-C ) :   0.0727 B(  0-C ,  5-C ) :   0.0605 
B(  0-C , 10-H ) :   0.9286 B(  0-C , 11-H ) :   0.9280 B(  0-C , 12-H ) :   0.9310 
B(  1-C ,  2-C ) :   1.5955 B(  1-C ,  3-N ) :   0.1519 B(  1-C ,  4-C ) :   0.0982 
B(  1-C ,  5-C ) :   1.2215 B(  1-C ,  6-C ) :   0.0693 B(  2-C ,  3-N ) :   1.2907 
B(  2-C ,  4-C ) :   0.1403 B(  2-C ,  5-C ) :   0.1072 B(  2-C , 13-H ) :   0.9052 
B(  3-N ,  4-C ) :   1.2758 B(  3-N ,  5-C ) :   0.1120 B(  3-N ,  9-C ) :   0.0774 
B(  3-N , 14-H ) :   0.8576 B(  4-C ,  5-C ) :   1.2264 B(  4-C ,  6-C ) :   0.0782 
B(  4-C ,  7-C ) :   0.0807 B(  4-C ,  8-C ) :   0.0974 B(  4-C ,  9-C ) :   1.3922 
B(  5-C ,  6-C ) :   1.3625 B(  5-C ,  7-C ) :   0.0927 B(  5-C ,  8-C ) :   0.0805 
B(  5-C ,  9-C ) :   0.0763 B(  6-C ,  7-C ) :   1.5641 B(  6-C ,  8-C ) :   0.0845 
B(  6-C ,  9-C ) :   0.1178 B(  6-C , 15-H ) :   0.8836 B(  7-C ,  8-C ) :   1.4309 
B(  7-C ,  9-C ) :   0.0851 B(  7-C , 16-H ) :   0.8890 B(  8-C ,  9-C ) :   1.5471 
B(  8-C , 17-H ) :   0.8894 B(  9-C , 18-H ) :   0.8848 

------------------------------------------
LOEWDIN REDUCED ORBITAL POPULATIONS PER MO
-------------------------------------------
THRESHOLD FOR PRINTING IS 0.1%%
                      0         1         2         3         4         5   
                 -14.03309  -9.91588  -9.91110  -9.88538  -9.88154  -9.88023
                   2.00000   2.00000   2.00000   2.00000   2.00000   2.00000
                  --------  --------  --------  --------  --------  --------
 1 C  s               0.0       0.0       0.0       0.0      99.4       0.0
 1 C  px              0.0       0.0       0.0       0.0       0.0       0.1
 1 C  py              0.0       0.0       0.2       0.0       0.0       0.0
 2 C  s               0.0       0.0      99.5       0.0       0.0       0.0
 2 C  py              0.0       0.0       0.0       0.0       0.2       0.0
 3 N  s              99.8       0.0       0.0       0.0       0.0       0.0
 3 N  px              0.0       0.1       0.1       0.0       0.0       0.0
 4 C  s               0.0      99.4       0.0       0.0       0.0       0.0
 4 C  px              0.0       0.0       0.0       0.1       0.0       0.0
 4 C  py              0.0       0.0       0.0       0.0       0.0       0.1
 5 C  s               0.0       0.0       0.0       0.0       0.0      95.0
 5 C  px              0.0       0.0       0.0       0.0       0.1       0.0
 5 C  py              0.0       0.1       0.0       0.0       0.0       0.0
 6 C  s               0.0       0.0       0.0       0.0       0.0       4.4
 9 C  s               0.0       0.0       0.0      99.5       0.0       0.0
 9 C  px              0.0       0.1       0.0       0.0       0.0       0.0

                      6         7         8         9        10        11   
                  -9.87966  -9.87914  -9.87874  -9.87455  -0.89391  -0.75489
                   2.00000   2.00000   2.00000   2.00000   2.00000   2.00000
                  --------  --------  --------  --------  --------  --------
 0 C  s               0.6      99.1       0.0       0.0       0.2       0.3
 0 C  px              0.0       0.0       0.0       0.0       0.1       0.1
 0 C  py              0.0       0.0       0.0       0.0       0.1       0.0
 1 C  s               0.0       0.0       0.0       0.0       3.4       1.1
 1 C  px              0.0       0.0       0.0       0.0       0.6       1.1
 1 C  py              0.0       0.1       0.0       0.0       2.1       0.4
 2 C  s               0.0       0.0       0.0       0.0      10.7       0.6
 2 C  px              0.0       0.0       0.0       0.0       6.4       0.2
 2 C  py              0.0       0.0       0.0       0.0       0.4       1.4
 2 C  dz2             0.0       0.0       0.0       0.0       0.3       0.0
 2 C  dxy             0.0       0.0       0.0       0.0       0.2       0.1
 3 N  s               0.0       0.0       0.0       0.0      37.7       4.1
 3 N  px              0.0       0.0       0.0       0.0       0.0       0.9
 3 N  py              0.0       0.0       0.0       0.0       1.6       0.6
 3 N  dz2             0.0       0.0       0.0       0.0       0.2       0.0
 4 C  s               0.0       0.0       0.0       0.0      11.8       5.0
 4 C  px              0.0       0.0       0.0       0.0       5.2       3.5
 4 C  py              0.0       0.0       0.0       0.0       1.1       3.9
 4 C  dz2             0.0       0.0       0.0       0.0       0.3       0.0
 4 C  dxy             0.0       0.0       0.0       0.0       0.2       0.1
 5 C  s               4.4       0.0       0.0       0.0       3.7      10.1
 5 C  px              0.0       0.0       0.0       0.0       0.2       2.1
 5 C  py              0.1       0.0       0.0       0.0       2.5       0.1
 5 C  dz2             0.0       0.0       0.0       0.0       0.1       0.1
 6 C  s              94.5       0.6       0.0       0.1       0.3      12.0
 6 C  px              0.0       0.0       0.0       0.1       0.1       0.4
 6 C  py              0.0       0.0       0.0       0.0       0.3       2.1
 6 C  dz2             0.0       0.0       0.0       0.0       0.0       0.1
 7 C  s               0.1       0.0       0.1      99.4       0.1      12.1
 7 C  px              0.1       0.0       0.0       0.0       0.0       1.0
 7 C  py              0.0       0.0       0.1       0.0       0.0       1.5
 7 C  dz2             0.0       0.0       0.0       0.0       0.0       0.2
 8 C  s               0.0       0.0      99.4       0.1       0.2      11.9
 8 C  px              0.0       0.0       0.0       0.0       0.1       2.3
 8 C  py              0.0       0.0       0.0       0.1       0.0       0.1
 8 C  dz2             0.0       0.0       0.0       0.0       0.0       0.1
 9 C  s               0.0       0.0       0.1       0.0       1.1       9.9
 9 C  px              0.0       0.0       0.1       0.0       1.2       0.0
 9 C  py              0.0       0.0       0.1       0.0       0.0       2.5
 9 C  dz2             0.0       0.0       0.0       0.0       0.0       0.1
13 H  s               0.0       0.0       0.0       0.0       1.1       0.1
14 H  s               0.0       0.0       0.0       0.0       5.7       1.3
15 H  s               0.0       0.0       0.0       0.0       0.0       1.6
16 H  s               0.0       0.0       0.0       0.1       0.0       1.6
17 H  s               0.0       0.0       0.1       0.0       0.0       1.5
18 H  s               0.0       0.0       0.0       0.0       0.2       1.2

                     12        13        14        15        16        17   
                  -0.71519  -0.65651  -0.64877  -0.61978  -0.55702  -0.52538
                   2.00000   2.00000   2.00000   2.00000   2.00000   2.00000
                  --------  --------  --------  --------  --------  --------
 0 C  s               9.7       1.0      11.5      18.4       0.7       0.4
 0 C  px              0.9       0.0       0.0       0.0       0.1       1.3
 0 C  py              1.1       0.0       0.2       0.4       0.1       0.0
 1 C  s              21.0       0.6       2.2       0.2       0.1       0.7
 1 C  px              0.0       0.0       8.5       1.5       0.1       7.1
 1 C  py              0.1       0.3       0.1      13.2       0.2       3.3
 1 C  dz2             0.2       0.0       0.0       0.0       0.0       0.0
 1 C  dx2y2           0.0       0.0       0.1       0.1       0.0       0.2
 1 C  dxy             0.0       0.0       0.0       0.1       0.1       0.0
 2 C  s               5.2       1.6       4.3       8.6       4.9       4.3
 2 C  px              0.1       0.1       0.6       0.3       2.3       1.9
 2 C  py              6.8       2.3       0.0       0.4       2.4       0.0
 2 C  dx2y2           0.1       0.0       0.0       0.0       0.0       0.0
 2 C  dxy             0.1       0.1       0.0       0.1       0.0       0.0
 3 N  s               4.6       2.0       0.3       2.5       0.1       0.9
 3 N  px              2.3       5.6       3.1       6.8       8.4       0.1
 3 N  py              2.5       2.1       1.4       6.7       7.7       8.0
 3 N  dx2y2           0.0       0.0       0.0       0.0       0.0       0.2
 3 N  dxy             0.0       0.1       0.1       0.1       0.1       0.0
 4 C  s               1.6       9.4       2.9       0.6       0.9       3.1
 4 C  px              2.2       2.4       2.3       0.0       9.0       2.1
 4 C  py              4.5       0.0       2.1       1.9       0.5       1.6
 4 C  dx2y2           0.0       0.1       0.1       0.1       0.0       0.2
 4 C  dxy             0.2       0.1       0.0       0.1       0.1       0.0
 5 C  s               6.2       0.1       8.3       0.1       1.0       6.1
 5 C  px              5.1       0.8       1.5       0.9       1.4       2.8
 5 C  py              0.2       6.1       0.1       2.2       5.4       1.3
 5 C  dxy             0.0       0.2       0.0       0.0       0.0       0.0
 6 C  s               0.5      12.4       3.8       2.9       3.7       0.7
 6 C  px              1.4       2.9       1.9       0.2       4.5       7.5
 6 C  py              0.1       0.2       0.6       0.0       0.1       1.6
 6 C  dz2             0.0       0.1       0.0       0.0       0.0       0.0
 7 C  s               0.7      14.9       1.4       0.0       6.8       2.3
 7 C  px              0.3       1.3       3.1       1.5       5.2       2.3
 7 C  py              0.6       0.5       2.0       1.0       0.1       4.5
 7 C  dz2             0.0       0.1       0.0       0.0       0.0       0.0
 7 C  dx2y2           0.0       0.1       0.1       0.1       0.1       0.1
 8 C  s               3.6       0.2      12.2       3.2       1.8       7.0
 8 C  px              0.4       0.1       0.0       0.0       1.3       2.5
 8 C  py              0.2       8.1       0.2       0.1       8.4       0.5
 8 C  dz2             0.0       0.0       0.1       0.0       0.0       0.0
 8 C  dxy             0.0       0.2       0.0       0.0       0.2       0.0
 9 C  s               5.6      10.3       4.3       0.3       5.9       0.6
 9 C  px              0.0       1.8       3.8       1.8       0.0       7.9
 9 C  py              0.1       0.3       0.6       0.7       0.5       1.5
 9 C  dxy             0.0       0.0       0.1       0.0       0.0       0.1
10 H  s               1.7       0.2       2.8       4.6       0.2       0.4
11 H  s               1.7       0.2       2.8       4.6       0.2       0.4
12 H  s               1.8       0.2       2.3       5.6       0.2       0.0
13 H  s               0.7       0.6       1.6       1.7       4.6       2.9
14 H  s               2.7       1.5       0.6       4.5       2.2       4.8
15 H  s               0.2       2.7       0.7       1.0       1.5       0.3
16 H  s               0.1       3.3       0.4       0.0       3.4       1.2
17 H  s               0.6       0.0       2.9       0.9       1.0       4.7
18 H  s               1.1       2.4       1.1       0.0       2.4       0.2

                     18        19        20        21        22        23   
                  -0.49852  -0.48204  -0.42899  -0.41635  -0.38960  -0.38580
                   2.00000   2.00000   2.00000   2.00000   2.00000   2.00000
                  --------  --------  --------  --------  --------  --------
 0 C  s               3.5       0.6       0.1       0.0       0.1       0.0
 0 C  pz              0.0       0.0       0.0       0.0       0.0      15.0
 0 C  px              3.2       0.3       0.8       0.4      14.4       0.0
 0 C  py              3.9       2.5       1.6       2.6       0.1       0.0
 0 C  dz2             0.1       0.0       0.0       0.0       0.2       0.0
 0 C  dxy             0.1       0.1       0.0       0.0       0.0       0.0
 1 C  s               8.4       2.1       0.4       1.0       0.6       0.0
 1 C  pz              0.0       0.0       0.0       0.0       0.0      13.1
 1 C  px              0.0       0.5       6.1       2.7       0.0       0.0
 1 C  py              0.3       0.2       1.0       2.1       5.3       0.0
 1 C  dx2y2           0.0       0.0       0.0       0.1       0.1       0.0
 1 C  dxy             0.1       0.0       0.2       0.0       0.0       0.0
 2 C  s               0.2       0.4       1.3       0.6       0.1       0.0
 2 C  pz              0.0       0.0       0.0       0.0       0.0      12.1
 2 C  px              0.5       6.7      12.6       4.4       0.8       0.0
 2 C  py             10.6       1.1       0.8       8.4       1.5       0.0
 2 C  dxz             0.0       0.0       0.0       0.0       0.0       0.2
 2 C  dx2y2           0.3       0.3       0.0       0.1       0.1       0.0
 2 C  dxy             0.2       0.1       0.2       0.1       0.1       0.0
 3 N  s               0.0       0.3       0.0       0.5       0.2       0.0
 3 N  pz              0.0       0.0       0.0       0.0       0.0      21.0
 3 N  px              8.6       0.9      14.1       0.4       0.3       0.0
 3 N  py              2.6      16.5       0.9       0.0       3.8       0.0
 3 N  dx2y2           0.0       0.1       0.0       0.1       0.3       0.0
 3 N  dxy             0.0       0.0       0.2       0.0       0.0       0.0
 4 C  s               0.3       0.9       0.7       1.5       0.1       0.0
 4 C  pz              0.0       0.0       0.0       0.0       0.0      14.0
 4 C  px              0.1       3.2       2.9       0.6       3.3       0.0
 4 C  py              9.2       1.7       2.6       0.0       6.2       0.0
 4 C  dxz             0.0       0.0       0.0       0.0       0.0       0.1
 4 C  dx2y2           0.0       0.2       0.2       0.0       0.6       0.0
 4 C  dxy             0.0       0.1       0.5       0.3       0.2       0.0
 5 C  s               0.5       0.6       0.1       2.5       1.8       0.0
 5 C  pz              0.0       0.0       0.0       0.0       0.0       9.3
 5 C  px              8.7       0.1       4.2       0.2       1.9       0.0
 5 C  py              1.6       2.0       1.8       0.1       6.4       0.0
 5 C  dx2y2           0.2       0.1       0.4       0.0       0.0       0.0
 5 C  dxy             0.1       0.1       0.1       0.1       0.0       0.0
 6 C  s               0.9       4.1       1.8       0.6       0.0       0.0
 6 C  pz              0.0       0.0       0.0       0.0       0.0       1.8
 6 C  px              0.2       0.9       4.8       4.9       3.2       0.0
 6 C  py              5.5       5.8       0.1       0.2       1.2       0.0
 6 C  dx2y2           0.1       0.0       0.2       0.0       0.0       0.0
 6 C  dxy             0.0       0.0       0.0       0.2       0.1       0.0
 7 C  s               1.1       0.9       2.4       0.5       0.1       0.0
 7 C  pz              0.0       0.0       0.0       0.0       0.0       0.7
 7 C  px              0.1       1.0       0.1      16.1       0.7       0.0
 7 C  py              3.9       1.5       3.4       3.1       5.9       0.0
 7 C  dx2y2           0.0       0.0       0.0       0.0       0.2       0.0
 7 C  dxy             0.0       0.0       0.1       0.0       0.1       0.0
 8 C  s               0.2       0.5       2.8       0.2       0.3       0.0
 8 C  pz              0.0       0.0       0.0       0.0       0.0       0.8
 8 C  px              0.6       1.7       5.4       9.7       4.4       0.0
 8 C  py              0.1       7.0       0.0       3.0       3.7       0.0
 8 C  dx2y2           0.0       0.0       0.2       0.0       0.0       0.0
 9 C  s               1.5       1.6       2.5       0.1       0.1       0.0
 9 C  pz              0.0       0.0       0.0       0.0       0.0       2.7
 9 C  px              0.1       8.8       0.1       2.8       7.3       0.0
 9 C  py              6.2       2.0       1.0       7.0       4.6       0.0
 9 C  dxy             0.0       0.1       0.2       0.2       0.1       0.0
10 H  s               2.3       0.3       0.1       0.0       3.0       4.3
11 H  s               2.3       0.3       0.0       0.0       2.8       4.5
12 H  s               2.1       1.3       0.8       1.4       1.4       0.0
13 H  s               0.5       1.9       6.7       7.7       0.0       0.0
14 H  s               1.4       6.9       0.4       0.3       2.8       0.0
15 H  s               2.2       6.3       1.5       0.2       1.7       0.0
16 H  s               1.8       0.2       3.6       8.1       1.2       0.0
17 H  s               0.0       1.5       5.9       2.7       1.7       0.0
18 H  s               3.9       3.7       2.2       1.7       5.1       0.0

                     24        25        26        27        28        29   
                  -0.37867  -0.36195  -0.35385  -0.34310  -0.32597  -0.30167
                   2.00000   2.00000   2.00000   2.00000   2.00000   2.00000
                  --------  --------  --------  --------  --------  --------
 0 C  s               0.0       0.0       0.0       0.1       0.0       0.0
 0 C  pz              0.0       0.0      38.2       0.0       0.0       0.0
 0 C  px              0.3      11.0       0.0       4.3      11.2       2.0
 0 C  py              0.7       3.7       0.0      27.9       5.8       3.1
 0 C  dz2             0.0       0.1       0.0       0.0       0.2       0.1
 0 C  dxz             0.0       0.0       0.5       0.0       0.0       0.0
 0 C  dx2y2           0.0       0.0       0.0       0.0       0.2       0.2
 0 C  dxy             0.0       0.0       0.0       0.4       0.0       0.1
 1 C  s               0.0       0.0       0.0       0.5       0.2       0.1
 1 C  pz              0.0       0.0       1.3       0.0       0.0       0.0
 1 C  px              0.3       1.1       0.0       7.7       2.2       4.4
 1 C  py              0.9       4.3       0.0      14.2       1.4       3.3
 1 C  dxz             0.0       0.0       0.2       0.0       0.0       0.0
 1 C  dyz             0.0       0.0       0.2       0.0       0.0       0.0
 1 C  dx2y2           0.0       0.0       0.0       0.0       0.7       0.6
 1 C  dxy             0.0       0.0       0.0       0.5       0.0       0.1
 2 C  s               0.0       0.2       0.0       0.9       0.3       0.5
 2 C  pz              0.0       0.0       1.7       0.0       0.0       0.0
 2 C  px              0.1       9.7       0.0       0.4       1.5       0.1
 2 C  py              0.2       3.3       0.0       4.5       2.5       5.1
 2 C  dxz             0.0       0.0       0.1       0.0       0.0       0.0
 2 C  dx2y2           0.0       0.2       0.0       0.0       0.2       0.0
 2 C  dxy             0.0       0.4       0.0       0.6       0.1       0.1
 3 N  s               0.2       0.0       0.0       0.4       0.1       0.3
 3 N  pz              0.0       0.0      13.6       0.0       0.0       0.0
 3 N  px              0.1       4.1       0.0       2.1       1.0       0.9
 3 N  py              2.4       0.0       0.0       1.1       0.4       0.1
 3 N  dxy             0.0       0.2       0.0       0.0       0.0       0.0
 4 C  s               1.4       0.0       0.0       0.7       0.3       0.3
 4 C  pz              0.0       0.0       9.8       0.0       0.0       0.0
 4 C  px              1.0       6.5       0.0       0.0       2.2       0.1
 4 C  py              3.8       0.1       0.0       1.3       0.5       0.1
 4 C  dxy             0.0       0.1       0.0       0.0       0.1       0.6
 5 C  s               0.3       0.0       0.0       0.0       0.8       0.0
 5 C  pz              0.0       0.0       1.9       0.0       0.0       0.0
 5 C  px              0.9       1.5       0.0       2.3       3.5       7.8
 5 C  py              6.6       2.6       0.0       0.1       0.9       4.3
 5 C  dx2y2           0.1       0.0       0.0       0.0       0.0       0.1
 5 C  dxy             0.3       0.1       0.0       0.3       0.0       0.2
 6 C  s               0.1       0.3       0.0       0.0       0.3       0.1
 6 C  pz              0.0       0.0       0.7       0.0       0.0       0.0
 6 C  px              0.0       7.8       0.0       0.6       3.8       6.5
 6 C  py             23.5       0.0       0.0       0.3       0.8       5.3
 6 C  dx2y2           0.2       0.2       0.0       0.0       0.0       0.0
 6 C  dxy             0.1       0.0       0.0       0.1       0.0       0.5
 7 C  s               0.8       0.2       0.0       0.1       0.2       0.1
 7 C  pz              0.0       0.0       0.7       0.0       0.0       0.0
 7 C  px              0.4       5.2       0.0       0.1       4.7       7.3
 7 C  py              5.7       0.8       0.0       6.1       0.1       7.2
 7 C  dx2y2           0.1       0.0       0.0       0.1       0.4       0.0
 7 C  dxy             0.0       0.0       0.0       0.1       0.1       1.2
 8 C  s               0.4       0.0       0.0       0.1       0.1       0.2
 8 C  pz              0.0       0.0       1.1       0.0       0.0       0.0
 8 C  px              0.2       2.1       0.0       2.5      15.3       1.8
 8 C  py              4.3       4.7       0.0       3.5       0.1       4.8
 8 C  dx2y2           0.2       0.0       0.0       0.1       0.6       0.1
 8 C  dxy             0.3       0.0       0.0       0.0       0.2       0.4
 9 C  s               0.1       0.0       0.0       0.0       0.4       0.2
 9 C  pz              0.0       0.0       3.1       0.0       0.0       0.0
 9 C  px              0.9       7.4       0.0       0.0       3.5       2.5
 9 C  py             16.2       0.8       0.0       0.6       1.6       3.3
 9 C  dx2y2           0.3       0.1       0.0       0.1       0.2       0.0
10 H  s               0.0       2.3      12.8       0.4       2.9       0.9
11 H  s               0.0       1.9      13.8       0.5       2.4       0.7
12 H  s               0.3       4.8       0.0       8.3       8.6       3.8
13 H  s               0.0       9.9       0.0       0.2       2.3       1.0
14 H  s               1.3       0.0       0.0       0.7       0.2       0.0
15 H  s              12.3       1.1       0.0       0.7       0.5       1.6
16 H  s               1.1       0.1       0.0       1.9       2.3      13.3
17 H  s               0.8       0.8       0.0       1.7      11.7       1.9
18 H  s              10.6       0.0       0.0       0.4       0.0       0.7

                     30        31        32        33        34        35   
                  -0.29519  -0.28598  -0.23924  -0.19519  -0.17257  -0.03413
                   2.00000   2.00000   2.00000   2.00000   2.00000   0.00000
                  --------  --------  --------  --------  --------  --------
 0 C  pz              0.2       0.0       1.8       0.0       1.0       0.1
 0 C  px              0.0       4.8       0.0       0.0       0.0       0.0
 0 C  py              0.0       0.8       0.0       0.0       0.0       0.0
 0 C  dxz             0.0       0.0       0.3       0.0       0.4       0.1
 0 C  dyz             0.0       0.0       0.0       0.0       0.1       0.0
 0 C  dx2y2           0.0       0.1       0.0       0.0       0.0       0.0
 1 C  s               0.0       0.1       0.0       0.0       0.0       0.0
 1 C  pz              0.3       0.0      13.1       0.2      24.4       4.7
 1 C  px              0.0       7.9       0.0       0.0       0.0       0.0
 1 C  dxz             0.0       0.0       0.2       0.2       0.0       0.3
 1 C  dyz             0.1       0.0       0.0       0.2       0.2       0.4
 1 C  dxy             0.0       0.3       0.0       0.0       0.0       0.0
 2 C  s               0.0       0.1       0.0       0.0       0.0       0.0
 2 C  pz              8.6       0.0       3.2      13.2      15.5      17.8
 2 C  py              0.0       0.3       0.0       0.0       0.0       0.0
 2 C  dxz             0.1       0.0       0.0       0.0       0.1       0.2
 2 C  dyz             0.0       0.0       0.2       0.1       0.6       0.1
 2 C  dxy             0.0       0.1       0.0       0.0       0.0       0.0
 3 N  pz             16.0       0.0       4.4       7.8      14.6       2.5
 3 N  px              0.0       0.2       0.0       0.0       0.0       0.0
 3 N  py              0.0       0.2       0.0       0.0       0.0       0.0
 3 N  dxz             0.0       0.0       0.1       0.3       0.2       0.2
 3 N  dx2y2           0.0       0.2       0.0       0.0       0.0       0.0
 4 C  pz              0.6       0.0       4.7      19.5       2.3       0.7
 4 C  px              0.0       4.0       0.0       0.0       0.0       0.0
 4 C  py              0.0       9.1       0.0       0.0       0.0       0.0
 4 C  dxz             0.3       0.0       0.2       0.1       0.4       1.0
 4 C  dyz             0.2       0.0       0.4       0.2       0.1       0.1
 4 C  dx2y2           0.0       0.3       0.0       0.0       0.0       0.0
 5 C  s               0.0       0.1       0.0       0.0       0.0       0.0
 5 C  pz              4.9       0.0      18.7      16.1       0.0       6.0
 5 C  px              0.0       5.6       0.0       0.0       0.0       0.0
 5 C  py              0.0       8.0       0.0       0.0       0.0       0.0
 5 C  dxz             0.1       0.0       0.0       0.0       0.6       0.4
 5 C  dyz             0.1       0.0       0.2       0.2       0.0       0.4
 5 C  dx2y2           0.0       0.7       0.0       0.0       0.0       0.0
 5 C  dxy             0.0       0.2       0.0       0.0       0.0       0.0
 6 C  s               0.0       0.1       0.0       0.0       0.0       0.0
 6 C  pz             16.2       0.0      16.8       1.0      13.8      23.5
 6 C  px              0.0       2.3       0.0       0.0       0.0       0.0
 6 C  py              0.0       5.2       0.0       0.0       0.0       0.0
 6 C  dxz             0.1       0.0       0.0       0.6       0.0       0.0
 6 C  dyz             0.1       0.0       0.1       0.1       0.0       0.2
 6 C  dx2y2           0.0       0.8       0.0       0.0       0.0       0.0
 6 C  dxy             0.0       0.3       0.0       0.0       0.0       0.0
 7 C  pz             21.6       0.0       0.7      24.7       2.6       3.1
 7 C  px              0.0       3.5       0.0       0.0       0.0       0.0
 7 C  py              0.0       5.2       0.0       0.0       0.0       0.0
 7 C  dxz             0.0       0.0       0.2       0.0       0.3       0.9
 7 C  dyz             0.1       0.0       0.1       0.0       0.2       0.3
 7 C  dx2y2           0.0       0.2       0.0       0.0       0.0       0.0
 8 C  pz             19.8       0.0       9.2       9.8       9.8      12.9
 8 C  px              0.0       2.4       0.0       0.0       0.0       0.0
 8 C  py              0.0       5.3       0.0       0.0       0.0       0.0
 8 C  dxz             0.1       0.0       0.0       0.0       0.0       0.2
 8 C  dyz             0.0       0.0       0.2       0.4       0.2       0.6
 8 C  dx2y2           0.0       0.5       0.0       0.0       0.0       0.0
 9 C  s               0.0       0.1       0.0       0.0       0.0       0.0
 9 C  pz             10.3       0.0      21.8       4.8       9.2      22.1
 9 C  px              0.0       3.1       0.0       0.0       0.0       0.0
 9 C  py              0.0       3.7       0.0       0.0       0.0       0.0
 9 C  dxz             0.0       0.0       0.0       0.4       0.2       0.0
 9 C  dyz             0.1       0.0       0.0       0.0       0.0       0.3
 9 C  dx2y2           0.0       0.6       0.0       0.0       0.0       0.0
 9 C  dxy             0.0       0.4       0.0       0.0       0.0       0.0
10 H  s               0.1       1.1       1.5       0.0       1.5       0.4
11 H  s               0.1       0.9       1.7       0.0       1.6       0.4
12 H  s               0.0       0.5       0.0       0.0       0.0       0.0
13 H  s               0.0       0.2       0.0       0.0       0.0       0.0
14 H  s               0.0       0.6       0.0       0.0       0.0       0.0
15 H  s               0.0       8.2       0.0       0.0       0.0       0.0
16 H  s               0.0       0.4       0.0       0.0       0.0       0.0
17 H  s               0.0       3.5       0.0       0.0       0.0       0.0
18 H  s               0.0       7.1       0.0       0.0       0.0       0.0

                     36        37        38        39        40        41   
                   0.00202   0.03281   0.03482   0.05207   0.06583   0.08870
                   0.00000   0.00000   0.00000   0.00000   0.00000   0.00000
                  --------  --------  --------  --------  --------  --------
 0 C  s               0.0       0.2       0.0      11.1       7.6       3.5
 0 C  pz              0.1       0.0       1.8       0.0       0.0       0.0
 0 C  px              0.0       0.3       0.0       0.2       1.3       3.5
 0 C  py              0.0       0.1       0.0       1.7       0.9       2.0
 0 C  dxz             0.0       0.0       1.4       0.0       0.0       0.0
 0 C  dyz             0.0       0.0       0.2       0.0       0.0       0.0
 0 C  dxy             0.0       0.0       0.0       0.0       0.1       0.1
 1 C  s               0.0       0.1       0.0       0.0       0.2       0.2
 1 C  pz              0.3       0.0      26.3       0.0       0.0       0.0
 1 C  px              0.0       0.1       0.0       0.2       0.3       0.1
 1 C  py              0.0       0.1       0.0       0.1       0.1       0.3
 1 C  dxz             0.2       0.0       0.2       0.0       0.0       0.0
 1 C  dyz             0.2       0.0       0.8       0.0       0.0       0.0
 1 C  dx2y2           0.0       0.1       0.0       0.0       0.0       0.3
 1 C  dxy             0.0       0.3       0.0       0.1       0.0       0.3
 2 C  s               0.0       0.6       0.0       0.5       1.8       0.4
 2 C  pz              2.7       0.0      18.0       0.0       0.0       0.0
 2 C  px              0.0       3.1       0.0       0.4       1.2       0.4
 2 C  py              0.0       0.5       0.0       0.3       0.3       0.6
 2 C  dxz             0.2       0.0       0.3       0.0       0.0       0.0
 2 C  dyz             0.2       0.0       0.5       0.0       0.0       0.0
 2 C  dx2y2           0.0       0.2       0.0       0.0       0.0       0.0
 2 C  dxy             0.0       0.5       0.0       0.1       0.0       0.2
 3 N  s               0.0      10.5       0.0       0.8       0.2       0.5
 3 N  pz              9.9       0.0       5.6       0.0       0.0       0.0
 3 N  px              0.0       0.1       0.0       0.1       0.5       0.0
 3 N  py              0.0       9.8       0.0       0.0       0.1       0.1
 3 N  dz2             0.0       0.1       0.0       0.1       0.0       0.0
 3 N  dxz             0.1       0.0       0.1       0.0       0.0       0.0
 3 N  dyz             0.3       0.0       0.2       0.0       0.0       0.0
 3 N  dx2y2           0.0       0.3       0.0       0.0       0.1       0.0
 4 C  s               0.0       0.1       0.0       0.2       0.2       0.2
 4 C  pz             24.1       0.0       1.9       0.0       0.0       0.0
 4 C  px              0.0       0.2       0.0       0.1       0.1       0.4
 4 C  py              0.0       0.0       0.0       0.2       0.2       1.1
 4 C  dxz             0.1       0.0       0.1       0.0       0.0       0.0
 4 C  dyz             0.0       0.0       0.9       0.0       0.0       0.0
 4 C  dx2y2           0.0       0.5       0.0       0.0       0.0       0.0
 4 C  dxy             0.0       0.0       0.0       0.4       0.4       0.6
 5 C  s               0.0       0.4       0.0       0.3       0.0       0.4
 5 C  pz              6.3       0.0       9.9       0.0       0.0       0.0
 5 C  px              0.0       0.0       0.0       0.0       0.2       0.0
[...]
 2 C  s               1.9       1.1       0.8       0.5       0.8       0.4
 2 C  px              0.3       0.8       1.1       0.0       1.1       0.1
 2 C  py              1.0       0.4       1.0       2.2       0.4       0.1
 2 C  dz2             2.2       1.4       1.2       0.1       0.2       0.1
 2 C  dx2y2           6.0       2.3       1.8       2.8       4.6       7.6
 2 C  dxy             0.1       2.0       0.5       6.7       0.7      13.8
 3 N  s               0.6       4.0       2.8       1.3       0.2       0.2
 3 N  px              0.0       0.2       0.1       0.1       4.3       0.2
 3 N  py              0.1       0.6       0.8       0.7       0.1       0.2
 3 N  dz2             5.1      20.7      13.8       2.9       0.3       0.3
 3 N  dx2y2           0.4       0.2       4.4       0.2       3.7      21.8
 3 N  dxy             0.7       2.3       1.4       0.1      34.3       0.2
 4 C  s               3.9       0.1       0.7       0.6       2.9       0.0
 4 C  px              0.3       0.2       0.4       0.1       2.3       0.1
 4 C  py              0.3       0.5       0.6       0.0       0.5       0.6
 4 C  dz2             2.8       1.9       0.9       0.3       1.1       0.0
 4 C  dx2y2           0.5       2.4       0.3       3.6       1.7       1.4
 4 C  dxy             6.1       0.5       4.3       1.7       3.7       0.1
 5 C  s               0.7       0.0       0.1       2.4       0.1       0.4
 5 C  px              0.2       0.3       0.0       1.4       0.0       0.6
 5 C  py              2.9       0.2       0.7       0.1       0.0       0.1
 5 C  dz2             0.9       0.2       0.0       1.8       0.0       0.4
 5 C  dx2y2           1.9       1.2       5.8      10.4       2.3       0.2
 5 C  dxy             2.3       1.1       1.7       0.4       5.2      10.2
 6 C  s               1.3       1.5       0.2       0.2       0.3       0.3
 6 C  px              0.3       1.1       0.5       0.2       1.1       0.6
 6 C  py              0.6       0.2       0.1       0.1       0.1       0.6
 6 C  dz2             2.3       0.6       0.0       0.3       0.2       0.1
 6 C  dx2y2           0.0       0.5       1.1       1.5       6.9       2.3
 6 C  dxy            12.7       3.1       2.2       0.1       0.0       2.0
 7 C  s               0.1       0.0       0.6       0.1       0.6       0.1
 7 C  px              0.0       1.4       1.0       0.1       0.5       0.3
 7 C  py              0.2       1.5       1.8       0.1       0.1       0.0
 7 C  dz2             0.7       0.0       0.7       0.3       0.3       0.0
 7 C  dx2y2           0.0      16.7       4.7       1.3       2.5       0.6
 7 C  dxy             7.3       0.6       6.8       0.4       5.3       0.0
 8 C  s               0.4       0.0       0.7       0.4       0.5       0.0
 8 C  px              0.2       0.0       0.0       0.2       0.1       0.0
 8 C  py              0.3       3.1       2.3       0.4       0.2       0.0
 8 C  dz2             0.1       0.1       1.0       0.2       0.5       0.0
 8 C  dx2y2           0.1       0.5       9.4       4.7       1.5       0.0
 8 C  dxy             6.2      14.6       4.2       2.3       3.1       0.0
 9 C  s               0.0       2.6       0.1       0.2       0.2       0.0
 9 C  px              1.8       0.1       0.3       0.8       0.7       0.1
 9 C  py              0.3       1.1       0.1       0.2       0.3       0.0
 9 C  dz2             0.5       1.6       0.5       0.1       0.3       0.0
 9 C  dx2y2          11.3       0.6       4.6       0.4       0.2       0.0
 9 C  dxy             0.0       0.9       1.0       6.8       0.6       0.4
13 H  s               0.0       0.0       0.1       0.1       0.0       1.1
14 H  s               0.0       0.8       0.0       0.1       0.3       1.1
15 H  s               0.1       0.0       0.0       0.1       0.2       0.0
16 H  s               0.2       0.0       0.2       0.0       0.3       0.0
17 H  s               0.0       0.0       0.2       0.3       0.1       0.0
18 H  s               0.3       0.0       0.0       0.3       0.0       0.0

                    156       157   
                   3.19860   3.38809
                   0.00000   0.00000
                  --------  --------
 0 C  py              0.1       0.0
 0 C  dx2y2           0.6       0.1
 0 C  dxy             0.2       0.1
 1 C  s               0.1       0.1
 1 C  px              0.0       0.7
 1 C  py              0.0       0.1
 1 C  dz2             0.3       0.0
 1 C  dx2y2           2.3       1.8
 1 C  dxy             2.1       0.7
 2 C  s               0.3       0.0
 2 C  px              0.5       0.1
 2 C  py              1.0       0.2
 2 C  dz2             0.1       0.0
 2 C  dx2y2           0.0       0.5
 2 C  dxy             2.0       0.6
 3 N  s               0.1       0.2
 3 N  px              1.2       1.4
 3 N  py              0.1       0.2
 3 N  dz2             0.3       0.1
 3 N  dx2y2          14.2       0.5
 3 N  dxy            10.2       6.5
 4 C  s               1.0       0.1
 4 C  px              0.1       0.3
 4 C  py              1.6       0.9
 4 C  dz2             1.0       0.1
 4 C  dx2y2          23.1       0.0
 4 C  dxy             0.2      18.7
 5 C  s               0.2       0.5
 5 C  px              0.2       0.4
 5 C  py              1.6       0.2
 5 C  dz2             0.6       0.2
 5 C  dx2y2           0.0      15.4
 5 C  dxy            15.5       0.2
 6 C  s               0.6       0.7
 6 C  px              0.7       0.0
 6 C  py              0.6       0.0
 6 C  dz2             0.4       0.3
 6 C  dx2y2           0.2       6.9
 6 C  dxy             3.9       3.8
 7 C  s               0.0       1.1
 7 C  px              0.2       0.1
 7 C  py              0.1       0.1
 7 C  dz2             0.1       0.5
 7 C  dx2y2           0.7       0.3
 7 C  dxy             1.0       9.1
 8 C  s               0.0       1.0
 8 C  px              0.0       0.1
 8 C  py              0.5       0.0
 8 C  dz2             0.1       0.4
 8 C  dx2y2           0.6       9.4
 8 C  dxy             0.6       0.5
 9 C  s               0.8       0.7
 9 C  px              1.7       0.0
 9 C  dz2             0.3       0.3
 9 C  dx2y2           3.0       5.5
 9 C  dxy             2.1       6.3
14 H  s               0.7       0.1
15 H  s               0.0       0.5
16 H  s               0.0       0.4
17 H  s               0.0       0.4
18 H  s               0.0       0.5


                      *****************************
                      * MAYER POPULATION ANALYSIS *
                      *****************************

  NA   - Mulliken gross atomic population
  ZA   - Total nuclear charge
  QA   - Mulliken gross atomic charge
  VA   - Mayer's total valence
  BVA  - Mayer's bonded valence
  FA   - Mayer's free valence

  ATOM       NA         ZA         QA         VA         BVA        FA
  0 C      6.2066     6.0000    -0.2066     3.9328     3.9328     0.0000
  1 C      6.0460     6.0000    -0.0460     4.0277     4.0277    -0.0000
  2 C      6.0814     6.0000    -0.0814     3.8043     3.8043     0.0000
  3 N      7.1810     7.0000    -0.1810     3.3727     3.3727    -0.0000
  4 C      5.8681     6.0000     0.1319     3.8909     3.8909     0.0000
  5 C      5.8994     6.0000     0.1006     3.9185     3.9185     0.0000
  6 C      6.1765     6.0000    -0.1765     3.7978     3.7978     0.0000
  7 C      6.0432     6.0000    -0.0432     3.8081     3.8081    -0.0000
  8 C      6.0706     6.0000    -0.0706     3.8301     3.8301     0.0000
  9 C      6.1480     6.0000    -0.1480     3.7395     3.7395     0.0000
 10 H      0.8936     1.0000     0.1064     0.9533     0.9533    -0.0000
 11 H      0.8924     1.0000     0.1076     0.9525     0.9525    -0.0000
 12 H      0.8960     1.0000     0.1040     0.9654     0.9654    -0.0000
 13 H      0.9538     1.0000     0.0462     0.9707     0.9707     0.0000
 14 H      0.7793     1.0000     0.2207     0.9211     0.9211     0.0000
 15 H      0.9690     1.0000     0.0310     0.9594     0.9594     0.0000
 16 H      0.9584     1.0000     0.0416     0.9494     0.9494    -0.0000
 17 H      0.9540     1.0000     0.0460     0.9494     0.9494    -0.0000
 18 H      0.9824     1.0000     0.0176     0.9580     0.9580     0.0000

  Mayer bond orders larger than 0.100000
B(  0-C ,  1-C ) :   1.1478 B(  0-C , 10-H ) :   0.9359 B(  0-C , 11-H ) :   0.9352 
B(  0-C , 12-H ) :   0.9368 B(  1-C ,  2-C ) :   1.5065 B(  1-C ,  5-C ) :   1.2660 
B(  2-C ,  3-N ) :   1.1678 B(  2-C , 13-H ) :   0.9722 B(  3-N ,  4-C ) :   1.1915 
B(  3-N , 14-H ) :   0.8718 B(  4-C ,  5-C ) :   1.2444 B(  4-C ,  9-C ) :   1.2900 
B(  5-C ,  6-C ) :   1.2949 B(  6-C ,  7-C ) :   1.4162 B(  6-C ,  9-C ) :   0.1054 
B(  6-C , 15-H ) :   0.9642 B(  7-C ,  8-C ) :   1.3240 B(  7-C , 16-H ) :   0.9598 
B(  8-C ,  9-C ) :   1.3930 B(  8-C , 17-H ) :   0.9586 B(  9-C , 18-H ) :   0.9762 


-------
TIMINGS
-------

Total SCF time: 0 days 0 hours 0 min 1 sec 

Total time                  ....       1.096 sec
Sum of individual times     ....       1.087 sec  ( 99.1%)

SCF preparation             ....       0.027 sec  (  2.5%)
Fock matrix formation       ....       0.990 sec  ( 90.3%)
  Startup                   ....       0.001 sec  (  0.1% of F)
  Split-RI-J                ....       0.477 sec  ( 48.2% of F)
  XC integration            ....       0.504 sec  ( 50.9% of F)
    Basis function eval.    ....       0.210 sec  ( 41.7% of XC)
    Density eval.           ....       0.112 sec  ( 22.3% of XC)
    XC-Functional eval.     ....       0.034 sec  (  6.7% of XC)
    XC-Potential eval.      ....       0.130 sec  ( 25.8% of XC)
Diagonalization             ....       0.000 sec  (  0.0%)
Density matrix formation    ....       0.002 sec  (  0.1%)
Total Energy calculation    ....       0.000 sec  (  0.0%)
Population analysis         ....       0.056 sec  (  5.1%)
Orbital Transformation      ....       0.003 sec  (  0.3%)
Orbital Orthonormalization  ....       0.000 sec  (  0.0%)
DIIS solution               ....       0.003 sec  (  0.3%)
  MO trafo                  ....       0.000 sec  (  0.0 % of DIIS)
  Orb grad                  ....       0.000 sec  (  0.0 % of DIIS)
  Energy W gradient         ....       0.000 sec  (  0.0 % of DIIS)
  DIIS error                ....       0.000 sec  ( 12.5 % of DIIS)
  DIIS work                 ....       0.003 sec  ( 86.1 % of DIIS)
  Form Q                    ....       0.000 sec  (  0.0 % of DIIS)
  Form QpQm                 ....       0.000 sec  (  0.0 % of DIIS)
  Exp/Cayley                ....       0.000 sec  (  0.0 % of DIIS)
  Orb update                ....       0.000 sec  (  0.0 % of DIIS)
  Wake-sleep                ....       0.000 sec  (  1.4 % of DIIS)
SOSCF solution              ....       0.006 sec  (  0.5%)
  MO trafo                  ....       0.004 sec  ( 63.6 % of SOSCF)
  Orb grad                  ....       0.000 sec  (  1.1 % of SOSCF)
  Rot update                ....       0.000 sec  (  2.6 % of SOSCF)
  Step                      ....       0.002 sec  ( 31.6 % of SOSCF)
Finished LeanSCF after   1.1 sec

Maximum memory used throughout the entire LEANSCF-calculation: 15.2 MB


-------------------------------------------------------------------------------
                          DFT DISPERSION CORRECTION                            
                                                                               
                                DFTD4 V3.4.0                                   
-------------------------------------------------------------------------------
The PBE functional is recognized
Active option DFTDOPT                   ...         5   

-------------------------   ----------------
Dispersion correction           -0.021761313
-------------------------   ----------------

------------------   -----------------
gCP correction             0.073062799
------------------   -----------------

-------------------------   --------------------
FINAL SINGLE POINT ENERGY      -402.257816159176
-------------------------   --------------------


------------------------------------------------------------------------------
                              ORCA PROPERTY CALCULATIONS
------------------------------------------------------------------------------

GBWName                                 ... sp.gbw
Number of atoms                         ...     19
Number of basis functions               ...    158
Max core memory                         ...   1024 MB

Electric properties:
Dipole moment                           ... YES
Quadrupole moment                       ...  NO
Static polarizability (Dipole/Dipole)   ...  NO
Static polarizability (Dipole/Quad.)    ...  NO
Static polarizability (Quad./Quad.)     ...  NO
Static polarizability (Velocity)        ...  NO

Atomic electric properties:
Dipole moment                           ...  NO
Quadrupole moment                       ...  NO
Static polarizability                   ...  NO

Choice of electric origin               ... Center of mass
Position of electric origin             ...    -0.000008    -0.000003     0.000000

General magnetic properties:
Magnetizability                         ...  NO

EPR properties:
g-Tensor (aka g-matrix)                 ...  NO
Zero-Field splitting spin-orbit         ...  NO
Zero-field splitting spin-spin          ...  NO
Hyperfine couplings                     ...  NO (   0 nuclei)
Quadrupole couplings                    ...  NO (   0 nuclei)
Contact density                         ...  NO (   0 nuclei)

NMR properties:
Chemical shifts                         ...  NO (   0 nuclei)
Spin-rotation constants                 ...  NO (   0 nuclei)
Spin-spin couplings                     ...  NO (   0 nuclei,    0 pairs)

Choice of magnetic origin               ... GIAO
Position of magnetic origin             ...     0.000000     0.000000     0.000000

Properties with geometric perturbations:
SCF Hessian                             ...  NO
IR spectrum                             ...  NO
VCD spectrum                            ...  NO
X-ray spectroscopy properties:
SCF XES/XAS/RIXS spectra                ...  NO


-------------
DIPOLE MOMENT
-------------

Method             : SCF
Type of density    : Electron Density
Multiplicity       :   1
Irrep              :   0
Energy             :  -402.3091176444997927 Eh
Relativity type    : 
Basis              : AO
                                X                 Y                 Z
Electronic contribution:      2.612669528      -3.629846910      -0.000440897
Nuclear contribution   :     -3.056927135       2.851302985       0.001493587
                        -----------------------------------------
Total Dipole Moment    :     -0.444257606      -0.778543925       0.001052690
                        -----------------------------------------
Magnitude (a.u.)       :      0.896379703
Magnitude (Debye)      :      2.278416136



--------------------
Rotational spectrum 
--------------------
 
Rotational constants in cm-1:             0.088104             0.042776             0.028950 
Rotational constants in MHz :          2641.291866          1282.390618           867.903775 

Dipole components along the rotational axes: 
x,y,z [a.u.] :     0.443420    -0.779021     0.001054 
x,y,z [Debye]:     1.127085    -1.980114     0.002679 

 

Dipole moment calculation done in   0.0 sec 

Maximum memory used throughout the entire PROP-calculation: 9.9 MB

--------------------------------
SUGGESTED CITATIONS FOR THIS RUN
--------------------------------

Below you find a list of papers that are relevant to this ORCA run
We neither can nor want to force you to cite these papers, but we appreciate if you do
You receive ORCA, which is the product of decades of hard work by many enthusiastic individuals, for free
The only thing we kindly ask in return is that you cite our papers,
We deeply appreciate it, if you show your appreciation for ORCA by not just citing the generic ORCA reference.

Please note that relegating all ORCA citations to the supporting information does *not* help us.
SI sections are not indexed - citations you put there will not count into any citation statistics
But we need these citations in order to attract the funding resources that allow us to do what we are doing

Therefore, if you are a happy ORCA user, please consider citing a few of the papers listed below in the main body of your paper

In addition to the list printed below, the program has created the file sp.bibtex that contains the list in bibtex format
You can import this file easily into all common literature databanks and citation aid programs


List of essential papers. We consider these as the minimum necessary citations

  1. Neese,F.
     Software update: the ORCA program system, version 5.0
     WIRES Comput. Molec. Sci., 2022 12(1)e1606
     doi.org/10.1002/wcms.1606

List of papers to cite with high priority. The work reported in these papers was absolutely
necessary for this run to complete.
Our perspective: the developers of density functionals and basis sets usually get cited in chemistry papers
Good! But without the algorithms to do something with them, the functionals or basis sets would not do anything.
Hence, in our opinion, the algorithm design and method developments papers are equally worthy of getting cited

  1. Neese,F.
     An improvement of the resolution of the identity approximation for the formation of the Coulomb matrix
     J. Comp. Chem., 2003 24(14)1740-1747
     doi.org/10.1002/jcc.10318
  2. Neese,F.
     The SHARK Integral Generation and Digestion System
     J. Comp. Chem., 2022  1-16
     doi.org/10.1002/jcc.26942
  3. Caldeweyher,E.; Bannwarth,C.; Grimme,S.
     Extension of the D3 dispersion coefficient model
     J. Chem. Phys., 2017 147 034112
     doi.org/10.1063/1.4993215
  4. Caldeweyher,E.; Ehlert,S.; Hansen,A.; Neugebauer,H.; Spicher,S.; Bannwarth,C.; Grimme,S.
     A generally applicable atomic-charge dependent London dispersion correction
     J. Chem. Phys., 2019 150 154122
     doi.org/10.1063/1.5090222
  5. Caldeweyher,E.; Mewes,J.; Ehlert,S.; Grimme,S.
     Extension and evaluation of the D4 London-dispersion model for periodic systems
     Phys. Chem. Chem. Phys., 2020 22(16)8499-8512
     doi.org/10.1039/D0CP00502A
  6. Wittmann,L.; Gordiy,I.; Friede,M.; Helmich-Paris,B.; Grimme,S.; Hansen,A.; Bursch,M.
     Extension of the D3 and D4 London Dispersion Corrections to the full Actinides Series
     Phys. Chem. Chem. Phys., 2024 26(32)21379-21394
     doi.org/https://doi.org/10.1039/D4CP01514B 

List of suggested additional citations. These are papers that are important in the 'surrounding' of 
of this run, or papers that preceded the highly important papers. If you like your results we are grateful for a citation.

  1. Neese,F.
     The ORCA program system
     WIRES Comput. Molec. Sci., 2012 2(1)73-78
     doi.org/10.1002/wcms.81
  2. Neese,F.
     Software update: the ORCA program system, version 4.0
     WIRES Comput. Molec. Sci., 2018 8(1)1-6
     doi.org/10.1002/wcms.1327
  3. Neese,F.; Wennmohs,F.; Becker,U.; Riplinger,C.
     The ORCA quantum chemistry program package
     J. Chem. Phys., 2020 152 Art. No. L224108
     doi.org/10.1063/5.0004608

List of optional additional citations

  1. Neese,F.
     Approximate second-order SCF convergence for spin unrestricted wavefunctions
     Chem. Phys. Lett., 2000 325(1-3)93-98
     doi.org/10.1016/s0009-2614(00)00662-x

Timings for individual modules:

Sum of individual times          ...        1.480 sec (=   0.025 min)
Startup calculation              ...        0.285 sec (=   0.005 min)  19.2 %
SCF iterations                   ...        1.160 sec (=   0.019 min)  78.4 %
Property calculations            ...        0.035 sec (=   0.001 min)   2.4 %
                             ****ORCA TERMINATED NORMALLY****
TOTAL RUN TIME: 0 days 0 hours 0 minutes 1 seconds 548 msec
