20
 energy: -36.131464310622 gnorm: 0.042655491661 xtb: 6.7.1 (41059b4)
C            0.85510875052549        1.38354941286230       -0.64353236149961
C            1.59825435862649        0.18683825604689       -0.06442849017262
H            2.58300309136323        0.09774955085120       -0.55573831148705
C            0.79159664234724       -1.09665001517358       -0.30945417876010
H            1.22734581943370       -1.92074937151777        0.27449354586271
C           -0.66942041366831       -0.91523429926475        0.12136223796948
H           -1.24946300231477       -1.76641769719782       -0.25223520698334
C           -1.27390947776373        0.37517377805884       -0.45440827977658
H           -1.34580491084304        0.32302317202513       -1.55126056003382
O           -0.44701031864139        1.49970457080610       -0.09073862160888
O           -2.54276787566124        0.59478484320931        0.05070833329631
O           -0.80525472769084       -0.91139568451298        1.53985897117406
O            0.76340825891394       -1.39755436341291       -1.70655447539038
O            1.76651604579775        0.29200295291065        1.35908122275580
H            0.81584490799916        1.27869488994061       -1.74052074591751
H            1.38009262098903        2.31829959498083       -0.41038715499799
H           -2.50147451507893        0.34799636184447        0.98857216408715
H           -0.10233365323193       -0.33522004895666        1.88148573166209
H            1.64558024518010       -1.67552865433821       -1.97650372285082
H            1.96261429256692        1.21136892426457        1.57491620454815
20
 energy: -36.132935383274 gnorm: 0.021397305901 xtb: 6.7.1 (41059b4)
C            0.85099026039146        1.38288215717376       -0.64144673265598
C            1.59359444224859        0.18336644864672       -0.05746973851857
H            2.58374677402518        0.10113619401553       -0.53621624445117
C            0.78745526248022       -1.09954255899784       -0.32364591371506
H            1.22558991545996       -1.92036960297281        0.26024385768884
C           -0.66996512751310       -0.91802428187607        0.11959493336192
H           -1.25943271694286       -1.76493745989126       -0.24571494861419
C           -1.26695095161391        0.38075979208928       -0.45185858068865
H           -1.33900014843458        0.32475089961521       -1.54705651093081
O           -0.44045407897824        1.49460101395132       -0.09211715072846
O           -2.52877331026300        0.59799068892058        0.05393045444589
O           -0.80006727281794       -0.90737419993791        1.52696547921306
O            0.77176636744454       -1.40997630698752       -1.70690354585143
O            1.75548162977804        0.29743456602375        1.35266000303627
H            0.79899747147246        1.27383536694750       -1.73511350609271
H            1.36391786088094        2.31965512854007       -0.39987332773724
H           -2.49296235685106        0.36190613467077        0.99529998530147
H           -0.09303789269673       -0.33792247199773        1.87044103563653
H            1.65561345964585       -1.68595966294448       -1.97360926001097
H            1.95541655113309        1.21622432843734        1.56660601318827
20
 energy: -36.133339398260 gnorm: 0.003872317356 xtb: 6.7.1 (41059b4)
C            0.84454140946811        1.38049820473331       -0.64297118069468
C            1.59266115361048        0.18194168862014       -0.05130711778118
H            2.58562988588864        0.10260474184321       -0.52586953304695
C            0.78823384307181       -1.10368560700748       -0.33171544614346
H            1.22741302149868       -1.92362486250312        0.25488365631626
C           -0.66764328965497       -0.91815713950978        0.12078757552644
H           -1.26490268292981       -1.76012309565838       -0.24209932434947
C           -1.26576196038258        0.38613070272808       -0.45085638867806
H           -1.33792818390967        0.32603035405996       -1.54629735066183
O           -0.43888622364378        1.48847172927829       -0.09361933443544
O           -2.52253760299390        0.60198737545304        0.05421924006779
O           -0.78785436621187       -0.90832342936890        1.51912522581712
O            0.77904288601238       -1.41089204869720       -1.70397748548476
O            1.74024603633343        0.29744189410309        1.34876838210688
H            0.78988528292265        1.26568355056291       -1.73483436700847
H            1.35323625678091        2.31713727719977       -0.39895365038260
H           -2.49182164332849        0.38157194193034        1.00017428849148
H           -0.07875111587120       -0.34347283209113        1.86640535539445
H            1.66270642927683       -1.68532420255373       -1.97332455684377
H            1.94441700291125        1.21453993030379        1.56617831366728
20
 energy: -36.133367169360 gnorm: 0.001487327705 xtb: 6.7.1 (41059b4)
C            0.84407219727258        1.38051337234506       -0.64431386849762
C            1.59281118001976        0.18249817281104       -0.04945050247066
H            2.58579639227569        0.10377715228955       -0.52523457076716
C            0.78848512011402       -1.10428299347793       -0.33282773938979
H            1.22691824124258       -1.92403577600135        0.25606330852683
C           -0.66778632309467       -0.92013143287788        0.12197481029104
H           -1.26578269572334       -1.76109742606663       -0.24299034400884
C           -1.26536486710035        0.38639836969458       -0.45008811087213
H           -1.33826378570465        0.32374577576905       -1.54593277015066
O           -0.43924305782393        1.48860013748297       -0.09408003679769
O           -2.52258628403645        0.60171326047633        0.05399273580421
O           -0.78658400571268       -0.91120197264994        1.51973104175538
O            0.77942561018411       -1.40842819427972       -1.70455658884484
O            1.73604990847216        0.29858293276908        1.35017268337792
H            0.79139070190872        1.26216312292224       -1.73614120885007
H            1.35494368446937        2.31711090527321       -0.40381139641583
H           -2.49205295124136        0.38894746357357        1.00152365978768
H           -0.07627213620963       -0.34788574773109        1.86791795749899
H            1.66292809507052       -1.68143007942854       -1.97626552593869
H            1.94304111446644        1.21487913053264        1.56903276783896
20
 energy: -36.133375379060 gnorm: 0.001216007507 xtb: 6.7.1 (41059b4)
C            0.84321086997482        1.37981293093457       -0.64612426047043
C            1.59281180604971        0.18315715349568       -0.04713187234253
H            2.58619663959087        0.10521060329425       -0.52321116212407
C            0.78959809940973       -1.10530284881065       -0.33252619938836
H            1.22836172431348       -1.92525449845365        0.25726875038146
C           -0.66752756106933       -0.92170154282872        0.12319070531001
H           -1.26541167324310       -1.76133773987654       -0.24541204078229
C           -1.26588211122038        0.38637578046075       -0.44961062044965
H           -1.33974839434414        0.32064405119988       -1.54570372060656
O           -0.44061515888034        1.48906237025939       -0.09516213512100
O           -2.52441863782825        0.60174999473970        0.05318288528717
O           -0.78567066512848       -0.91602461626631        1.52085317279153
O            0.77990695988664       -1.40494243135608       -1.70444089261974
O            1.73180102882560        0.29959655177068        1.35246442196684
H            0.79163877239906        1.25667894660334       -1.73779856868363
H            1.35636419174872        2.31713887057415       -0.41152948329736
H           -2.49285669734201        0.40153721344059        1.00295697106346
H           -0.07332331300716       -0.35553388212981        1.87029414810733
H            1.66339173765618       -1.67490859573648       -1.97968638482475
H            1.94409852105726        1.21447786211149        1.57284258767961
20
 energy: -36.133377906433 gnorm: 0.000399574450 xtb: 6.7.1 (41059b4)
C            0.84326528081714        1.37957238793365       -0.64604677265266
C            1.59259856376437        0.18319378017085       -0.04730290714551
H            2.58636949855635        0.10533819550928       -0.52222802875820
C            0.78932601866322       -1.10476643483667       -0.33232960665537
H            1.22829114470085       -1.92484894921918        0.25647874993808
C           -0.66770117284996       -0.92174304778107        0.12296468565399
H           -1.26528483060533       -1.76163319038715       -0.24533541210245
C           -1.26563900824507        0.38589719014785       -0.44982182574625
H           -1.33967676473470        0.32053179994628       -1.54566458677920
O           -0.44059352752562        1.48894699490638       -0.09547559439770
O           -2.52414671143299        0.60130757333705        0.05315476400776
O           -0.78636206484147       -0.91582741077899        1.52073551013528
O            0.77975227327141       -1.40534476730813       -1.70435372563788
O            1.73183684961223        0.29965481669881        1.35242639337007
H            0.79089045114730        1.25651061454359       -1.73756441981747
H            1.35552592032595        2.31711072072348       -0.41096718985550
H           -2.49181211931461        0.40249216998639        1.00302809422716
H           -0.07381581411107       -0.35568280527887        1.86992381784043
H            1.66355109533962       -1.67450615099819       -1.97923253203058
H            1.94555105631125        1.21423268611089        1.57232688828301
20
 energy: -36.133378675354 gnorm: 0.000172332302 xtb: 6.7.1 (41059b4)
C            0.84304115640154        1.37926672976380       -0.64613372062929
C            1.59211084720511        0.18312966496720       -0.04709614797614
H            2.58625631931354        0.10536735444285       -0.52102824400712
C            0.78941530222559       -1.10483404188886       -0.33224038047620
H            1.22859887664462       -1.92512054298502        0.25592035771495
C           -0.66753686706611       -0.92179642379710        0.12285622901309
H           -1.26487218465388       -1.76187533453773       -0.24526831154456
C           -1.26580075677421        0.38537696590628       -0.44997684546807
H           -1.34001419911670        0.31996003196303       -1.54567873199046
O           -0.44091627590443        1.48854438313434       -0.09589335108673
O           -2.52439526828473        0.60094719020643        0.05285747049524
O           -0.78637929630709       -0.91582327453223        1.52063469552978
O            0.77984650989684       -1.40546389518922       -1.70442155499988
O            1.73074487882979        0.29977739920613        1.35274664150367
H            0.79047099118562        1.25589105387174       -1.73752966582145
H            1.35461472383121        2.31705666295581       -0.41095539601155
H           -2.49127594856588        0.40558575220021        1.00331443589724
H           -0.07347077499008       -0.35629342290205        1.86981223558437
H            1.66408218734481       -1.67297869287237       -1.97945126394403
H            1.94740591763333        1.21371861351299        1.57224785009418
20
 energy: -36.133378901871 gnorm: 0.000160978037 xtb: 6.7.1 (41059b4)
C            0.84283555591015        1.37909679296341       -0.64620957383717
C            1.59204147420049        0.18314856849282       -0.04693233537299
H            2.58636529140164        0.10550410212505       -0.52056126867460
C            0.78925399842895       -1.10470628000977       -0.33209785724739
H            1.22850010744911       -1.92510361493516        0.25586509128676
C           -0.66778245065664       -0.92214563580299        0.12298343331567
H           -1.26500092855002       -1.76241583801792       -0.24498377880884
C           -1.26592662454404        0.38492470184064       -0.45021419850258
H           -1.34023368024918        0.31928585830633       -1.54591877169407
O           -0.44129200415076        1.48830586089942       -0.09621957832071
O           -2.52460357303724        0.60049119905919        0.05239487419985
O           -0.78645596573644       -0.91594470937532        1.52080665604620
O            0.77977154678314       -1.40513879607062       -1.70437837754971
O            1.73022703409123        0.29982370313663        1.35300184465706
H            0.79051252468406        1.25564740374440       -1.73761611787905
H            1.35423485468049        2.31696034185623       -0.41102905263774
H           -2.49104671924146        0.40752731600493        1.00325898618514
H           -0.07326324724883       -0.35666769201708        1.86982783592843
H            1.66435123205834       -1.67134510040727       -1.97959817144484
H            1.94943771257591        1.21318799163333        1.57233666222762
20
 energy: -36.133379047367 gnorm: 0.000091661656 xtb: 6.7.1 (41059b4)
C            0.84262391103684        1.37915338447051       -0.64605658732145
C            1.59186352514613        0.18311231073540       -0.04681926422559
H            2.58609252609677        0.10551481715075       -0.52064833883808
C            0.78922556289940       -1.10484756566297       -0.33203699000493
H            1.22850599241464       -1.92528272790032        0.25592329835868
C           -0.66780991953996       -0.92226056037527        0.12312358137266
H           -1.26495389683994       -1.76267634325887       -0.24461587045943
C           -1.26610352281365        0.38465908657489       -0.45038299289798
H           -1.34018541250778        0.31880292587309       -1.54611084040856
O           -0.44163173882556        1.48814803581175       -0.09634499957035
O           -2.52490998107312        0.60021088297597        0.05187154580769
O           -0.78645410896231       -0.91571375237325        1.52093022681184
O            0.77969323960037       -1.40514328582249       -1.70433766707212
O            1.73025079876837        0.29975041232785        1.35308409189029
H            0.79062059286277        1.25586406430290       -1.73751029817188
H            1.35394784634975        2.31702442421144       -0.41065800738830
H           -2.49139553896301        0.40821076360392        1.00290234281622
H           -0.07330305925663       -0.35628574702795        1.86983900419450
H            1.66447858229251       -1.67047805138174       -1.97975489667236
H            1.95137074016331        1.21267309919061        1.57231896365618
20
 energy: -36.133379185728 gnorm: 0.000058818669 xtb: 6.7.1 (41059b4)
C            0.84231947820307        1.37922752320711       -0.64578955347897
C            1.59176030601919        0.18307929491950       -0.04678961082966
H            2.58578914212439        0.10553721553221       -0.52110136657546
C            0.78915407683696       -1.10494589140240       -0.33190503497292
H            1.22852500972148       -1.92531784076522        0.25614200227438
C           -0.66788544408616       -0.92231766220986        0.12328235750954
H           -1.26498579944309       -1.76289255272211       -0.24414442309992
C           -1.26635747608124        0.38438523867340       -0.45063237055576
H           -1.34002428234119        0.31833024656859       -1.54638629672319
O           -0.44206854026348        1.48795928778205       -0.09643686852583
O           -2.52531594915258        0.59989566331366        0.05119171851391
O           -0.78642825390680       -0.91534656488739        1.52105920113765
O            0.77958963429015       -1.40524893348331       -1.70415420385663
O            1.73051351407458        0.29953301026426        1.35305070887088
H            0.79076120905500        1.25632668693218       -1.73733086923188
H            1.35353115475671        2.31705382299224       -0.40991307701442
H           -2.49203910609667        0.40835402383081        1.00232373799277
H           -0.07359722034030       -0.35540321261354        1.86979815014909
H            1.66459896435340       -1.66963536951144       -1.97977186668109
H            1.95408572112548        1.21186218700550        1.57222396697452
20
 energy: -36.133379272136 gnorm: 0.000064306769 xtb: 6.7.1 (41059b4)
C            0.84213439736118        1.37940542328201       -0.64555075939578
C            1.59163652971240        0.18311801732026       -0.04682456537763
H            2.58549787355888        0.10563569138773       -0.52151618480593
C            0.78906547790081       -1.10497211616181       -0.33179948955269
H            1.22845668263426       -1.92524202100041        0.25638646944848
C           -0.66796516769678       -0.92237005064905        0.12339403277484
H           -1.26500449838395       -1.76306423366911       -0.24385819781297
C           -1.26642025701481        0.38420836503858       -0.45079661567098
H           -1.33976604901072        0.31806213687674       -1.54656265043815
O           -0.44233780857943        1.48790128213468       -0.09642209480597
O           -2.52553636070587        0.59960459401308        0.05067139937472
O           -0.78656632749719       -0.91508534804515        1.52115617117403
O            0.77946260541446       -1.40547673492590       -1.70399874459689
O            1.73084492113721        0.29938380139764        1.35295619660317
H            0.79080105443360        1.25681450899846       -1.73714778471130
H            1.35322854227604        2.31721462604567       -0.40931522843535
H           -2.49252642572957        0.40801355474195        1.00181126897430
H           -0.07410197370388       -0.35461621251564        1.86978322378590
H            1.66459414835677       -1.66932377513749       -1.97973874503871
H            1.95642877438549        1.21122466429398        1.57208860038395
