16
 energy: -346.701466506189 gnorm: 0.017265042475 xtb: 6.7.1 (41059b4)
C           -2.92375468379559       -0.00186733550083       -0.00113019760050
C           -1.42439129753119       -0.00982171620435        0.00108431100048
C           -0.70824199321384       -1.19694200033040        0.00067954330030
C            0.67588085769950       -1.19554132812978        0.00011725430005
C            1.37086581040747        0.00567972530252       -0.00021659210010
C            0.66315996949386        1.20373920253341        0.00009863290004
C           -0.71606223041731        1.18787061112638        0.00072345420032
O            2.73302473421108        0.05779360232561       -0.00057453280025
H           -3.31845364347049       -1.01390867144929        0.03838960791701
H           -3.30297664986364        0.55330498224518        0.85587537397926
H           -3.29930463736201        0.48150405891337       -0.90252638519993
H           -1.23416444234689       -2.14102893034875        0.00108786640048
H            1.21908823724021       -2.13208466774478        0.00018463960008
H            1.21321110963761        2.13132856074445       -0.00002647300001
H           -1.25716230705708        2.12309896144080        0.00102674970045
H            3.09163340606998       -0.83760784087117       -0.00105534340047
16
 energy: -346.702070609729 gnorm: 0.005848127299 xtb: 6.7.1 (41059b4)
C           -2.93313641945278       -0.00017947858827       -0.00162410459823
C           -1.42917766543478       -0.01032722215526        0.00147459805994
C           -0.70806840697626       -1.20069336254884        0.00104925426263
C            0.68232055677680       -1.20227661044052       -0.00001577664493
C            1.37827813183773        0.00283733354714       -0.00055451737214
C            0.67375974869261        1.20546930495753       -0.00012295030114
C           -0.71157753872244        1.18842588898948        0.00102293746774
O            2.74350363235823        0.06462064119164       -0.00077845822989
H           -3.33408479367296       -1.01422567945603        0.03811452925414
H           -3.32326626418915        0.55347083524610        0.85721213108926
H           -3.31979416124300        0.48194499251883       -0.90444341705712
H           -1.23726922569229       -2.14797481415207        0.00167732806368
H            1.22621324984236       -2.14308956970728        0.00024400615585
H            1.22591793558593        2.13787589955512       -0.00003190556768
H           -1.25229774346047        2.12968639433713        0.00159517385166
H            3.10103123881932       -0.83004735406782       -0.00108073411300
16
 energy: -346.702124923106 gnorm: 0.001598485273 xtb: 6.7.1 (41059b4)
C           -2.93653038177609        0.00030029925882       -0.00180867187658
C           -1.43127025575646       -0.00978614870223        0.00139505680126
C           -0.70802104946318       -1.20124729011313        0.00113928348983
C            0.68459179562454       -1.20519886717218        0.00008199607602
C            1.38041108190002        0.00113132193679       -0.00058746952991
C            0.67755362093785        1.20555129150565       -0.00010238168529
C           -0.70964849890463        1.18894239052554        0.00108832749071
O            2.74781755608331        0.06821914196543       -0.00100518342317
H           -3.33939365804701       -1.01471199563283        0.03794138234259
H           -3.33149201317883        0.55275375447030        0.85766064783281
H           -3.32795011920735        0.48144028450212       -0.90503298632639
H           -1.23808111153789       -2.14969400683320        0.00195655582929
H            1.22739770882327       -2.14789751592900        0.00038479750846
H            1.23029510228475        2.13909856051618       -0.00000444201073
H           -1.24866767213486        2.13301310645459        0.00184841493775
H            3.10534017645428       -0.82639714048660       -0.00121713821897
16
 energy: -346.702127199081 gnorm: 0.000316754495 xtb: 6.7.1 (41059b4)
C           -2.93674950492311        0.00012929988660       -0.00185989142571
C           -1.43171969473429       -0.00917592204866        0.00137649867184
C           -0.70815882103365       -1.20061321830757        0.00119932635380
C            0.68469963325925       -1.20566468800872        0.00015473994874
C            1.38005957554120        0.00056562753501       -0.00060086872155
C            0.67766831043315        1.20513473610645       -0.00006108951244
C           -0.70944521676287        1.18934974311157        0.00109096914408
O            2.74849372024683        0.06922741165638       -0.00116737585472
H           -3.33897238406428       -1.01527899013421        0.03777637957140
H           -3.33244270058021        0.55203464332727        0.85768467646374
H           -3.32882661483665        0.48092283733291       -0.90503380470988
H           -1.23811239862915       -2.14916352257799        0.00205054963823
H            1.22617094096420       -2.14894871449034        0.00052581771426
H            1.23058014354317        2.13833082217352        0.00005985408923
H           -1.24714896489115        2.13413696951785        0.00186760621346
H            3.10625625153886       -0.82546985366685       -0.00132516590613
16
 energy: -346.702127199081 gnorm: 0.000316754495 xtb: 6.7.1 (41059b4)
C           -2.93674950492311        0.00012929988660       -0.00185989142571
C           -1.43171969473429       -0.00917592204866        0.00137649867184
C           -0.70815882103365       -1.20061321830757        0.00119932635380
C            0.68469963325925       -1.20566468800872        0.00015473994874
C            1.38005957554120        0.00056562753501       -0.00060086872155
C            0.67766831043315        1.20513473610645       -0.00006108951244
C           -0.70944521676287        1.18934974311157        0.00109096914408
O            2.74849372024683        0.06922741165638       -0.00116737585472
H           -3.33897238406428       -1.01527899013421        0.03777637957140
H           -3.33244270058021        0.55203464332727        0.85768467646374
H           -3.32882661483665        0.48092283733291       -0.90503380470988
H           -1.23811239862915       -2.14916352257799        0.00205054963823
H            1.22617094096420       -2.14894871449034        0.00052581771426
H            1.23058014354317        2.13833082217352        0.00005985408923
H           -1.24714896489115        2.13413696951785        0.00186760621346
H            3.10625625153886       -0.82546985366685       -0.00132516590613
