 Entering Gaussian System
 *********************************************
 Gaussian 98:
 frequency output generated by the xtb code
 *********************************************
                         Standard orientation:
 --------------------------------------------------------------------
  Center     Atomic     Atomic              Coordinates (Angstroms)
  Number     Number      Type              X           Y           Z
 --------------------------------------------------------------------
    1          6             0        0.841934    1.399787   -0.626873
    2          6             0        1.587196    0.183871   -0.057899
    3          1             0        2.570171    0.098296   -0.546704
    4          6             0        0.784591   -1.107096   -0.337176
    5          1             0        1.228735   -1.917485    0.251941
    6          6             0       -0.674913   -0.915916    0.116069
    7          1             0       -1.282363   -1.755725   -0.240371
    8          6             0       -1.275355    0.397049   -0.450083
    9          1             0       -1.369862    0.349816   -1.549251
   10          8             0       -0.453229    1.500372   -0.097975
   11          8             0       -2.532044    0.606440    0.057481
   12          8             0       -0.794557   -0.897442    1.514426
   13          8             0        0.890236   -1.510085   -1.674900
   14          8             0        1.734086    0.285136    1.342665
   15          1             0        0.812992    1.335457   -1.726319
   16          1             0        1.348234    2.327475   -0.345857
   17          1             0       -2.493522    0.408455    1.007655
   18          1             0       -0.064334   -0.360042    1.862642
   19          1             0        0.424195   -0.887910   -2.244932
   20          1             0        2.112360    1.144274    1.562701
 --------------------------------------------------------------------
     1 basis functions        1 primitive gaussians
     1 alpha electrons        1 beta electrons

 Harmonic frequencies (cm**-1), IR intensities (km*mol⁻¹),
 Raman scattering activities (A**4/amu), Raman depolarization ratios,
 reduced masses (AMU), force constants (mDyne/A) and normal coordinates:
                      1                      2                      3
                        a                      a                      a 
 Frequencies --    95.0740               146.1452               198.1208
 Red. masses --     4.6527                 5.3049                 3.8744
 Frc consts  --     0.0000                 0.0000                 0.0000
 IR Inten    --     1.0395                 4.4957                28.2906
 Raman Activ --     0.0000                 0.0000                 0.0000
 Depolar     --     0.0000                 0.0000                 0.0000
 Atom AN      X      Y      Z        X      Y      Z        X      Y      Z
   1   6    -0.07   0.10   0.25    -0.11   0.13   0.04    -0.01  -0.02   0.08
   2   6     0.01   0.01  -0.04    -0.02   0.09  -0.15    -0.01  -0.04   0.10
   3   1    -0.03   0.01  -0.09    -0.03   0.03  -0.09    -0.02  -0.00   0.00
   4   6    -0.03   0.02   0.02     0.00   0.03   0.04    -0.01   0.00   0.01
   5   1     0.00   0.01  -0.00    -0.02   0.06   0.10    -0.04  -0.01   0.02
   6   6    -0.00   0.02   0.10    -0.07   0.06  -0.17    -0.04   0.05  -0.14
   7   1    -0.00  -0.01   0.08    -0.01   0.03  -0.10    -0.00  -0.00  -0.00
   8   6     0.00  -0.06  -0.07    -0.04   0.17   0.05    -0.19  -0.02  -0.13
   9   1     0.08  -0.02  -0.03     0.00   0.11   0.01    -0.15  -0.01  -0.03
  10   8    -0.14  -0.06   0.20    -0.02   0.08   0.32    -0.19   0.04  -0.36
  11   8    -0.18  -0.16  -0.49    -0.06   0.10   0.07    -0.01  -0.12   0.42
  12   8     0.09   0.29   0.12    -0.22  -0.20  -0.20    -0.08   0.36  -0.16
  13   8    -0.16   0.02   0.01     0.29  -0.48   0.23     0.25   0.03   0.02
  14   8     0.44  -0.21  -0.08     0.24   0.06  -0.21     0.18  -0.25   0.11
  15   1    -0.00   0.10   0.07    -0.09   0.06   0.01     0.09   0.01   0.02
  16   1    -0.04   0.02   0.14    -0.02   0.03   0.00    -0.03  -0.01   0.08
  17   1    -0.11   0.03  -0.11    -0.03  -0.04   0.01     0.11  -0.10   0.09
  18   1     0.02   0.09  -0.00    -0.09  -0.03  -0.01    -0.02   0.10  -0.06
  19   1    -0.05   0.01   0.01     0.13  -0.16  -0.03     0.13   0.04  -0.02
  20   1     0.24  -0.11  -0.02     0.10   0.00  -0.06     0.27  -0.17   0.04
                      4                      5                      6
                        a                      a                      a 
 Frequencies --   222.3296               252.8520               267.2458
 Red. masses --     3.5653                 3.6630                 2.5135
 Frc consts  --     0.0000                 0.0000                 0.0000
 IR Inten    --     5.4516                11.6585                18.6719
 Raman Activ --     0.0000                 0.0000                 0.0000
 Depolar     --     0.0000                 0.0000                 0.0000
 Atom AN      X      Y      Z        X      Y      Z        X      Y      Z
   1   6    -0.06   0.06   0.10    -0.05   0.12   0.06    -0.10  -0.28  -0.06
   2   6    -0.08  -0.01  -0.05    -0.10   0.06   0.02    -0.01  -0.16   0.06
   3   1     0.00   0.04   0.03    -0.03   0.04  -0.00    -0.02  -0.07  -0.01
   4   6     0.02  -0.06  -0.15    -0.03   0.02  -0.02    -0.09  -0.08  -0.01
   5   1    -0.00   0.00  -0.01    -0.01   0.03   0.02    -0.08  -0.06  -0.02
   6   6     0.07   0.09  -0.06    -0.02   0.01   0.10    -0.15  -0.04  -0.04
   7   1    -0.02   0.03   0.04    -0.02   0.02   0.02    -0.05  -0.02   0.03
   8   6     0.01   0.09   0.00    -0.07   0.00   0.03    -0.18  -0.03   0.03
   9   1     0.02   0.07  -0.00    -0.03  -0.10   0.01    -0.04   0.01   0.01
  10   8    -0.03   0.07   0.21    -0.21   0.20  -0.35     0.00  -0.24   0.19
  11   8    -0.01  -0.10   0.02    -0.11   0.31  -0.11    -0.20   0.26  -0.05
  12   8     0.37   0.41  -0.04     0.39  -0.38   0.15     0.16   0.11  -0.00
  13   8     0.12  -0.33  -0.08     0.14  -0.13   0.06     0.31   0.20  -0.07
  14   8    -0.37  -0.24   0.00    -0.03  -0.20   0.04     0.21   0.13   0.01
  15   1    -0.04   0.05   0.03     0.07   0.06   0.01    -0.10  -0.14  -0.01
  16   1     0.00   0.00   0.05    -0.03   0.03   0.08    -0.01  -0.06  -0.11
  17   1     0.01  -0.04   0.00    -0.03   0.32   0.02    -0.06   0.16   0.00
  18   1     0.17   0.04  -0.08     0.16  -0.18   0.03     0.07   0.02  -0.06
  19   1     0.03  -0.12  -0.06     0.10  -0.02  -0.03     0.38   0.24  -0.05
  20   1    -0.39   0.05   0.08     0.09  -0.10   0.04    -0.17   0.14  -0.05
                      7                      8                      9
                        a                      a                      a 
 Frequencies --   285.2989               304.9009               355.1049
 Red. masses --     1.5722                 1.2704                 2.7514
 Frc consts  --     0.0000                 0.0000                 0.0000
 IR Inten    --    37.2692               146.1722                 7.8495
 Raman Activ --     0.0000                 0.0000                 0.0000
 Depolar     --     0.0000                 0.0000                 0.0000
 Atom AN      X      Y      Z        X      Y      Z        X      Y      Z
   1   6     0.05   0.06   0.09     0.03   0.12  -0.00    -0.06  -0.20  -0.22
   2   6     0.06   0.04   0.01    -0.00   0.02  -0.10    -0.02  -0.09   0.09
   3   1     0.00   0.03  -0.04     0.01   0.02  -0.00    -0.01  -0.02   0.01
   4   6     0.02   0.04   0.06     0.03   0.02  -0.02    -0.04  -0.02   0.05
   5   1     0.01   0.01   0.01     0.01   0.00  -0.01    -0.06  -0.03   0.01
   6   6     0.01   0.03   0.00     0.04   0.01   0.10     0.02   0.23   0.01
   7   1     0.02   0.01  -0.03     0.02   0.00   0.01    -0.04   0.12  -0.04
   8   6    -0.02  -0.01  -0.06     0.09  -0.04   0.02     0.02   0.29   0.12
   9   1    -0.02  -0.03  -0.01     0.05  -0.04   0.01     0.05   0.09   0.03
  10   8    -0.08   0.10  -0.23     0.05   0.05  -0.01     0.04   0.44  -0.02
  11   8     0.01  -0.08   0.04     0.09  -0.10  -0.01    -0.19  -0.33  -0.11
  12   8    -0.19  -0.04   0.00    -0.07  -0.02   0.10     0.11  -0.11   0.03
  13   8    -0.17  -0.02   0.08    -0.24  -0.14   0.02     0.03   0.08   0.04
  14   8     0.43  -0.14  -0.01    -0.21  -0.02  -0.11     0.08  -0.13   0.09
  15   1     0.08   0.05   0.02     0.02   0.11  -0.01    -0.10  -0.25  -0.05
  16   1     0.00   0.01   0.07     0.02   0.02   0.05     0.06  -0.04  -0.27
  17   1     0.02  -0.07   0.00    -0.00  -0.11  -0.02    -0.13  -0.28  -0.07
  18   1     0.08  -0.23   0.05    -0.07   0.06   0.04     0.06  -0.10   0.04
  19   1     0.09   0.09   0.01     0.70   0.46  -0.08     0.04   0.05   0.01
  20   1    -0.66   0.29   0.05     0.11  -0.08  -0.01     0.07  -0.06   0.02
                     10                     11                     12
                        a                      a                      a 
 Frequencies --   370.0631               428.5228               451.1578
 Red. masses --     5.2877                 3.3002                 1.3197
 Frc consts  --     0.0000                 0.0000                 0.0000
 IR Inten    --    11.6966                23.5025                98.4958
 Raman Activ --     0.0000                 0.0000                 0.0000
 Depolar     --     0.0000                 0.0000                 0.0000
 Atom AN      X      Y      Z        X      Y      Z        X      Y      Z
   1   6    -0.11   0.02  -0.22     0.13   0.09   0.14     0.11   0.04   0.02
   2   6     0.02   0.11  -0.19    -0.24  -0.23  -0.12     0.06   0.01  -0.02
   3   1     0.01   0.07  -0.06    -0.09  -0.14  -0.07     0.02  -0.01   0.00
   4   6     0.13   0.10   0.01    -0.25  -0.23   0.01    -0.02   0.07  -0.03
   5   1     0.09   0.06   0.00    -0.07  -0.07  -0.01    -0.02   0.03   0.01
   6   6     0.07  -0.02   0.22    -0.17  -0.06   0.13    -0.05  -0.00   0.07
   7   1     0.05  -0.03   0.06    -0.14   0.04   0.06     0.01  -0.03   0.05
   8   6     0.04  -0.08   0.11     0.13   0.04   0.06    -0.12  -0.03   0.03
   9   1     0.03  -0.05   0.03     0.06  -0.02   0.01    -0.01  -0.03   0.00
  10   8     0.01  -0.04   0.04     0.04   0.20  -0.08     0.03  -0.08  -0.13
  11   8     0.02   0.10  -0.03     0.10  -0.17  -0.00    -0.14   0.28   0.00
  12   8    -0.35   0.10   0.25    -0.10   0.02   0.20     0.19  -0.16   0.09
  13   8     0.34   0.21   0.01     0.37   0.16  -0.10     0.06  -0.00   0.00
  14   8    -0.11  -0.48  -0.22    -0.04   0.18  -0.24     0.02  -0.07  -0.03
  15   1    -0.10  -0.06  -0.06     0.10   0.21   0.03     0.08   0.06   0.00
  16   1    -0.03   0.03  -0.15     0.09  -0.06   0.23    -0.00   0.01   0.07
  17   1    -0.02   0.08   0.01     0.01  -0.11  -0.01    -0.25  -0.60  -0.13
  18   1    -0.09  -0.00   0.11     0.04  -0.08   0.04    -0.27   0.43  -0.04
  19   1    -0.03  -0.03   0.01    -0.04  -0.04  -0.01    -0.05  -0.06  -0.01
  20   1    -0.11  -0.12   0.08    -0.02   0.07  -0.16    -0.13   0.04   0.02
                     13                     14                     15
                        a                      a                      a 
 Frequencies --   486.7729               496.8016               522.9841
 Red. masses --     1.4663                 4.6049                 2.9587
 Frc consts  --     0.0000                 0.0000                 0.0000
 IR Inten    --   171.9191                19.5411               100.1023
 Raman Activ --     0.0000                 0.0000                 0.0000
 Depolar     --     0.0000                 0.0000                 0.0000
 Atom AN      X      Y      Z        X      Y      Z        X      Y      Z
   1   6    -0.01   0.08  -0.09     0.38   0.05  -0.05     0.02  -0.07   0.10
   2   6    -0.06   0.10  -0.05     0.26   0.01  -0.11     0.18  -0.01   0.05
   3   1    -0.02  -0.03  -0.01     0.09  -0.07   0.02     0.08   0.06   0.06
   4   6    -0.14   0.14   0.12    -0.06   0.23  -0.00     0.20  -0.05  -0.26
   5   1    -0.03   0.06   0.06    -0.06   0.07   0.04     0.07  -0.04  -0.12
   6   6    -0.13  -0.05  -0.06    -0.10   0.14  -0.01     0.13   0.04   0.12
   7   1    -0.02  -0.03  -0.02     0.01   0.01  -0.01     0.05  -0.00   0.02
   8   6    -0.01  -0.07  -0.12    -0.25   0.05   0.07    -0.10  -0.00   0.13
   9   1     0.02   0.01  -0.04    -0.11   0.03   0.03    -0.02  -0.03   0.03
  10   8     0.08  -0.26   0.05     0.30  -0.17  -0.02    -0.05   0.00  -0.05
  11   8     0.12   0.16  -0.00    -0.45  -0.29   0.04    -0.20   0.16  -0.00
  12   8     0.09   0.10  -0.03     0.01  -0.02   0.02    -0.28   0.13   0.18
  13   8    -0.02   0.11   0.23     0.04   0.02   0.11     0.06  -0.25  -0.40
  14   8    -0.07  -0.05  -0.05    -0.13  -0.02  -0.11     0.01   0.21   0.14
  15   1    -0.01   0.02  -0.03     0.16   0.12  -0.02     0.03  -0.02   0.03
  16   1    -0.04   0.04  -0.02     0.06   0.01   0.10    -0.02  -0.01   0.04
  17   1    -0.04  -0.44  -0.09    -0.06   0.22   0.06    -0.15  -0.19  -0.04
  18   1     0.41  -0.50  -0.02     0.05  -0.08   0.00     0.15  -0.33   0.14
  19   1    -0.01   0.01   0.04     0.00  -0.03  -0.01     0.01  -0.08  -0.12
  20   1     0.13  -0.08   0.02    -0.01  -0.03   0.02     0.13   0.01  -0.02
                     16                     17                     18
                        a                      a                      a 
 Frequencies --   579.4095               694.7919               793.7588
 Red. masses --     4.1057                 4.4443                 4.1182
 Frc consts  --     0.0000                 0.0000                 0.0000
 IR Inten    --    26.9873                 6.3623                16.3755
 Raman Activ --     0.0000                 0.0000                 0.0000
 Depolar     --     0.0000                 0.0000                 0.0000
 Atom AN      X      Y      Z        X      Y      Z        X      Y      Z
   1   6    -0.08  -0.20   0.16     0.12   0.28  -0.19    -0.02   0.28  -0.25
   2   6     0.14  -0.24  -0.15    -0.15   0.09   0.03    -0.02   0.03   0.01
   3   1     0.04   0.01  -0.05    -0.04   0.00   0.02     0.01   0.03   0.04
   4   6     0.35  -0.23   0.25     0.12  -0.26   0.09     0.16  -0.38   0.10
   5   1     0.07  -0.09   0.05     0.13  -0.04  -0.00     0.07  -0.11  -0.01
   6   6     0.29   0.08  -0.06    -0.01  -0.49  -0.08    -0.02   0.02   0.06
   7   1     0.12   0.01  -0.06    -0.01  -0.13  -0.02    -0.06   0.02   0.08
   8   6    -0.10   0.09  -0.02    -0.00  -0.11   0.32    -0.20   0.24  -0.48
   9   1    -0.05   0.04  -0.01    -0.02   0.00   0.09    -0.10   0.17  -0.12
  10   8    -0.17   0.08  -0.01     0.16   0.22  -0.02     0.09  -0.09   0.13
  11   8    -0.14   0.15   0.01    -0.24   0.06  -0.00    -0.10  -0.01   0.05
  12   8     0.03   0.01  -0.15    -0.02   0.17  -0.22     0.02  -0.11   0.26
  13   8    -0.07   0.17   0.21    -0.04   0.01   0.01     0.02  -0.02  -0.12
  14   8    -0.19   0.02  -0.29     0.07  -0.03   0.09     0.06  -0.03   0.14
  15   1     0.01   0.10   0.04     0.03   0.07  -0.05    -0.03   0.15  -0.07
  16   1     0.02  -0.12   0.18     0.06   0.06  -0.06    -0.02   0.07  -0.02
  17   1    -0.06  -0.04  -0.01    -0.21   0.03   0.00     0.18  -0.03   0.00
  18   1     0.04  -0.08   0.02     0.08  -0.00  -0.16    -0.02   0.00   0.08
  19   1    -0.08   0.13   0.20    -0.02   0.08   0.10    -0.04   0.08   0.10
  20   1     0.00  -0.01  -0.09     0.01  -0.01   0.04    -0.00  -0.01   0.06
                     19                     20                     21
                        a                      a                      a 
 Frequencies --   843.8941               864.6836               935.5562
 Red. masses --     3.9088                 2.9847                 2.7108
 Frc consts  --     0.0000                 0.0000                 0.0000
 IR Inten    --    25.9593                 7.7873                56.6321
 Raman Activ --     0.0000                 0.0000                 0.0000
 Depolar     --     0.0000                 0.0000                 0.0000
 Atom AN      X      Y      Z        X      Y      Z        X      Y      Z
   1   6    -0.09   0.07  -0.26    -0.12   0.20  -0.16     0.06   0.25  -0.20
   2   6    -0.44  -0.06   0.05     0.53  -0.03  -0.08     0.14  -0.37  -0.03
   3   1    -0.12  -0.03   0.01     0.17  -0.01   0.05     0.05  -0.33   0.06
   4   6    -0.01  -0.04   0.01    -0.08  -0.26   0.06    -0.17   0.16  -0.03
   5   1    -0.04  -0.02   0.02    -0.19  -0.15   0.03    -0.15  -0.03  -0.03
   6   6     0.32   0.41  -0.00    -0.23   0.18  -0.03     0.25  -0.01   0.04
   7   1     0.07   0.14  -0.05    -0.20   0.16  -0.04     0.25  -0.14   0.03
   8   6     0.11  -0.02   0.22     0.18  -0.03   0.25    -0.17  -0.28  -0.12
   9   1    -0.00  -0.08   0.06     0.07  -0.11   0.06    -0.01  -0.07  -0.03
  10   8     0.11  -0.34  -0.05    -0.24  -0.11  -0.05    -0.17   0.26   0.20
  11   8    -0.05   0.00   0.00     0.10  -0.02  -0.02     0.03   0.06  -0.00
  12   8    -0.01   0.01  -0.16     0.01   0.01  -0.08    -0.01   0.01  -0.06
  13   8     0.00  -0.01  -0.02     0.03   0.02  -0.03     0.01   0.03   0.06
  14   8     0.10  -0.04   0.17    -0.02   0.01   0.09     0.00  -0.01   0.16
  15   1     0.07   0.22  -0.08    -0.07   0.14  -0.04    -0.13   0.12  -0.05
  16   1    -0.05  -0.04   0.17    -0.17   0.11   0.02     0.10   0.03  -0.08
  17   1    -0.13   0.03   0.01    -0.08   0.01   0.00     0.06  -0.02  -0.01
  18   1    -0.07  -0.03   0.14     0.02   0.01  -0.08    -0.02  -0.03   0.08
  19   1    -0.00   0.00   0.00    -0.03   0.04   0.07     0.02  -0.08  -0.09
  20   1    -0.00   0.02  -0.04    -0.02  -0.02   0.13    -0.00   0.04  -0.12
                     22                     23                     24
                        a                      a                      a 
 Frequencies --   964.3978              1035.2363              1077.9533
 Red. masses --     2.1220                 2.8737                 2.3483
 Frc consts  --     0.0000                 0.0000                 0.0000
 IR Inten    --    23.2445               116.5865                37.5189
 Raman Activ --     0.0000                 0.0000                 0.0000
 Depolar     --     0.0000                 0.0000                 0.0000
 Atom AN      X      Y      Z        X      Y      Z        X      Y      Z
   1   6     0.25   0.31   0.29    -0.08  -0.14   0.02     0.28   0.01  -0.10
   2   6    -0.07   0.07   0.17    -0.02   0.17  -0.12    -0.15  -0.13  -0.01
   3   1    -0.04  -0.03  -0.01    -0.00   0.28  -0.06    -0.01  -0.18   0.07
   4   6    -0.07  -0.25   0.06     0.04  -0.10   0.07     0.38   0.18   0.11
   5   1    -0.08  -0.08   0.03    -0.13  -0.04   0.10     0.28   0.23   0.14
   6   6     0.13   0.24   0.03    -0.15   0.26   0.10    -0.31   0.16  -0.05
   7   1    -0.03   0.09   0.03    -0.03   0.04   0.07    -0.18   0.15  -0.11
   8   6    -0.02  -0.18  -0.04    -0.29  -0.47  -0.06    -0.01  -0.09   0.03
   9   1    -0.02  -0.13  -0.00    -0.00  -0.21  -0.00     0.03  -0.13   0.01
  10   8    -0.01  -0.10  -0.01     0.27   0.27   0.11    -0.31  -0.02   0.12
  11   8    -0.07   0.03   0.04     0.10   0.01  -0.03     0.06   0.00  -0.01
  12   8     0.01  -0.01  -0.11     0.01  -0.03  -0.14     0.01  -0.01   0.06
  13   8     0.02  -0.01  -0.06     0.03  -0.02  -0.11    -0.01  -0.08  -0.18
  14   8    -0.05  -0.01  -0.27     0.02   0.03   0.06     0.01  -0.04   0.05
  15   1    -0.02  -0.38   0.10    -0.02   0.08  -0.00    -0.00  -0.00  -0.01
  16   1    -0.01   0.25  -0.36     0.22  -0.18   0.06     0.15  -0.04  -0.05
  17   1    -0.03  -0.00   0.01     0.05  -0.02  -0.01     0.02  -0.01  -0.00
  18   1    -0.04  -0.04   0.11     0.00  -0.02   0.00     0.05   0.02  -0.12
  19   1    -0.02   0.05   0.06    -0.05   0.05   0.08    -0.05   0.10   0.13
  20   1    -0.01   0.01  -0.11     0.01  -0.03   0.16     0.01   0.03  -0.17
                     25                     26                     27
                        a                      a                      a 
 Frequencies --  1080.7700              1094.4807              1099.8414
 Red. masses --     2.5923                 2.9081                 3.2104
 Frc consts  --     0.0000                 0.0000                 0.0000
 IR Inten    --    48.6677               134.4669                36.8485
 Raman Activ --     0.0000                 0.0000                 0.0000
 Depolar     --     0.0000                 0.0000                 0.0000
 Atom AN      X      Y      Z        X      Y      Z        X      Y      Z
   1   6     0.10  -0.06  -0.00     0.19  -0.16  -0.05     0.26  -0.12  -0.31
   2   6     0.01   0.02  -0.17     0.02   0.22  -0.08    -0.03   0.18   0.45
   3   1     0.01  -0.02  -0.03    -0.06  -0.18  -0.10     0.05   0.17   0.17
   4   6    -0.02  -0.05  -0.17    -0.26   0.01   0.42    -0.01  -0.07  -0.13
   5   1     0.27   0.02  -0.20    -0.06   0.10   0.23    -0.10  -0.17  -0.17
   6   6     0.00  -0.02   0.46     0.16  -0.08   0.13     0.03  -0.01  -0.08
   7   1    -0.23   0.11   0.22     0.15  -0.10   0.05    -0.04   0.02  -0.00
   8   6     0.15   0.08  -0.15     0.10   0.14  -0.02     0.00  -0.05  -0.00
   9   1     0.17  -0.17  -0.04     0.03   0.03  -0.01     0.04  -0.03  -0.00
  10   8    -0.10  -0.03   0.04    -0.24  -0.03   0.06    -0.31   0.05   0.21
  11   8    -0.22   0.04   0.10    -0.04   0.02   0.02     0.01   0.03  -0.00
  12   8     0.01  -0.02  -0.43     0.02   0.00  -0.14    -0.00   0.01   0.05
  13   8    -0.00   0.07   0.21     0.04  -0.10  -0.41    -0.03   0.03   0.15
  14   8     0.01   0.02   0.13     0.00   0.05  -0.03     0.03  -0.01  -0.36
  15   1    -0.04   0.00   0.00     0.05  -0.01  -0.01     0.19   0.09  -0.07
  16   1     0.05  -0.03  -0.01     0.04  -0.06   0.04     0.12  -0.12   0.12
  17   1     0.13  -0.04   0.01     0.02  -0.01   0.00     0.05  -0.01  -0.01
  18   1    -0.03  -0.04   0.03    -0.01  -0.02   0.04    -0.01  -0.01   0.03
  19   1     0.05  -0.07  -0.10    -0.00   0.07   0.02     0.03  -0.08  -0.10
  20   1     0.00  -0.00   0.05    -0.01  -0.07   0.35     0.00  -0.04   0.09
                     28                     29                     30
                        a                      a                      a 
 Frequencies --  1115.9722              1138.7775              1173.5571
 Red. masses --     3.8700                 1.9636                 1.1894
 Frc consts  --     0.0000                 0.0000                 0.0000
 IR Inten    --    88.3019               155.3230                 8.4242
 Raman Activ --     0.0000                 0.0000                 0.0000
 Depolar     --     0.0000                 0.0000                 0.0000
 Atom AN      X      Y      Z        X      Y      Z        X      Y      Z
   1   6     0.29  -0.07   0.06    -0.07   0.04   0.04    -0.08   0.05   0.06
   2   6    -0.08   0.11  -0.42    -0.02  -0.05  -0.02    -0.00   0.01   0.05
   3   1    -0.05   0.02  -0.15    -0.03   0.08  -0.06    -0.10  -0.32  -0.13
   4   6    -0.11  -0.18  -0.30     0.04   0.04   0.09     0.06  -0.03   0.23
   5   1     0.00   0.01  -0.02    -0.15  -0.08   0.01     0.27  -0.15  -0.32
   6   6     0.16   0.02  -0.30    -0.01   0.00  -0.18     0.04   0.08   0.02
   7   1    -0.04   0.07  -0.09     0.11   0.03  -0.30    -0.07   0.19  -0.25
   8   6     0.02  -0.05   0.03     0.37  -0.10  -0.16    -0.18  -0.04   0.00
   9   1    -0.12   0.05   0.01     0.39  -0.25  -0.05    -0.15  -0.05   0.01
  10   8    -0.23  -0.05   0.04     0.07   0.00  -0.03     0.09  -0.00  -0.02
  11   8     0.04   0.01  -0.01    -0.45   0.09   0.18     0.13  -0.02  -0.05
  12   8    -0.03   0.01   0.25    -0.02   0.01   0.21    -0.03  -0.02   0.07
  13   8     0.00   0.07   0.24    -0.02   0.02  -0.04    -0.05   0.06   0.01
  14   8     0.02   0.08   0.26     0.00   0.01   0.01    -0.00   0.07  -0.10
  15   1    -0.05  -0.06   0.02    -0.10   0.02   0.01    -0.08   0.00   0.02
  16   1     0.20  -0.06  -0.10     0.12  -0.05  -0.03     0.03  -0.01  -0.00
  17   1    -0.09   0.01   0.00     0.21  -0.04   0.02    -0.09   0.01  -0.00
  18   1    -0.02   0.02   0.05     0.06   0.05  -0.15     0.07   0.05  -0.23
  19   1    -0.01   0.05   0.09     0.01  -0.06  -0.09     0.10  -0.23  -0.35
  20   1     0.01  -0.03   0.24    -0.00  -0.01   0.05    -0.02  -0.07   0.34
                     31                     32                     33
                        a                      a                      a 
 Frequencies --  1183.3176              1197.8060              1231.0762
 Red. masses --     1.5572                 1.3150                 1.5297
 Frc consts  --     0.0000                 0.0000                 0.0000
 IR Inten    --    41.1268                 5.8442                98.7608
 Raman Activ --     0.0000                 0.0000                 0.0000
 Depolar     --     0.0000                 0.0000                 0.0000
 Atom AN      X      Y      Z        X      Y      Z        X      Y      Z
   1   6     0.20   0.08  -0.01     0.02  -0.09  -0.04    -0.03   0.10   0.10
   2   6    -0.08  -0.07  -0.18    -0.03   0.07  -0.07    -0.06  -0.05   0.19
   3   1     0.01   0.42  -0.05    -0.03  -0.19  -0.02    -0.01  -0.17   0.07
   4   6     0.01  -0.04   0.13    -0.05  -0.12  -0.16     0.12   0.04  -0.25
   5   1    -0.12  -0.18  -0.11     0.07   0.07   0.03    -0.10  -0.01   0.01
   6   6    -0.12   0.05   0.27     0.08   0.02  -0.01    -0.08  -0.00   0.07
   7   1     0.35  -0.16  -0.19     0.09   0.02  -0.16     0.15  -0.15   0.08
   8   6    -0.14   0.23   0.11    -0.34   0.05   0.18    -0.13   0.27   0.15
   9   1    -0.01  -0.02   0.03     0.32  -0.18   0.02     0.06  -0.20   0.03
  10   8    -0.15  -0.14  -0.01     0.05   0.08   0.08     0.04  -0.16  -0.16
  11   8     0.15  -0.05  -0.08     0.03   0.02  -0.10     0.06  -0.04  -0.07
  12   8    -0.03  -0.03  -0.07    -0.03  -0.00   0.04    -0.02  -0.01  -0.05
  13   8     0.00   0.04  -0.01     0.02  -0.00   0.06     0.03  -0.06   0.06
  14   8    -0.01  -0.03   0.14     0.01   0.02   0.03     0.04   0.07  -0.16
  15   1     0.04  -0.07   0.01     0.31  -0.11  -0.02    -0.42   0.13   0.03
  16   1     0.11   0.01  -0.08    -0.39   0.17   0.07     0.27  -0.10  -0.07
  17   1     0.05  -0.01  -0.01     0.43  -0.08  -0.04     0.16  -0.03  -0.02
  18   1     0.10   0.04  -0.29     0.03   0.04  -0.11     0.01   0.00  -0.04
  19   1     0.04  -0.10  -0.15    -0.03   0.08   0.13    -0.08   0.13   0.24
  20   1     0.01   0.04  -0.19    -0.00  -0.00   0.04    -0.01  -0.06   0.31
                     34                     35                     36
                        a                      a                      a 
 Frequencies --  1244.1412              1249.8202              1279.4461
 Red. masses --     1.4774                 1.5647                 1.4135
 Frc consts  --     0.0000                 0.0000                 0.0000
 IR Inten    --     8.8695                 4.0521                16.7512
 Raman Activ --     0.0000                 0.0000                 0.0000
 Depolar     --     0.0000                 0.0000                 0.0000
 Atom AN      X      Y      Z        X      Y      Z        X      Y      Z
   1   6    -0.05  -0.07   0.00    -0.03   0.03  -0.05    -0.05   0.13  -0.07
   2   6     0.01   0.07   0.07    -0.08  -0.14   0.01     0.07  -0.19   0.12
   3   1     0.11  -0.01   0.25    -0.13  -0.15  -0.20    -0.20   0.12  -0.46
   4   6    -0.23  -0.04  -0.21     0.23   0.05  -0.19     0.12   0.24  -0.05
   5   1     0.03   0.15   0.10    -0.10  -0.11  -0.09    -0.33  -0.06   0.09
   6   6     0.17  -0.03   0.34    -0.26   0.20   0.15     0.22  -0.25   0.14
   7   1     0.05   0.18  -0.39     0.26  -0.21   0.10    -0.35   0.28  -0.08
   8   6     0.10  -0.04  -0.21     0.24  -0.15  -0.12    -0.09   0.06   0.01
   9   1    -0.23  -0.02  -0.03     0.00   0.25  -0.03    -0.10  -0.02   0.01
  10   8     0.04   0.05   0.05    -0.04   0.06   0.06    -0.02  -0.06   0.04
  11   8    -0.01  -0.00   0.05    -0.04  -0.01   0.09     0.01   0.01  -0.05
  12   8    -0.08  -0.03   0.02    -0.03  -0.04  -0.04    -0.03   0.01  -0.02
  13   8     0.07  -0.06   0.01     0.02  -0.04   0.07     0.01  -0.05  -0.03
  14   8     0.03  -0.01  -0.06     0.01   0.09  -0.03    -0.05   0.03   0.03
  15   1    -0.05   0.06  -0.00     0.29  -0.14  -0.02     0.19  -0.08  -0.02
  16   1    -0.03  -0.01   0.02    -0.15   0.07   0.02     0.11  -0.04  -0.02
  17   1    -0.21   0.03   0.02    -0.19   0.05   0.03     0.10  -0.03  -0.02
  18   1     0.13   0.06  -0.38     0.05  -0.00  -0.13     0.01   0.01  -0.06
  19   1    -0.07   0.15   0.25    -0.04   0.08   0.15    -0.03   0.06   0.10
  20   1     0.01   0.01  -0.06    -0.01  -0.05   0.30    -0.01  -0.01   0.05
                     37                     38                     39
                        a                      a                      a 
 Frequencies --  1297.0919              1306.2702              1317.7558
 Red. masses --     1.2306                 1.4365                 1.3436
 Frc consts  --     0.0000                 0.0000                 0.0000
 IR Inten    --    17.1000                32.1006                15.7017
 Raman Activ --     0.0000                 0.0000                 0.0000
 Depolar     --     0.0000                 0.0000                 0.0000
 Atom AN      X      Y      Z        X      Y      Z        X      Y      Z
   1   6    -0.03   0.05   0.06     0.05  -0.10   0.07     0.31  -0.25   0.00
   2   6    -0.07   0.06  -0.10    -0.21   0.19  -0.27     0.00   0.22   0.11
   3   1     0.11  -0.09   0.26     0.11  -0.26   0.34    -0.17  -0.06  -0.31
   4   6     0.06   0.02   0.01     0.32   0.09   0.03     0.05   0.06   0.03
   5   1    -0.13  -0.05   0.03    -0.49  -0.25   0.06    -0.10  -0.19  -0.20
   6   6     0.07   0.01   0.16     0.05  -0.11   0.02    -0.04   0.01   0.06
   7   1    -0.11   0.14  -0.08    -0.15   0.03   0.14     0.01   0.02  -0.07
   8   6    -0.08  -0.24   0.16     0.02   0.11  -0.08     0.03  -0.12   0.00
   9   1     0.24   0.70  -0.01    -0.13  -0.23   0.00    -0.01   0.15  -0.01
  10   8    -0.05  -0.08  -0.16     0.02   0.05   0.05    -0.00   0.08  -0.05
  11   8    -0.06   0.04  -0.05     0.02  -0.01   0.01    -0.03   0.02  -0.01
  12   8    -0.01  -0.01  -0.04    -0.04  -0.02  -0.00     0.01   0.01  -0.01
  13   8    -0.00   0.01  -0.01    -0.04   0.04   0.02     0.03  -0.07  -0.01
  14   8     0.04  -0.00  -0.03     0.05  -0.02   0.03    -0.06  -0.07   0.08
  15   1    -0.04  -0.03   0.01     0.01  -0.05   0.02    -0.45   0.28   0.00
  16   1     0.17  -0.07  -0.03    -0.15   0.06   0.03    -0.31   0.15   0.01
  17   1     0.25  -0.03  -0.02    -0.08   0.01   0.01     0.06  -0.01  -0.01
  18   1     0.02   0.02  -0.06     0.03   0.01  -0.09    -0.00  -0.00   0.01
  19   1     0.01  -0.02  -0.04     0.02  -0.07  -0.11    -0.04   0.07   0.13
  20   1     0.00  -0.01   0.03     0.00   0.00  -0.02    -0.00   0.04  -0.22
                     40                     41                     42
                        a                      a                      a 
 Frequencies --  1324.9613              1346.0131              1355.2720
 Red. masses --     1.3036                 1.3476                 1.3692
 Frc consts  --     0.0000                 0.0000                 0.0000
 IR Inten    --    45.0406               102.1739                87.7198
 Raman Activ --     0.0000                 0.0000                 0.0000
 Depolar     --     0.0000                 0.0000                 0.0000
 Atom AN      X      Y      Z        X      Y      Z        X      Y      Z
   1   6    -0.21   0.04   0.02    -0.06  -0.01  -0.02     0.09  -0.00   0.01
   2   6     0.10   0.32  -0.07     0.13   0.26   0.15    -0.07  -0.17  -0.06
   3   1    -0.00  -0.28  -0.01    -0.12  -0.22  -0.24     0.06   0.19   0.10
   4   6    -0.09   0.09   0.09     0.04  -0.21  -0.13    -0.11   0.20   0.14
   5   1     0.03  -0.26  -0.42    -0.05   0.13   0.27     0.05  -0.10  -0.24
   6   6    -0.05  -0.00  -0.03     0.12   0.12  -0.04     0.19  -0.01  -0.12
   7   1     0.05  -0.02  -0.07     0.00  -0.08   0.31    -0.16   0.04   0.22
   8   6     0.01   0.05   0.01    -0.08   0.04  -0.03    -0.22   0.04  -0.11
   9   1     0.03  -0.07   0.00     0.23   0.03  -0.03     0.50  -0.00  -0.08
  10   8    -0.02  -0.05   0.01    -0.02  -0.05  -0.03    -0.01  -0.01  -0.02
  11   8     0.00  -0.01   0.01     0.05  -0.02   0.05     0.12  -0.04   0.13
  12   8     0.04   0.02  -0.00    -0.12  -0.09   0.06    -0.07  -0.04   0.05
  13   8     0.08  -0.14  -0.02    -0.06   0.09   0.03     0.05  -0.10  -0.04
  14   8    -0.04  -0.09   0.09    -0.06  -0.08   0.06     0.03   0.04  -0.03
  15   1     0.25  -0.10  -0.00     0.01   0.04  -0.01    -0.06   0.02  -0.00
  16   1     0.32  -0.19  -0.00     0.18  -0.11   0.01    -0.09   0.07  -0.03
  17   1    -0.02   0.01   0.01    -0.16   0.05   0.03    -0.36   0.10   0.06
  18   1    -0.04   0.00   0.10     0.13   0.03  -0.39     0.06   0.02  -0.18
  19   1    -0.08   0.16   0.28     0.06  -0.09  -0.17    -0.05   0.11   0.18
  20   1    -0.00   0.06  -0.28     0.00   0.05  -0.27     0.00  -0.02   0.11
                     43                     44                     45
                        a                      a                      a 
 Frequencies --  1357.4938              1460.5484              2835.6657
 Red. masses --     1.3274                 1.0868                 1.0698
 Frc consts  --     0.0000                 0.0000                 0.0000
 IR Inten    --   128.4378                 0.6390                67.0476
 Raman Activ --     0.0000                 0.0000                 0.0000
 Depolar     --     0.0000                 0.0000                 0.0000
 Atom AN      X      Y      Z        X      Y      Z        X      Y      Z
   1   6    -0.01   0.01   0.00    -0.09  -0.19   0.17     0.01   0.01   0.02
   2   6    -0.01  -0.07  -0.02    -0.02  -0.02   0.01    -0.00   0.00  -0.00
   3   1     0.04   0.10   0.06     0.00  -0.00   0.02     0.00  -0.00  -0.00
   4   6    -0.13   0.10   0.12     0.01   0.01   0.01     0.00  -0.00  -0.00
   5   1     0.11  -0.04  -0.17    -0.01  -0.00   0.00    -0.00   0.01  -0.00
   6   6     0.16   0.15  -0.16    -0.00  -0.00  -0.00     0.00   0.00  -0.01
   7   1    -0.08  -0.07   0.43    -0.00  -0.00   0.00    -0.01  -0.02  -0.01
   8   6     0.19  -0.07   0.14     0.01   0.02   0.01    -0.02   0.00  -0.25
   9   1    -0.37  -0.00   0.07    -0.01  -0.00   0.01     0.09   0.04   0.96
  10   8     0.01   0.02   0.01    -0.02  -0.02   0.01    -0.01  -0.01  -0.01
  11   8    -0.15   0.06  -0.11    -0.00  -0.00  -0.01     0.01   0.00  -0.01
  12   8    -0.13  -0.11   0.07     0.00   0.00  -0.00     0.00   0.00   0.00
  13   8     0.04  -0.06  -0.04    -0.00   0.00  -0.00     0.00   0.00   0.00
  14   8     0.01   0.00  -0.01     0.00   0.01  -0.01    -0.00   0.00   0.00
  15   1     0.01  -0.02   0.00     0.34   0.59  -0.04    -0.01  -0.00  -0.05
  16   1    -0.02   0.01   0.00     0.06   0.15  -0.65    -0.01  -0.02  -0.00
  17   1     0.37  -0.10  -0.05     0.01  -0.00  -0.00    -0.00  -0.00  -0.01
  18   1     0.13   0.05  -0.40    -0.00  -0.00   0.01    -0.00  -0.00   0.00
  19   1    -0.02   0.06   0.10    -0.00  -0.02  -0.02    -0.00  -0.00   0.00
  20   1     0.00   0.00   0.00     0.01  -0.01   0.03     0.00  -0.00   0.00
                     46                     47                     48
                        a                      a                      a 
 Frequencies --  2852.2278              2870.5240              2946.6421
 Red. masses --     1.0705                 1.0730                 1.0740
 Frc consts  --     0.0000                 0.0000                 0.0000
 IR Inten    --    48.9333                81.3493                27.7938
 Raman Activ --     0.0000                 0.0000                 0.0000
 Depolar     --     0.0000                 0.0000                 0.0000
 Atom AN      X      Y      Z        X      Y      Z        X      Y      Z
   1   6     0.03   0.03   0.24    -0.00   0.01   0.05     0.01   0.01   0.00
   2   6     0.05  -0.00  -0.01    -0.23   0.02   0.10    -0.00   0.01  -0.00
   3   1    -0.17   0.01   0.08     0.85  -0.08  -0.41     0.01  -0.00  -0.00
   4   6     0.00   0.00  -0.00    -0.01  -0.00   0.01    -0.05   0.08  -0.06
   5   1     0.01  -0.01   0.01    -0.01   0.01  -0.01     0.17  -0.31   0.22
   6   6    -0.00  -0.00   0.00     0.00  -0.00   0.00    -0.13  -0.18  -0.07
   7   1     0.00   0.00   0.00    -0.00  -0.00  -0.00     0.48   0.67   0.28
   8   6     0.00   0.00   0.01     0.00   0.00   0.00    -0.01  -0.01  -0.01
   9   1    -0.01  -0.01  -0.05    -0.00  -0.00  -0.01     0.00   0.00   0.02
  10   8    -0.01   0.00   0.01    -0.00   0.00   0.00     0.00   0.00   0.00
  11   8    -0.00   0.00  -0.00    -0.00   0.00  -0.00     0.00   0.00  -0.00
  12   8     0.00  -0.00  -0.00     0.00   0.00   0.00     0.00  -0.00  -0.01
  13   8     0.00   0.00  -0.00     0.00   0.00  -0.00     0.00   0.00  -0.00
  14   8     0.00  -0.00  -0.00    -0.00   0.00   0.01    -0.00  -0.00   0.00
  15   1    -0.03  -0.06  -0.94    -0.01  -0.01  -0.19     0.00   0.00   0.01
  16   1    -0.02  -0.04   0.03    -0.01  -0.02   0.00    -0.02  -0.03  -0.01
  17   1     0.00   0.00   0.00     0.00  -0.00   0.00    -0.00  -0.00   0.00
  18   1    -0.00   0.00  -0.00    -0.00  -0.00  -0.00    -0.01  -0.01  -0.00
  19   1    -0.00  -0.00  -0.00    -0.00  -0.00   0.00    -0.00   0.00  -0.00
  20   1    -0.00   0.00  -0.00     0.00   0.00   0.00     0.00   0.00   0.00
                     49                     50                     51
                        a                      a                      a 
 Frequencies --  2949.6697              2962.7055              3408.3360
 Red. masses --     1.0753                 1.0701                 1.0655
 Frc consts  --     0.0000                 0.0000                 0.0000
 IR Inten    --    19.5117                32.5559               120.7553
 Raman Activ --     0.0000                 0.0000                 0.0000
 Depolar     --     0.0000                 0.0000                 0.0000
 Atom AN      X      Y      Z        X      Y      Z        X      Y      Z
   1   6     0.00   0.01   0.00     0.11   0.22   0.06     0.00   0.00  -0.00
   2   6     0.01  -0.01   0.00     0.01   0.01   0.00     0.00   0.00   0.00
   3   1    -0.01   0.00   0.01    -0.02   0.00   0.01     0.00  -0.00  -0.00
   4   6     0.09  -0.18   0.12    -0.00   0.00  -0.00     0.00   0.00  -0.00
   5   1    -0.35   0.64  -0.47     0.01  -0.01   0.01     0.00  -0.00   0.00
   6   6    -0.06  -0.09  -0.03     0.01   0.01   0.00    -0.00  -0.00  -0.01
   7   1     0.23   0.32   0.13    -0.03  -0.04  -0.02     0.01   0.01   0.00
   8   6    -0.00  -0.00  -0.00    -0.00  -0.00   0.00     0.00   0.00  -0.00
   9   1    -0.00  -0.00   0.00    -0.00  -0.00  -0.02     0.00  -0.00   0.00
  10   8     0.00   0.00   0.00     0.01   0.00  -0.00    -0.00  -0.00  -0.00
  11   8     0.00   0.00  -0.00     0.00  -0.00   0.00    -0.00   0.02  -0.08
  12   8    -0.00   0.00  -0.00     0.00   0.00   0.00    -0.17  -0.12  -0.08
  13   8     0.00   0.00   0.01    -0.00  -0.00  -0.00    -0.00  -0.00   0.00
  14   8     0.00   0.00  -0.00     0.00  -0.00  -0.00    -0.00  -0.01  -0.00
  15   1     0.00   0.00  -0.01     0.02   0.03   0.06    -0.00   0.00  -0.00
  16   1    -0.02  -0.03  -0.01    -0.44  -0.81  -0.26    -0.00  -0.00  -0.00
  17   1    -0.00  -0.00   0.00    -0.00   0.00  -0.00     0.00  -0.06   0.33
  18   1     0.00  -0.01  -0.00    -0.00  -0.00  -0.00     0.68   0.50   0.35
  19   1     0.00  -0.01   0.00     0.00  -0.00  -0.00    -0.00   0.00  -0.00
  20   1    -0.00  -0.00  -0.00    -0.00  -0.00  -0.00     0.02   0.04   0.01
                     52                     53                     54
                        a                      a                      a 
 Frequencies --  3419.4152              3530.9123              3534.1522
 Red. masses --     1.0651                 1.0653                 1.0652
 Frc consts  --     0.0000                 0.0000                 0.0000
 IR Inten    --    53.5557                13.9227                13.2538
 Raman Activ --     0.0000                 0.0000                 0.0000
 Depolar     --     0.0000                 0.0000                 0.0000
 Atom AN      X      Y      Z        X      Y      Z        X      Y      Z
   1   6    -0.00   0.00   0.00    -0.00   0.00  -0.00     0.00   0.00  -0.00
   2   6     0.00   0.00   0.00    -0.00   0.00   0.00    -0.00  -0.00  -0.00
   3   1     0.00  -0.00  -0.00     0.00  -0.00   0.00    -0.00   0.00   0.00
   4   6     0.00   0.00   0.00     0.00  -0.00   0.01     0.00  -0.00  -0.00
   5   1     0.00  -0.00   0.00    -0.00   0.01   0.00    -0.00   0.00  -0.00
   6   6    -0.00  -0.00  -0.00    -0.00   0.00  -0.00     0.00   0.00   0.00
   7   1     0.00   0.00   0.00    -0.00  -0.00   0.00    -0.00  -0.00  -0.00
   8   6    -0.01   0.00   0.01    -0.00   0.00  -0.00    -0.00  -0.00  -0.00
   9   1    -0.00  -0.00  -0.00     0.00  -0.00   0.00     0.00   0.00   0.00
  10   8     0.00   0.00  -0.00     0.00  -0.00   0.00     0.00  -0.00   0.00
  11   8     0.01  -0.05   0.22     0.00  -0.00   0.00     0.00   0.00  -0.00
  12   8    -0.06  -0.04  -0.03     0.00  -0.00  -0.00     0.01   0.01   0.00
  13   8    -0.00   0.00  -0.00     0.12  -0.16   0.14     0.00  -0.00   0.00
  14   8    -0.00  -0.00  -0.00     0.00   0.01   0.00    -0.09  -0.21  -0.05
  15   1     0.00   0.00  -0.00    -0.00   0.00   0.00     0.00  -0.00   0.00
  16   1     0.00  -0.00  -0.00    -0.00  -0.00  -0.00    -0.00   0.00  -0.00
  17   1    -0.01   0.17  -0.90    -0.00   0.00  -0.00     0.00  -0.00   0.00
  18   1     0.25   0.18   0.12    -0.00  -0.00  -0.00    -0.03  -0.03  -0.02
  19   1     0.00  -0.00   0.00    -0.47   0.62  -0.58    -0.01   0.02  -0.02
  20   1     0.01   0.01   0.00    -0.01  -0.02  -0.01     0.38   0.86   0.23
