      -----------------------------------------------------------      
     |                   =====================                   |     
     |                           x T B                           |     
     |                   =====================                   |     
     |                         S. Grimme                         |     
     |          Mulliken Center for Theoretical Chemistry        |     
     |                    University of Bonn                     |     
      -----------------------------------------------------------      

   * xtb version 6.7.1 (41059b4) compiled by 'michael@archlinux' on 2025-03-24

   xtb is free software: you can redistribute it and/or modify it under
   the terms of the GNU Lesser General Public License as published by
   the Free Software Foundation, either version 3 of the License, or
   (at your option) any later version.
   
   xtb is distributed in the hope that it will be useful,
   but WITHOUT ANY WARRANTY; without even the implied warranty of
   MERCHANTABILITY or FITNESS FOR A PARTICULAR PURPOSE.  See the
   GNU Lesser General Public License for more details.
   
   Cite this work as:
   * C. Bannwarth, E. Caldeweyher, S. Ehlert, A. Hansen, P. Pracht,
     J. Seibert, S. Spicher, S. Grimme, WIREs Comput. Mol. Sci., 2020, 11,
     e01493. DOI: 10.1002/wcms.1493
   
   for GFN2-xTB:
   * C. Bannwarth, S. Ehlert and S. Grimme., J. Chem. Theory Comput., 2019,
     15, 1652-1671. DOI: 10.1021/acs.jctc.8b01176
   for GFN1-xTB:
   * S. Grimme, C. Bannwarth, P. Shushkov, J. Chem. Theory Comput., 2017,
     13, 1989-2009. DOI: 10.1021/acs.jctc.7b00118
   for GFN0-xTB:
   * P. Pracht, E. Caldeweyher, S. Ehlert, S. Grimme, ChemRxiv, 2019, preprint.
     DOI: 10.26434/chemrxiv.8326202.v1
   for GFN-FF:
   * S. Spicher and S. Grimme, Angew. Chem. Int. Ed., 2020, 59, 15665-15673.
     DOI: 10.1002/anie.202004239
   
   for ALPB and GBSA implicit solvation:
   * S. Ehlert, M. Stahn, S. Spicher, S. Grimme, J. Chem. Theory Comput.,
     2021, 17, 4250-4261. DOI: 10.1021/acs.jctc.1c00471
   
   for ddCOSMO and CPCM-X implicit solvation:
   * M. Stahn, S. Ehlert, S. Grimme, J. Phys. Chem. A,
     2023, XX, XXXX-XXXX. DOI: 10.1021/acs.jpca.3c04382
   
   for DFT-D4:
   * E. Caldeweyher, C. Bannwarth and S. Grimme, J. Chem. Phys., 2017,
     147, 034112. DOI: 10.1063/1.4993215
   * E. Caldeweyher, S. Ehlert, A. Hansen, H. Neugebauer, S. Spicher,
     C. Bannwarth and S. Grimme, J. Chem. Phys., 2019, 150, 154122.
     DOI: 10.1063/1.5090222
   * E. Caldeweyher, J.-M. Mewes, S. Ehlert and S. Grimme, Phys. Chem. Chem. Phys.
     2020, 22, 8499-8512. DOI: 10.1039/D0CP00502A
   
   for sTDA-xTB:
   * S. Grimme and C. Bannwarth, J. Chem. Phys., 2016, 145, 054103.
     DOI: 10.1063/1.4959605
   
   in the mass-spec context:
   * V. Asgeirsson, C. Bauer and S. Grimme, Chem. Sci., 2017, 8, 4879.
     DOI: 10.1039/c7sc00601b
   * J. Koopman and S. Grimme, ACS Omega 2019, 4, 12, 15120-15133.
     DOI: 10.1021/acsomega.9b02011
   
   for metadynamics refer to:
   * S. Grimme, J. Chem. Theory Comput., 2019, 155, 2847-2862
     DOI: 10.1021/acs.jctc.9b00143
   
   for SPH calculations refer to:
   * S. Spicher and S. Grimme, J. Chem. Theory Comput., 2021, 17, 1701-1714
     DOI: 10.1021/acs.jctc.0c01306
   
   for ONIOM refer to:
   * C. Plett, A. Katbashev, S. Ehlert, S. Grimme, M. Bursch,
     Phys. Chem. Chem. Phys., 2023, 25, 17860-17868. DOI: 10.1039/D3CP02178E
   
   for DIPRO refer to:
   * J. Kohn, N. Gildemeister, S. Grimme, D. Fazzi, A. Hansen,
     J. Chem. Phys., 2023, just accepted.
   
   for PTB refer to:
   * S. Grimme, M. Mueller, A. Hansen, J. Chem. Phys., 2023, 158, 124111.
     DOI: 10.1063/5.0137838
   
   with help from (in alphabetical order)
   P. Atkinson, C. Bannwarth, F. Bohle, G. Brandenburg, E. Caldeweyher
   M. Checinski, S. Dohm, S. Ehlert, S. Ehrlich, I. Gerasimov, C. Hölzer
   A. Katbashev, J. Kohn, J. Koopman, C. Lavigne, S. Lehtola, F. März, M. Müller,
   F. Musil, H. Neugebauer, J. Pisarek, C. Plett, P. Pracht, F. Pultar,
   J. Seibert, P. Shushkov, S. Spicher, M. Stahn, M. Steiner, T. Strunk,
   J. Stückrath, T. Rose, and J. Unsleber
   
 * started run on 2025/04/09 at 02:30:17.122     
   ID    Z sym.   atoms
    1    6 C      1, 2, 4, 6, 8
    2    1 H      3, 5, 7, 9, 15-20
    3    8 O      10-14

           -------------------------------------------------
          |                Calculation Setup                |
           -------------------------------------------------

          program call               : /usr/bin/xtb xtb_rrho.coord --gfn2 --bhess vtight --chrg 0 --enso --norestart -I rrho-xcontrol-inp --parallel 1
          coordinate file            : xtb_rrho.coord
          omp threads                :                     1


           -------------------------------------------------
          |                 G F N 2 - x T B                 |
           -------------------------------------------------

        Reference                      10.1021/acs.jctc.8b01176
      * Hamiltonian:
        H0-scaling (s, p, d)           1.850000    2.230000    2.230000
        zeta-weighting                 0.500000
      * Dispersion:
        s8                             2.700000
        a1                             0.520000
        a2                             5.000000
        s9                             5.000000
      * Repulsion:
        kExp                           1.500000    1.000000
        rExp                           1.000000
      * Coulomb:
        alpha                          2.000000
        third order                    shell-resolved
        anisotropic                    true
        a3                             3.000000
        a5                             4.000000
        cn-shift                       1.200000
        cn-exp                         4.000000
        max-rad                        5.000000


          ...................................................
          :                      SETUP                      :
          :.................................................:
          :  # basis functions                  50          :
          :  # atomic orbitals                  50          :
          :  # shells                           30          :
          :  # electrons                        60          :
          :  max. iterations                   250          :
          :  Hamiltonian                  GFN2-xTB          :
          :  restarted?                      false          :
          :  GBSA solvation                  false          :
          :  PC potential                    false          :
          :  electronic temp.          300.0000000     K    :
          :  accuracy                    1.0000000          :
          :  -> integral cutoff          0.2500000E+02      :
          :  -> integral neglect         0.1000000E-07      :
          :  -> SCF convergence          0.1000000E-05 Eh   :
          :  -> wf. convergence          0.1000000E-03 e    :
          :  Broyden damping             0.4000000          :
          :  net charge                          0          :
          :  unpaired electrons                  0          :
          ...................................................

 iter      E             dE          RMSdq      gap      omega  full diag
   1    -36.3412692 -0.363413E+02  0.471E+00    9.92       0.0  T
   2    -36.3762697 -0.350005E-01  0.251E+00    9.78       1.0  T
   3    -36.3771951 -0.925404E-03  0.795E-01    9.76       1.0  T
   4    -36.3780340 -0.838945E-03  0.144E-01    9.77       1.0  T
   5    -36.3780815 -0.475417E-04  0.554E-02    9.79       1.0  T
   6    -36.3780925 -0.109473E-04  0.188E-02    9.79       1.2  T
   7    -36.3780932 -0.661783E-06  0.660E-03    9.79       3.4  T
   8    -36.3780935 -0.330453E-06  0.181E-03    9.79      12.3  T
   9    -36.3780935 -0.643494E-08  0.784E-04    9.79      28.5  T
  10    -36.3780935 -0.931472E-09  0.387E-04    9.79      57.8  T

   *** convergence criteria satisfied after 10 iterations ***

         #    Occupation            Energy/Eh            Energy/eV
      -------------------------------------------------------------
         1        2.0000           -0.7292901             -19.8450
       ...           ...                  ...                  ...
        24        2.0000           -0.4867471             -13.2451
        25        2.0000           -0.4798808             -13.0582
        26        2.0000           -0.4688126             -12.7570
        27        2.0000           -0.4518304             -12.2949
        28        2.0000           -0.4401291             -11.9765
        29        2.0000           -0.4326189             -11.7722
        30        2.0000           -0.4102015             -11.1622 (HOMO)
        31                         -0.0503293              -1.3695 (LUMO)
        32                         -0.0063735              -0.1734
        33                          0.0154162               0.4195
        34                          0.0250058               0.6804
        35                          0.0374919               1.0202
       ...                                ...                  ...
        50                          0.2584381               7.0325
      -------------------------------------------------------------
                  HL-Gap            0.3598722 Eh            9.7926 eV
             Fermi-level           -0.2302654 Eh           -6.2658 eV

 SCC (total)                   0 d,  0 h,  0 min,  0.015 sec
 SCC setup                      ...        0 min,  0.000 sec (  0.694%)
 Dispersion                     ...        0 min,  0.000 sec (  0.995%)
 classical contributions        ...        0 min,  0.000 sec (  0.213%)
 integral evaluation            ...        0 min,  0.003 sec ( 17.792%)
 iterations                     ...        0 min,  0.007 sec ( 47.196%)
 molecular gradient             ...        0 min,  0.005 sec ( 32.484%)
 printout                       ...        0 min,  0.000 sec (  0.556%)

         :::::::::::::::::::::::::::::::::::::::::::::::::::::
         ::                     SUMMARY                     ::
         :::::::::::::::::::::::::::::::::::::::::::::::::::::
         :: total energy             -36.130625881709 Eh    ::
         :: gradient norm              0.041168511827 Eh/a0 ::
         :: HOMO-LUMO gap              9.792621212316 eV    ::
         ::.................................................::
         :: SCC energy               -36.378011897676 Eh    ::
         :: -> isotropic ES            0.113099809622 Eh    ::
         :: -> anisotropic ES         -0.000375088577 Eh    ::
         :: -> anisotropic XC         -0.007290822163 Eh    ::
         :: -> dispersion             -0.015382027921 Eh    ::
         :: repulsion energy           0.247386015967 Eh    ::
         :: add. restraining           0.000000000000 Eh    ::
         :: total charge              -0.000000000000 e     ::
         :::::::::::::::::::::::::::::::::::::::::::::::::::::

metadynamics with 1 initial structures loaded
           -------------------------------------------------
          |           Optimal kpush determination           |
           -------------------------------------------------
      ----------------------------------------------------------- 
     |                   =====================                   |
     |                        A N C O P T                        |
     |                   =====================                   |
     |               Approximate Normal Coordinate               |
     |                Rational Function Optimizer                |
      ----------------------------------------------------------- 
target rmsd / Å         0.100000
unbiased initial rmsd   0.038834

iter. min.        max.        rmsd       kpush
final kpush: -0.000000
           -------------------------------------------------
          |            Biased Numerical Hessian             |
           -------------------------------------------------
kpush                :  -0.00000
alpha                :   1.00000
step length          :   0.00500
SCC accuracy         :   0.30000
Hessian scale factor :   1.00000
frozen atoms in %    :   0.00000    0
RMS gradient         :   0.00006
estimated CPU  time      0.02 min
estimated wall time      0.02 min

writing file <hessian>, containing the non-mass-weighted Hessian matrix in atomic units (Eₕ/Bohr²).

writing file <hessian_sph>.

 projected vibrational frequencies (cm⁻¹)
eigval :       -0.00    -0.00     0.00     0.00     0.00     0.00
eigval :       95.07   146.15   198.12   222.33   252.85   267.25
eigval :      285.30   304.90   355.10   370.06   428.52   451.16
eigval :      486.77   496.80   522.98   579.41   694.79   793.76
eigval :      843.89   864.68   935.56   964.40  1035.24  1077.95
eigval :     1080.77  1094.48  1099.84  1115.97  1138.78  1173.56
eigval :     1183.32  1197.81  1231.08  1244.14  1249.82  1279.45
eigval :     1297.09  1306.27  1317.76  1324.96  1346.01  1355.27
eigval :     1357.49  1460.55  2835.67  2852.23  2870.52  2946.64
eigval :     2949.67  2962.71  3408.34  3419.42  3530.91  3534.15
           -------------------------------------------------
          |                Property Printout                |
           -------------------------------------------------

    * Orbital Energies and Occupations

         #    Occupation            Energy/Eh            Energy/eV
      -------------------------------------------------------------
         1        2.0000           -0.7307281             -19.8841
       ...           ...                  ...                  ...
        18        2.0000           -0.5468577             -14.8808
        19        2.0000           -0.5263322             -14.3222
        20        2.0000           -0.5217916             -14.1987
        21        2.0000           -0.5154968             -14.0274
        22        2.0000           -0.5057270             -13.7615
        23        2.0000           -0.4899952             -13.3334
        24        2.0000           -0.4854066             -13.2086
        25        2.0000           -0.4771655             -12.9843
        26        2.0000           -0.4669531             -12.7064
        27        2.0000           -0.4503765             -12.2554
        28        2.0000           -0.4367863             -11.8856
        29        2.0000           -0.4294507             -11.6859
        30        2.0000           -0.4032835             -10.9739 (HOMO)
        31                         -0.0271369              -0.7384 (LUMO)
        32                          0.0141072               0.3839
        33                          0.0310874               0.8459
        34                          0.0363038               0.9879
        35                          0.0433705               1.1802
        36                          0.0494970               1.3469
        37                          0.0647054               1.7607
        38                          0.0768788               2.0920
        39                          0.0944608               2.5704
        40                          0.1149867               3.1289
        41                          0.1392633               3.7895
       ...                                ...                  ...
        50                          0.2740222               7.4565
      -------------------------------------------------------------
                  HL-Gap            0.3761467 Eh           10.2355 eV
             Fermi-level           -0.2152102 Eh           -5.8562 eV

     #   Z          covCN         q      C6AA      α(0)
     1   6          3.706     0.068    19.580     6.325
     2   6          3.723     0.090    19.189     6.255
     3   1          0.923     0.033     2.544     2.494
     4   6          3.727     0.092    19.161     6.250
     5   1          0.924     0.077     2.007     2.216
     6   6          3.724     0.076    19.419     6.292
     7   1          0.924     0.056     2.245     2.343
     8   6          3.630     0.238    17.260     5.982
     9   1          0.923     0.014     2.828     2.630
    10   8          1.700    -0.328    19.490     5.960
    11   8          1.657    -0.419    21.225     6.219
    12   8          1.655    -0.447    21.775     6.299
    13   8          1.656    -0.434    21.520     6.262
    14   8          1.656    -0.442    21.672     6.284
    15   1          0.923     0.023     2.689     2.564
    16   1          0.924     0.057     2.236     2.338
    17   1          0.804     0.329     0.641     1.258
    18   1          0.804     0.323     0.655     1.271
    19   1          0.805     0.291     0.750     1.360
    20   1          0.805     0.303     0.712     1.325

 Mol. C6AA /au·bohr⁶  :       3274.332360
 Mol. C8AA /au·bohr⁸  :      69465.776511
 Mol. α(0) /au        :         81.930048


Wiberg/Mayer (AO) data.
largest (>0.10) Wiberg bond orders for each atom

 ---------------------------------------------------------------------------
     #   Z sym  total        # sym  WBO       # sym  WBO       # sym  WBO
 ---------------------------------------------------------------------------
     1   6      3.957 --    10      0.993     2      0.977    16      0.966
                            15      0.961
     2   6      3.956 --    14      0.991     1      0.977     4      0.963
                             3      0.959
     3   1      0.999 --     2      0.959
     4   6      3.954 --    13      1.005     6      0.965     2      0.963
                             5      0.956
     5   1      0.994 --     4      0.956
     6   6      3.963 --    12      1.011     4      0.965     7      0.960
                             8      0.944
     7   1      0.997 --     6      0.960
     8   6      3.938 --    11      1.040     9      0.948    10      0.944
                             6      0.944
     9   1      1.000 --     8      0.948
    10   8      2.081 --     1      0.993     8      0.944
    11   8      2.002 --     8      1.040    17      0.863
    12   8      1.974 --     6      1.011    18      0.859
    13   8      1.976 --     4      1.005    19      0.893
    14   8      1.979 --     2      0.991    20      0.889
    15   1      0.999 --     1      0.961
    16   1      0.997 --     1      0.966
    17   1      0.892 --    11      0.863
    18   1      0.895 --    12      0.859
    19   1      0.916 --    13      0.893
    20   1      0.908 --    14      0.889
 ---------------------------------------------------------------------------

Topologies differ in total number of bonds
Writing topology from bond orders to xtbtopo.mol

molecular dipole:
                 x           y           z       tot (Debye)
 q only:        0.828       0.473      -0.093
   full:        1.173       0.811      -0.266       3.686
molecular quadrupole (traceless):
                xx          xy          yy          xz          yz          zz
 q only:       -0.540       7.028      -3.020       0.482       1.149       3.560
  q+dip:       -1.635       9.612      -2.321       2.019       0.694       3.956
   full:       -1.613       9.786      -3.159       1.677       1.051       4.772

           -------------------------------------------------
          |                Geometry Summary                 |
           -------------------------------------------------

      molecular mass/u    :      150.1301116
   center of mass at/Å    :        0.0000018      -0.0000590      -0.0000250
  moments of inertia/u·Å² :        0.2906213E+03   0.4109272E+03   0.4390481E+03
rotational constants/cm⁻¹ :        0.5800549E-01   0.4102340E-01   0.3839586E-01

 * 17 selected distances

     #   Z          #   Z                                           value/Å
     1   6          2   6                                         1.5354470 (max)
     2   6          3   1                                         1.1011335
     4   6          5   1                                         1.0959259
     6   6          7   1                                         1.0960502
     8   6          9   1                                         1.1042342
     1   6         10   8                                         1.4026033
     8   6         10   8                                         1.4202800
     8   6         11   8                                         1.3713984
     6   6         12   8                                         1.4035877
     4   6         13   8                                         1.4010947
     2   6         14   8                                         1.4118820
     1   6         15   1                                         1.1017071
     1   6         16   1                                         1.0935791
    11   8         17   1                                         0.9713456
    12   8         18   1                                         0.9712253
    13   8         19   1                                         0.9639680 (min)
    14   8         20   1                                         0.9641708

 * 4 distinct bonds (by element types)

   Z      Z             #   av. dist./Å        max./Å        min./Å
   1 H    6 C           6     1.0987717     1.1042342     1.0935791
   6 C    6 C           1     1.5354470     1.5354470     1.5354470
   1 H    8 O           4     0.9676774     0.9713456     0.9639680
   6 C    8 O           6     1.4018077     1.4202800     1.3713984

           -------------------------------------------------
          |               Frequency Printout                |
           -------------------------------------------------
 projected vibrational frequencies (cm⁻¹)
eigval :       -0.00    -0.00     0.00     0.00     0.00     0.00
eigval :       95.07   146.15   198.12   222.33   252.85   267.25
eigval :      285.30   304.90   355.10   370.06   428.52   451.16
eigval :      486.77   496.80   522.98   579.41   694.79   793.76
eigval :      843.89   864.68   935.56   964.40  1035.24  1077.95
eigval :     1080.77  1094.48  1099.84  1115.97  1138.78  1173.56
eigval :     1183.32  1197.81  1231.08  1244.14  1249.82  1279.45
eigval :     1297.09  1306.27  1317.76  1324.96  1346.01  1355.27
eigval :     1357.49  1460.55  2835.67  2852.23  2870.52  2946.64
eigval :     2949.67  2962.71  3408.34  3419.42  3530.91  3534.15
 reduced masses (amu)
    1:      6.39    2:      6.44    3:      6.36    4:      7.66    5:      7.08    6:      6.26
    7:      4.65    8:      5.30    9:      3.87   10:      3.57   11:      3.66   12:      2.51
   13:      1.57   14:      1.27   15:      2.75   16:      5.29   17:      3.30   18:      1.32
   19:      1.47   20:      4.60   21:      2.96   22:      4.11   23:      4.44   24:      4.12
   25:      3.91   26:      2.98   27:      2.71   28:      2.12   29:      2.87   30:      2.35
   31:      2.59   32:      2.91   33:      3.21   34:      3.87   35:      1.96   36:      1.19
   37:      1.56   38:      1.32   39:      1.53   40:      1.48   41:      1.56   42:      1.41
   43:      1.23   44:      1.44   45:      1.34   46:      1.30   47:      1.35   48:      1.37
   49:      1.33   50:      1.09   51:      1.07   52:      1.07   53:      1.07   54:      1.07
   55:      1.08   56:      1.07   57:      1.07   58:      1.07   59:      1.07   60:      1.07
 IR intensities (km·mol⁻¹)
    1:      0.36    2:      1.08    3:      0.82    4:      0.21    5:      0.26    6:      0.28
    7:      1.04    8:      4.50    9:     28.29   10:      5.45   11:     11.66   12:     18.67
   13:     37.27   14:    146.17   15:      7.85   16:     11.70   17:     23.50   18:     98.50
   19:    171.92   20:     19.54   21:    100.10   22:     26.99   23:      6.36   24:     16.38
   25:     25.96   26:      7.79   27:     56.63   28:     23.24   29:    116.59   30:     37.52
   31:     48.67   32:    134.47   33:     36.85   34:     88.30   35:    155.32   36:      8.42
   37:     41.13   38:      5.84   39:     98.76   40:      8.87   41:      4.05   42:     16.75
   43:     17.10   44:     32.10   45:     15.70   46:     45.04   47:    102.17   48:     87.72
   49:    128.44   50:      0.64   51:     67.05   52:     48.93   53:     81.35   54:     27.79
   55:     19.51   56:     32.56   57:    120.76   58:     53.56   59:     13.92   60:     13.25
 Raman intensities (Ä⁴*amu⁻¹)
    1:      0.00    2:      0.00    3:      0.00    4:      0.00    5:      0.00    6:      0.00
    7:      0.00    8:      0.00    9:      0.00   10:      0.00   11:      0.00   12:      0.00
Molecule has no symmetry elements
It seems to be the C1 point group
   13:      0.00   14:      0.00   15:      0.00   16:      0.00   17:      0.00   18:      0.00
   19:      0.00   20:      0.00   21:      0.00   22:      0.00   23:      0.00   24:      0.00
   25:      0.00   26:      0.00   27:      0.00   28:      0.00   29:      0.00   30:      0.00
   31:      0.00   32:      0.00   33:      0.00   34:      0.00   35:      0.00   36:      0.00
   37:      0.00   38:      0.00   39:      0.00   40:      0.00   41:      0.00   42:      0.00
   43:      0.00   44:      0.00   45:      0.00   46:      0.00   47:      0.00   48:      0.00
   49:      0.00   50:      0.00   51:      0.00   52:      0.00   53:      0.00   54:      0.00
   55:      0.00   56:      0.00   57:      0.00   58:      0.00   59:      0.00   60:      0.00
 output can be read by thermo (or use thermo option).
 writing <g98.out> molden fake output.
 recommended (thermochemical) frequency scaling factor: 1.0
           -------------------------------------------------
          |             Thermodynamic Functions             |
           -------------------------------------------------

c1  symmetry found (for desy threshold:  0.10E+00) used in thermo

          ...................................................
          :                      SETUP                      :
          :.................................................:
          :  # frequencies                          54      :
          :  # imaginary freq.                       0      :
          :  linear?                             false      :
          :  only rotor calc.                    false      :
          :  symmetry                               c1      :
          :  rotational number                       1      :
          :  scaling factor                  1.0000000      :
          :  rotor cutoff                    0.0000000 cm⁻¹ :
          :  imag. cutoff                 -100.0000000 cm⁻¹ :
          :.................................................:

    mode    ω/cm⁻¹     T·S(HO)/kcal·mol⁻¹    T·S(FR)/kcal·mol⁻¹   T·S(vib)
   ------------------------------------------------------------------------
       1     95.07    -1.05929 (100.00%)    -0.86604 (  0.00%)    -1.05929
       2    146.15    -0.81151 (100.00%)    -0.73872 (  0.00%)    -0.81151
       3    198.12    -0.64116 (100.00%)    -0.64860 (  0.00%)    -0.64116
       4    222.33    -0.57842 (100.00%)    -0.61446 (  0.00%)    -0.57842
       5    252.85    -0.51002 (100.00%)    -0.57635 (  0.00%)    -0.51002
       6    267.25    -0.48120 (100.00%)    -0.55996 (  0.00%)    -0.48120
       7    285.30    -0.44773 (100.00%)    -0.54059 (  0.00%)    -0.44773
   ------------------------------------------------------------------------

   temp. (K)  partition function   enthalpy   heat capacity  entropy
                                   cal/mol     cal/K/mol   cal/K/mol   J/K/mol
 298.15  VIB   144.                 4481.155     32.933     24.901
         ROT  0.553E+06              888.727      2.981     29.258
         INT  0.795E+08             5369.882     35.914     54.160
         TR   0.563E+26             1481.212      4.968     40.929
         TOT                        6851.0945    40.8816    95.0891   397.8527

       T/K    H(0)-H(T)+PV         H(T)/Eh          T*S/Eh         G(T)/Eh
   ------------------------------------------------------------------------
    298.15    0.109179E-01    0.167742E+00    0.451799E-01    0.122562E+00
   ------------------------------------------------------------------------

         :::::::::::::::::::::::::::::::::::::::::::::::::::::
         ::                  THERMODYNAMIC                  ::
         :::::::::::::::::::::::::::::::::::::::::::::::::::::
         :: total free energy         -36.010093401281 Eh   ::
         ::.................................................::
         :: total energy              -36.132655293571 Eh   ::
         :: zero point energy           0.156823864230 Eh   ::
         :: G(RRHO) w/o ZPVE           -0.034261971941 Eh   ::
         :: G(RRHO) contrib.            0.122561892289 Eh   ::
         :::::::::::::::::::::::::::::::::::::::::::::::::::::

optimized geometry written to: xtbopt.coord


           -------------------------------------------------
          | TOTAL ENERGY              -36.132655293571 Eh   |
          | TOTAL ENTHALPY            -35.964913515265 Eh   |
          | TOTAL FREE ENERGY         -36.010093401281 Eh   |
          | GRADIENT NORM               0.000064999202 Eh/α |
          | HOMO-LUMO GAP              10.235471707584 eV   |
           -------------------------------------------------

------------------------------------------------------------------------
 * finished run on 2025/04/09 at 02:30:18.204     
------------------------------------------------------------------------
 total:
 * wall-time:     0 d,  0 h,  0 min,  1.082 sec
 *  cpu-time:     0 d,  0 h,  0 min,  1.075 sec
 * ratio c/w:     0.993 speedup
 SCF:
 * wall-time:     0 d,  0 h,  0 min,  0.015 sec
 *  cpu-time:     0 d,  0 h,  0 min,  0.015 sec
 * ratio c/w:     0.977 speedup
 analytical hessian:
 * wall-time:     0 d,  0 h,  0 min,  0.945 sec
 *  cpu-time:     0 d,  0 h,  0 min,  0.939 sec
 * ratio c/w:     0.994 speedup

