20
 energy: -36.130625883061 gnorm: 0.041164236511 xtb: 6.7.1 (41059b4)
C            0.86422346458257        1.38961290819992       -0.63428829649809
C            1.60237868402204        0.17987676726758       -0.07337798191966
H            2.57976208037794        0.07763099349733       -0.56921762564719
C            0.78776889020748       -1.09758331231061       -0.32415693420171
H            1.22547564092918       -1.91748457951386        0.25524661552888
C           -0.67299139079497       -0.90843317126188        0.11943093731277
H           -1.26342743544921       -1.75198898704885       -0.25736956967313
C           -1.27327493357281        0.39531783623833       -0.43736861838205
H           -1.36616467326918        0.36253472140189       -1.53893315595524
O           -0.43729218975819        1.51235919157075       -0.08248452555498
O           -2.53580332669935        0.61969006162484        0.07529127692657
O           -0.80935179855430       -0.90916726726186        1.53805314729376
O            0.87756257703370       -1.49306190693083       -1.69153523416708
O            1.76182795122944        0.27656147468954        1.35228555558586
H            0.82581614721340        1.31818051466584       -1.73799715954695
H            1.39606631186111        2.31864485371925       -0.39520223348775
H           -2.49837135174041        0.33677540643882        1.00338009531302
H           -0.09677888575312       -0.34572498512774        1.88193722429993
H            0.40388216702381       -0.85704897481613       -2.23982562333266
H            2.02324826063744        1.17805642656658        1.57338482495848
20
 energy: -36.132153307072 gnorm: 0.020729800841 xtb: 6.7.1 (41059b4)
C            0.86124092652921        1.39341818686222       -0.63278945981409
C            1.59482064990892        0.17814659502413       -0.06693598638020
H            2.57904995115971        0.08274357887624       -0.54843421755825
C            0.78599894436872       -1.10463010746123       -0.33147276729093
H            1.22522147212562       -1.92141981825796        0.24985677972105
C           -0.67394062861393       -0.91139421509808        0.11104540489928
H           -1.27634289585039       -1.75178239728504       -0.25248593492295
C           -1.26791428126313        0.40154568672832       -0.43983355326287
H           -1.36626910845693        0.36830906025735       -1.53872760115344
O           -0.43223915345690        1.50830948266150       -0.08721806449534
O           -2.52203973307698        0.62003064662277        0.08007201963396
O           -0.80380529725572       -0.90451673644833        1.51812684220033
O            0.88006855319480       -1.50840972330950       -1.68297098834094
O            1.74929589803294        0.28552288028380        1.34469988680439
H            0.81548161393986        1.32222010767810       -1.73276434788155
H            1.37927213756668        2.32263391376969       -0.37359282331017
H           -2.48436466360478        0.35183112402674        1.01339317977014
H           -0.08173715564679       -0.35563286251266        1.86519836667169
H            0.41062333749674       -0.87677781388879       -2.23930707964005
H            2.02213562242893        1.18460038307963        1.56139306320272
20
 energy: -36.132569049791 gnorm: 0.004030738691 xtb: 6.7.1 (41059b4)
C            0.85390959581571        1.39309946205707       -0.63449053780608
C            1.59219250684046        0.17808530868728       -0.06137846965387
H            2.58027111099191        0.08637888814656       -0.53782361298178
C            0.78545442980766       -1.10807027203276       -0.33974818534476
H            1.22686023848855       -1.92117859292530        0.24614489453606
C           -0.67264543738065       -0.91129690378777        0.11122429119362
H           -1.28368309938836       -1.74746140217646       -0.24714267978753
C           -1.26896051170360        0.40553484722374       -0.44289962042967
H           -1.37187963478367        0.36877903065693       -1.54104077754365
O           -0.43479769622255        1.50319792336709       -0.09365751989657
O           -2.51692593605483        0.61955228870204        0.08121858998377
O           -0.79522253109597       -0.90140582164055        1.51006377667379
O            0.88781678987477       -1.51312551006847       -1.67861162527364
O            1.73285265108593        0.28643675174332        1.34048186656526
H            0.81166886494923        1.32329747624446       -1.73257123540073
H            1.36575270786418        2.31999494397907       -0.36169057589031
H           -2.47734019274231        0.37471261205537        1.02202826582863
H           -0.06539232780695       -0.36515788340931        1.86170367779677
H            0.42257726877131       -0.88667249925896       -2.24445544648807
H            2.02204739221576        1.18004732404554        1.55989764277153
20
 energy: -36.132607418826 gnorm: 0.002014349170 xtb: 6.7.1 (41059b4)
C            0.85211723031717        1.39465276505372       -0.63455950966781
C            1.59120038551043        0.17919890424744       -0.05983963952280
H            2.57861486093861        0.08899183269181       -0.53874552465316
C            0.78550304693380       -1.10900178803961       -0.34069908668660
H            1.22673301853240       -1.92164550000742        0.24716146367192
C           -0.67291411028115       -0.91309629578958        0.11237377736441
H           -1.28441969765117       -1.74857353205456       -0.24748547978382
C           -1.26997175899846        0.40532385137203       -0.44299223861135
H           -1.37357637608250        0.36456657066809       -1.54138548204386
O           -0.43763979705098        1.50356694032528       -0.09567805969850
O           -2.51859533334004        0.61877031829388        0.07953129881286
O           -0.79352497650740       -0.90243081935679        1.51059717613678
O            0.88932433561629       -1.51222204168799       -1.67842989630405
O            1.72898660387356        0.28657440510791        1.34129658413971
H            0.81392561575009        1.32365429369016       -1.73284678743736
H            1.36450462945045        2.32151684697261       -0.36245169786135
H           -2.47797412817431        0.38527168658702        1.02306052072975
H           -0.06085285584971       -0.37000863604532        1.86254281902298
H            0.42526812513229       -0.88710788313147       -2.24689857409477
H            2.02784737140721        1.17674605271171        1.56270105533978
20
 energy: -36.132628340065 gnorm: 0.001782475885 xtb: 6.7.1 (41059b4)
C            0.84949644318879        1.39577017202853       -0.63416470067408
C            1.59037507967707        0.18079663631631       -0.05818768762521
H            2.57679716456754        0.09236812325183       -0.54003316165330
C            0.78554744302950       -1.10895037535797       -0.34051223721170
H            1.22719629886458       -1.92099238138558        0.24865457840145
C           -0.67349791091535       -0.91448886318487        0.11386430791911
H           -1.28432689771399       -1.74966576283715       -0.24806696894151
C           -1.27187273664503        0.40417163638461       -0.44416841090379
H           -1.37541220885381        0.35914187948800       -1.54285649528741
O           -0.44212966983822        1.50389269831123       -0.09811848593468
O           -2.52212886229692        0.61718748715052        0.07598519541943
O           -0.79287224060451       -0.90391300946460        1.51210527673061
O            0.89066910982677       -1.51049361966075       -1.67791263285223
O            1.72735292401501        0.28637577508396        1.34282904049909
H            0.81523675284201        1.32383639100085       -1.73292026033227
H            1.36202757573074        2.32310548791308       -0.36311218235959
H           -2.47967126871391        0.39807623049650        1.02238608723303
H           -0.05692979296325       -0.37582180097707        1.86383482097092
H            0.42738096175786       -0.88674428030049       -2.24857077588312
H            2.04131802457167        1.17109554735196        1.56621741133801
20
 energy: -36.132638719135 gnorm: 0.001637549187 xtb: 6.7.1 (41059b4)
C            0.84702200362928        1.39680615125523       -0.63287495631409
C            1.58916316410930        0.18217739952191       -0.05743381453754
H            2.57482019960017        0.09526646757763       -0.54104732941946
C            0.78549555746938       -1.10842481316196       -0.33954475829980
H            1.22785562198027       -1.92002590781545        0.24968250130673
C           -0.67398953868651       -0.91537906494346        0.11467776617265
H           -1.28355991884246       -1.75125263344685       -0.24771984526509
C           -1.27324776502297        0.40226324724140       -0.44570959586423
H           -1.37557287331651        0.35474596106978       -1.54440181361110
O           -0.44620532496001        1.50368679218425       -0.09970926968517
O           -2.52553410470031        0.61473203926771        0.07143980806389
O           -0.79343779791496       -0.90392101375963        1.51308641280322
O            0.89136525875011       -1.50963536790604       -1.67704661276974
O            1.72775792448980        0.28609656593395        1.34360804062212
H            0.81498196960195        1.32500251848173       -1.73190401180129
H            1.35818152860569        2.32488951247371       -0.36114817597294
H           -2.48186246740857        0.40833003776505        1.01998137322430
H           -0.05559416579735       -0.37844990696818        1.86414659251708
H            0.42800433394774       -0.88662895434840       -2.24837830616773
H            2.05891258399255        1.16446894118652        1.56754871385097
20
 energy: -36.132647680712 gnorm: 0.000877294896 xtb: 6.7.1 (41059b4)
C            0.84499603723432        1.39744097166411       -0.63112887810756
C            1.58807115868904        0.18300754922255       -0.05745947479660
H            2.57331056309446        0.09693819193389       -0.54171513317029
C            0.78525396483995       -1.10754152757587       -0.33849837886120
H            1.22842694521069       -1.91877289917822        0.25017034227317
C           -0.67432930743906       -0.91564383769795        0.11477661742852
H           -1.28272583200557       -1.75304582287409       -0.24591463095066
C           -1.27411407307238        0.39996145214727       -0.44754866642935
H           -1.37455824320015        0.35238503132264       -1.54613907377163
O           -0.44912289097575        1.50241664445789       -0.10007147065724
O           -2.52800604836538        0.61163164802204        0.06678248749928
O           -0.79410261027519       -0.90233827603552        1.51336845348749
O            0.89134556459289       -1.50974720347152       -1.67623310452988
O            1.72915261619790        0.28597053916793        1.34367892211202
H            0.81391444048643        1.32759800378994       -1.73025766230768
H            1.35376223662801        2.32584550459890       -0.35636992275530
H           -2.48411796551877        0.41394498059952        1.01660969193853
H           -0.05668211210630       -0.37638775847156        1.86363845791713
H            0.42726247952650       -0.88678973185936       -2.24694282001507
H            2.07681926598494        1.15787451184633        1.56650696254909
20
 energy: -36.132651677581 gnorm: 0.000614694695 xtb: 6.7.1 (41059b4)
C            0.84364989603791        1.39827886069730       -0.62953263845900
C            1.58735417200784        0.18332455744417       -0.05769041330692
H            2.57209313978874        0.09750811282325       -0.54288596036196
C            0.78504192006244       -1.10736684035918       -0.33800075071786
H            1.22869337049870       -1.91838209760852        0.25057098030043
C           -0.67448559705925       -0.91596779411822        0.11497489153836
H           -1.28232911803088       -1.75464705382818       -0.24363623215826
C           -1.27469027572851        0.39823294659474       -0.44873218243498
H           -1.37326422611538        0.35084713036308       -1.54744069541212
O           -0.45099266686375        1.50123560202983       -0.09968699319525
O           -2.52966054714499        0.60909706367374        0.06300087144857
O           -0.79422636262677       -0.90042871375057        1.51356980364071
O            0.89117929139274       -1.50988344972650       -1.67592056152505
O            1.73024733274002        0.28583969062663        1.34339058929281
H            0.81361592231838        1.33078451081026       -1.72875549541424
H            1.35089308722004        2.32648777053438       -0.35182144928149
H           -2.48679569498872        0.41562056760080        1.01370283139999
H           -0.05851766406909       -0.37178779091317        1.86325544135505
H            0.42642173475938       -0.88680263947735       -2.24597309423825
H            2.09032847532771        1.15275753819244        1.56486377638222
20
 energy: -36.132653780411 gnorm: 0.000443646577 xtb: 6.7.1 (41059b4)
C            0.84288381263792        1.39872844160811       -0.62844749372539
C            1.58730543036502        0.18346169782266       -0.05773849724833
H            2.57143579214449        0.09769751410272       -0.54415933898453
C            0.78478255106706       -1.10716868750511       -0.33770582375596
H            1.22869798280566       -1.91800829478439        0.25089871239872
C           -0.67471906950646       -0.91611010182832        0.11534367283207
H           -1.28238292037571       -1.75546587991498       -0.24189462004797
C           -1.27505829224988        0.39736452314262       -0.44948381578814
H           -1.37205510829056        0.35028086088786       -1.54838679094956
O           -0.45197498899481        1.50052248195025       -0.09906637072026
O           -2.53061261868293        0.60766926863368        0.06053931098035
O           -0.79415265001815       -0.89916682660883        1.51390423796077
O            0.89074963221326       -1.50978697838400       -1.67566456352925
O            1.73175668769626        0.28568436198724        1.34321530407286
H            0.81342194808356        1.33293930933715       -1.72777113854128
H            1.34954998789267        2.32661585019215       -0.34887767135381
H           -2.48927567834265        0.41382878514598        1.01121423117827
H           -0.06061938852851       -0.36695722137086        1.86295511888970
H            0.42548392903893       -0.88676979702803       -2.24539809726737
H            2.09933915057140        1.14938866422302        1.56377635245187
20
 energy: -36.132654933513 gnorm: 0.000237711292 xtb: 6.7.1 (41059b4)
C            0.84230738900605        1.39939728407010       -0.62746611053622
C            1.58709643972309        0.18359176616955       -0.05784916857091
H            2.57059293922033        0.09784953329641       -0.54553597704495
C            0.78471862066027       -1.10734173422219       -0.33747403572637
H            1.22875963771474       -1.91803885981705        0.25129390036785
C           -0.67473351343593       -0.91612652590486        0.11573768721105
H           -1.28227601235292       -1.75581442875081       -0.24080453142799
C           -1.27528922627813        0.39698597491057       -0.44978139996195
H           -1.37077270693554        0.34976710396955       -1.54883259382892
O           -0.45274111049306        1.50032367762012       -0.09845627523618
O           -2.53147984288977        0.60678507590600        0.05869804129778
O           -0.79429137929767       -0.89811524830750        1.51414815443035
O            0.89058581780916       -1.50983242886412       -1.67539610314646
O            1.73288211592951        0.28540766900203        1.34286316693789
H            0.81326562097100        1.33451735058173       -1.72683363081866
H            1.34866966693955        2.32716567582626       -0.34689720650676
H           -2.49176393178457        0.41138125970722        1.00928960793139
H           -0.06285546191887       -0.36258408749938        1.86272455578751
H            0.42493061178793       -0.88705566363881       -2.24509369919365
H            2.10695051515139        1.14648457755410        1.56291833688797
20
 energy: -36.132655253676 gnorm: 0.000127492949 xtb: 6.7.1 (41059b4)
C            0.84201189195005        1.39966880426458       -0.62700006150217
C            1.58726399688464        0.18383436087635       -0.05783782352233
H            2.57035575931165        0.09824739971897       -0.54643584669407
C            0.78453845794995       -1.10703508330131       -0.33725810957204
H            1.22863788221611       -1.91751453406226        0.25175287402690
C           -0.67497713564310       -0.91609895799454        0.11603805752567
H           -1.28248089039428       -1.75590643616993       -0.24036317081928
C           -1.27531958895851        0.39693719002414       -0.45006297244236
H           -1.37003140317266        0.34968122555349       -1.54921294524366
O           -0.45313362731786        1.50032024909718       -0.09809768958041
O           -2.53188034195663        0.60636622930942        0.05767359617853
O           -0.79445459426281       -0.89764985887845        1.51441255734288
O            0.89022649561636       -1.50987732690632       -1.67502649418809
O            1.73383706863113        0.28522135980104        1.34276577486791
H            0.81312395093152        1.33526202697157       -1.72644041494710
H            1.34833442897447        2.32734578189030       -0.34603823483505
H           -2.49310004801330        0.40910778413350        1.00798449148007
H           -0.06410484062715       -0.36037267775582        1.86260313458417
H            0.42432512365300       -0.88752596727584       -2.24499077831205
H            2.11138360375399        1.14473640231285        1.56278677450524
20
 energy: -36.132655293444 gnorm: 0.000064799283 xtb: 6.7.1 (41059b4)
C            0.84192841940816        1.39979204642825       -0.62686751313762
C            1.58719462962025        0.18387930482776       -0.05789352254227
H            2.57017257282715        0.09830991341980       -0.54669521635357
C            0.78459832222440       -1.10709080192624       -0.33717539364850
H            1.22874404876883       -1.91747867161300        0.25194216999201
C           -0.67490828451259       -0.91591948924352        0.11606515739036
H           -1.28235323009046       -1.75573161069937       -0.24037831634044
C           -1.27535542534712        0.39704257432798       -0.45008633263596
H           -1.36985802773062        0.34981117499705       -1.54925485263653
O           -0.45323611555719        1.50037008459000       -0.09797377113412
O           -2.53204734225659        0.60642635942372        0.05747367649332
O           -0.79455737945991       -0.89744850566634        1.51442164729882
O            0.89024996527367       -1.51007772262327       -1.67489927557849
O            1.73407955948883        0.28514308193897        1.34267101268801
H            0.81299118854516        1.33546402993546       -1.72631408879982
H            1.34822305814554        2.32748221837681       -0.34584835191436
H           -2.49352716651240        0.40843990601326        1.00764718404592
H           -0.06433876271201       -0.36004506108582        1.86264090398616
H            0.42420755696279       -0.88790335424628       -2.24493227890421
H            2.11234860244065        1.14428249443370        1.56270988058405
