      -----------------------------------------------------------      
     |                   =====================                   |     
     |                           x T B                           |     
     |                   =====================                   |     
     |                         S. Grimme                         |     
     |          Mulliken Center for Theoretical Chemistry        |     
     |                    University of Bonn                     |     
      -----------------------------------------------------------      

   * xtb version 6.7.1 (41059b4) compiled by 'michael@archlinux' on 2025-03-24

   xtb is free software: you can redistribute it and/or modify it under
   the terms of the GNU Lesser General Public License as published by
   the Free Software Foundation, either version 3 of the License, or
   (at your option) any later version.
   
   xtb is distributed in the hope that it will be useful,
   but WITHOUT ANY WARRANTY; without even the implied warranty of
   MERCHANTABILITY or FITNESS FOR A PARTICULAR PURPOSE.  See the
   GNU Lesser General Public License for more details.
   
   Cite this work as:
   * C. Bannwarth, E. Caldeweyher, S. Ehlert, A. Hansen, P. Pracht,
     J. Seibert, S. Spicher, S. Grimme, WIREs Comput. Mol. Sci., 2020, 11,
     e01493. DOI: 10.1002/wcms.1493
   
   for GFN2-xTB:
   * C. Bannwarth, S. Ehlert and S. Grimme., J. Chem. Theory Comput., 2019,
     15, 1652-1671. DOI: 10.1021/acs.jctc.8b01176
   for GFN1-xTB:
   * S. Grimme, C. Bannwarth, P. Shushkov, J. Chem. Theory Comput., 2017,
     13, 1989-2009. DOI: 10.1021/acs.jctc.7b00118
   for GFN0-xTB:
   * P. Pracht, E. Caldeweyher, S. Ehlert, S. Grimme, ChemRxiv, 2019, preprint.
     DOI: 10.26434/chemrxiv.8326202.v1
   for GFN-FF:
   * S. Spicher and S. Grimme, Angew. Chem. Int. Ed., 2020, 59, 15665-15673.
     DOI: 10.1002/anie.202004239
   
   for ALPB and GBSA implicit solvation:
   * S. Ehlert, M. Stahn, S. Spicher, S. Grimme, J. Chem. Theory Comput.,
     2021, 17, 4250-4261. DOI: 10.1021/acs.jctc.1c00471
   
   for ddCOSMO and CPCM-X implicit solvation:
   * M. Stahn, S. Ehlert, S. Grimme, J. Phys. Chem. A,
     2023, XX, XXXX-XXXX. DOI: 10.1021/acs.jpca.3c04382
   
   for DFT-D4:
   * E. Caldeweyher, C. Bannwarth and S. Grimme, J. Chem. Phys., 2017,
     147, 034112. DOI: 10.1063/1.4993215
   * E. Caldeweyher, S. Ehlert, A. Hansen, H. Neugebauer, S. Spicher,
     C. Bannwarth and S. Grimme, J. Chem. Phys., 2019, 150, 154122.
     DOI: 10.1063/1.5090222
   * E. Caldeweyher, J.-M. Mewes, S. Ehlert and S. Grimme, Phys. Chem. Chem. Phys.
     2020, 22, 8499-8512. DOI: 10.1039/D0CP00502A
   
   for sTDA-xTB:
   * S. Grimme and C. Bannwarth, J. Chem. Phys., 2016, 145, 054103.
     DOI: 10.1063/1.4959605
   
   in the mass-spec context:
   * V. Asgeirsson, C. Bauer and S. Grimme, Chem. Sci., 2017, 8, 4879.
     DOI: 10.1039/c7sc00601b
   * J. Koopman and S. Grimme, ACS Omega 2019, 4, 12, 15120-15133.
     DOI: 10.1021/acsomega.9b02011
   
   for metadynamics refer to:
   * S. Grimme, J. Chem. Theory Comput., 2019, 155, 2847-2862
     DOI: 10.1021/acs.jctc.9b00143
   
   for SPH calculations refer to:
   * S. Spicher and S. Grimme, J. Chem. Theory Comput., 2021, 17, 1701-1714
     DOI: 10.1021/acs.jctc.0c01306
   
   for ONIOM refer to:
   * C. Plett, A. Katbashev, S. Ehlert, S. Grimme, M. Bursch,
     Phys. Chem. Chem. Phys., 2023, 25, 17860-17868. DOI: 10.1039/D3CP02178E
   
   for DIPRO refer to:
   * J. Kohn, N. Gildemeister, S. Grimme, D. Fazzi, A. Hansen,
     J. Chem. Phys., 2023, just accepted.
   
   for PTB refer to:
   * S. Grimme, M. Mueller, A. Hansen, J. Chem. Phys., 2023, 158, 124111.
     DOI: 10.1063/5.0137838
   
   with help from (in alphabetical order)
   P. Atkinson, C. Bannwarth, F. Bohle, G. Brandenburg, E. Caldeweyher
   M. Checinski, S. Dohm, S. Ehlert, S. Ehrlich, I. Gerasimov, C. Hölzer
   A. Katbashev, J. Kohn, J. Koopman, C. Lavigne, S. Lehtola, F. März, M. Müller,
   F. Musil, H. Neugebauer, J. Pisarek, C. Plett, P. Pracht, F. Pultar,
   J. Seibert, P. Shushkov, S. Spicher, M. Stahn, M. Steiner, T. Strunk,
   J. Stückrath, T. Rose, and J. Unsleber
   
 * started run on 2025/04/09 at 04:44:16.999     
   ID    Z sym.   atoms
    1    6 C      1-6, 8
    2    8 O      7
    3    7 N      9
    4    1 H      10-14

           -------------------------------------------------
          |                Calculation Setup                |
           -------------------------------------------------

          program call               : /usr/bin/xtb xtb_opt.coord --opt normal --orca -I xtb_opt-xcontrol-inp
          coordinate file            : xtb_opt.coord
          omp threads                :                    16

           -------------------------------------------------
          |                   Orca driver                   |
           -------------------------------------------------
orca executable           : /home/michael/Documents/CHEM4561/orca_avx2/orca
orca input file           : xtb_opt.inp
orca input line           : 
orca parallel             : true
orca number of threads    : 16
                         * ORCA takes the control...
  ------------------------------------------------------------------------

                                 *****************
                                 * O   R   C   A *
                                 *****************

                                            #,                                       
                                            ###                                      
                                            ####                                     
                                            #####                                    
                                            ######                                   
                                           ########,                                 
                                     ,,################,,,,,                         
                               ,,#################################,,                 
                          ,,##########################################,,             
                       ,#########################################, ''#####,          
                    ,#############################################,,   '####,        
                  ,##################################################,,,,####,       
                ,###########''''           ''''###############################       
              ,#####''   ,,,,##########,,,,          '''####'''          '####       
            ,##' ,,,,###########################,,,                        '##       
           ' ,,###''''                  '''############,,,                           
         ,,##''                                '''############,,,,        ,,,,,,###''
      ,#''                                            '''#######################'''  
     '                                                          ''''####''''         
             ,#######,   #######,   ,#######,      ##                                
            ,#'     '#,  ##    ##  ,#'     '#,    #''#        ,####,   ,####,        
            ##       ##  ##   ,#'  ##            #'  '#       #'       #'  '#        
            ##       ##  #######   ##           ,######,      #####,   #    #        
            '#,     ,#'  ##    ##  '#,     ,#' ,#      #,     #,   #   #,  ,#        
             '#######'   ##     ##  '#######'  #'      '#     '####' # '####'        



                #########################################################
                #                        -***-                          #
                #          Department of theory and spectroscopy        #
                #                                                       #
                #                      Frank Neese                      #
                #                                                       #
                #     Directorship, Architecture, Infrastructure        #
                #                    SHARK, DRIVERS                     #
                #        Core code/Algorithms in most modules           #
                #                                                       #
                #        Max Planck Institute fuer Kohlenforschung      #
                #                Kaiser Wilhelm Platz 1                 #
                #                 D-45470 Muelheim/Ruhr                 #
                #                      Germany                          #
                #                                                       #
                #                  All rights reserved                  #
                #                        -***-                          #
                #########################################################


                         Program Version 6.0.1  -  RELEASE   -


 With contributions from (in alphabetic order):
[Max-Planck-Institut fuer Kohlenforschung]                               
  Daniel Aravena         : Magnetic Suceptibility                        
  Michael Atanasov       : Ab Initio Ligand Field Theory (pilot matlab implementation)
  Alexander A. Auer      : GIAO ZORA, VPT2 properties, NMR spectrum      
  Ute Becker             : All parallelization in ORCA, NUMFREQ, NUMCALC 
  Giovanni Bistoni       : ED, misc. LED, open-shell LED, HFLD           
  Martin Brehm           : Molecular dynamics                            
  Dmytro Bykov           : pre 5.0 version of the SCF Hessian            
  Marcos Casanova-Páez   : Triplet and SCS-CIS(D). UHF-(DLPNO)-IP/EA/STEOM-CCSD. UHF-CVS-IP/STEOM-CCSD   
  Vijay G. Chilkuri      : MRCI spin determinant printing, contributions to CSF-ICE 
  Pauline Colinet        : FMM embedding                                 
  Dipayan Datta          : RHF DLPNO-CCSD density                        
  Achintya Kumar Dutta   : EOM-CC, STEOM-CC                              
  Nicolas Foglia         : Exact transition moments, OPA infrastructure, MCD improvements    
  Dmitry Ganyushin       : Spin-Orbit,Spin-Spin,Magnetic field MRCI      
  Miquel Garcia-Rates    : C-PCM and meta-GGA Hessian, CCSD/C-PCM, Gaussian charge scheme 
  Tiago L. C. Gouveia    : GS-ROHF, GS-ROCIS                             
  Yang Guo               : DLPNO-NEVPT2, F12-NEVPT2, CIM, IAO-localization        
  Andreas Hansen         : Spin unrestricted coupled pair/coupled cluster methods 
  Ingolf Harden          : AUTO-CI MPn and infrastructure                
  Benjamin Helmich-Paris : MC-RPA, TRAH-(SCF,CASSCF), AVAS, COSX integrals, SCF dyn. polar. 
  Lee Huntington         : MR-EOM, pCC                                   
  Robert Izsak           : Overlap fitted RIJCOSX, COSX-SCS-MP3, EOM     
  Riya Kayal             : Wick's Theorem for AUTO-CI, AUTO-CI UHF-CCSDT 
  Emily Kempfer          : AUTO-CI, RHF CISDT and CCSDT                  
  Christian Kollmar      : KDIIS, OOCD, Brueckner-CCSD(T), CCSD density, CASPT2, CASPT2-K, improved NEVPT2 
  Axel Koslowski         : Symmetry handling                             
  Simone Kossmann        : meta-GGA functionals, TD-DFT gradient, OOMP2, (MP2 Hessian; deprecated post 5.0) 
  Lucas Lang             : DCDCAS                                        
  Marvin Lechner         : AUTO-CI (C++ implementation), FIC-MRCC        
  Spencer Leger          : CASSCF response                               
  Dagmar Lenk            : GEPOL surface, SMD, ORCA-2-JSON               
  Dimitrios Liakos       : Extrapolation schemes; Compound Job, initial MDCI parallelization 
  Dimitrios Manganas     : Further ROCIS development; embedding schemes. LFT, Crystal Embedding 
  Dimitrios Pantazis     : SARC Basis sets                               
  Anastasios Papadopoulos: AUTO-CI, single reference methods and gradients 
  Taras Petrenko         : pre 6.0 DFT Hessian and TD-DFT gradient, (ASA, deprecated), ECA, 1-Electron XAS/XES, NRVS 
  Peter Pinski           : DLPNO-MP2, DLPNO-MP2 Gradient                 
  Christoph Reimann      : Effective Core Potentials                     
  Marius Retegan         : Local ZFS, SOC                                
  Christoph Riplinger    : Optimizer, TS searches, QM/MM, DLPNO-CCSD(T), (RO)-DLPNO pert. Triples 
  Michael Roemelt        : Original ROCIS implementation                 
  Masaaki Saitow         : Open-shell DLPNO-CCSD energy and density      
  Barbara Sandhoefer     : DKH picture change effects                    
  Kantharuban Sivalingam : CASSCF convergence/infrastructure, NEVPT2 and variants, FIC-MRCI 
  Bernardo de Souza      : ESD, SOC TD-DFT                               
  Georgi L. Stoychev     : AutoAux, RI-MP2 NMR, DLPNO-MP2 response, X2C  
  Van Anh Tran           : RI-MP2 g-tensors                              
  Willem Van den Heuvel  : Paramagnetic NMR                              
  Zikuan Wang            : NOTCH, Electric field optimization            
  Frank Wennmohs         : Technical directorship and infrastructure     
  Hang Xu                : AUTO-CI-Response properties                   
                                                                         
[FACCTs GmbH]                                                            
  Markus Bursch, Miquel Garcia-Rates, Christoph Riplinger, Bernardo de Souza, Georgi L. Stoychev 
                                                                 
  APM, Basis sets (HGBS, AHGBS, def-TZVP (Ac-Lr), def2-XVPD (La-Lu)), CI-OPT, improved COSX, DLPNO-Multilevel,           
  DOCKER, DRACO, updates on ESD, GOAT, IRC, LR-CPCM, MBIS, meta-GGA TD-DFT gradient, ML-optimized integration grids, 
  MM, NACMEs, nearIR, NEB, NEB-TS, NL-DFT gradient (VV10), 2- and 3-layer-ONIOM, interface openCOSMO-RS, QMMM,   
  Crystal-QMMM, SF, symmetry and pop. for TD-DFT, r2SCAN hybrids, SOLVATOR                                   
                                                                         
[Other institutions]                                                     
  V. Asgeirsson          : NEB                                           
  Christoph Bannwarth    : sTDA-DFT, sTD-DFT, PBEh-3c, B97-3c, D3        
  Sebastian Ehlert       : rSCAN, r2SCAN, r2SCAN-3c, D4, dhf basis sets  
  Marvin Friede          : D4 for Fr, Ra, Ac-Lr                          
  Lars Goerigk           : TD-DFT with DH, B97 family of functionals     
  Stefan Grimme          : VdW corrections, initial TS optimization, DFT functionals, gCP, sTDA/sTD-DF 
  Waldemar Hujo          : DFT-NL                                        
  H. Jonsson             : NEB                                           
  Holger Kruse           : gCP                                           
  Marcel Mueller         : wB97X-3c, vDZP basis set                      
  Hagen Neugebauer       : wr2SCAN                                       
  Tobias Risthaus        : range-separated hybrid DFT                    
  Lukas Wittmann         : regularized MP2, r2SCAN double-hybrids, wr2SCAN        
                                                                         
We gratefully acknowledge several colleagues who have allowed us to      
interface, adapt or use parts of their codes:                            
  Ed Valeev, F. Pavosevic, A. Kumar             : LibInt (2-el integral package), F12 methods 
  Garnet Chan, S. Sharma, J. Yang, R. Olivares  : DMRG                   
  Ulf Ekstrom                                   : XCFun DFT Library      
  Mihaly Kallay                                 : mrcc  (arbitrary order and MRCC methods)
  Frank Weinhold                                : gennbo (NPA and NBO analysis)           
  Simon Mueller                                 : openCOSMO-RS                            
  Christopher J. Cramer and Donald G. Truhlar   : smd solvation model                     
  S Lehtola, MJT Oliveira, MAL Marques          : LibXC Library                           
  Liviu Ungur et al                             : ANISO software                          


 Your calculation uses the libint2 library for the computation of 2-el integrals
 For citations please refer to: http://libint.valeyev.net

 Your ORCA version has been built with support for libXC version: 6.2.2
 For citations please refer to: https://libxc.gitlab.io

 This ORCA versions uses:
   CBLAS   interface :  Fast vector & matrix operations
   LAPACKE interface :  Fast linear algebra routines
   SCALAPACK package :  Parallel linear algebra routines
   Shared memory     :  Shared parallel matrices
   BLAS/LAPACK       :  OpenBLAS 0.3.27  USE64BITINT DYNAMIC_ARCH NO_AFFINITY Zen SINGLE_THREADED
        Core in use  :  Zen
   Copyright (c) 2011-2014, The OpenBLAS Project




***************************************
The coordinates will be read from file: xtb_opt.xyz
***************************************


Your calculation utilizes the geometrical counterpoise correction gCP
Please cite in your paper:
H.Kruse, S. Grimme J.Chem.Phys., 136, (2012), 154101 
   

Your calculation utilizes the atom-pairwise dispersion correction
based on EEQ partial charges (D4)


================================================================================

----- Orbital basis set information -----
Your calculation utilizes the basis: def2-mTZVPP
   Stefan Grimme, Andreas Hansen, Sebastian Ehlert, and Jan-Michael Mewes 
   J. Chem. Phys. 154, 064103 (2021). DOI: 10.1063/5.0040021

----- AuxJ basis set information -----
Your calculation utilizes the auxiliary basis: def2/J
   F. Weigend, Phys. Chem. Chem. Phys. 8, 1057 (2006).

================================================================================
                                        WARNINGS
                       Please study these warnings very carefully!
================================================================================

WARNING: Old DensityContainer found on disk!
         Will remove this file - 
         If you want to keep old densities, please start your calculation with a different basename. 



WARNING: SCAN, rSCAN, or r2SCAN functional requested.
  ===> : libXC variant has now been activated.



================================================================================
                                       INPUT FILE
================================================================================
NAME = xtb_opt.inp
|  1> ! r2scan-3c def2/J RI DEFGRID2 scfconv7 ENGRAD tightSCF miniprint
|  2> * xyzfile 0 1 xtb_opt.xyz
|  3> 
|  4>                          ****END OF INPUT****
================================================================================

                     *******************************
                     * Energy+Gradient Calculation *
                     *******************************

---------------------------------
CARTESIAN COORDINATES (ANGSTROEM)
---------------------------------
  C     -0.715438   -1.820664   -0.000001
  C      0.606086   -1.419524   -0.000010
  C      0.902891   -0.055449   -0.000011
  C     -0.113568    0.893781   -0.000002
  C     -1.439689    0.476576    0.000006
  C     -1.735126   -0.883925    0.000007
  O     -2.406038    1.426993    0.000012
  C      2.253443    0.366751   -0.000040
  N      3.350411    0.698778    0.000030
  H     -0.958773   -2.872371   -0.000005
  H      1.406303   -2.143388   -0.000022
  H      0.109785    1.948916   -0.000005
  H     -2.767896   -1.206596    0.000014
  H     -3.279609    1.016877    0.000026

----------------------------
CARTESIAN COORDINATES (A.U.)
----------------------------
  NO LB      ZA    FRAG     MASS         X           Y           Z
   0 C     6.0000    0    12.011   -1.351981   -3.440557   -0.000003
   1 C     6.0000    0    12.011    1.145336   -2.682512   -0.000020
   2 C     6.0000    0    12.011    1.706217   -0.104783   -0.000021
   3 C     6.0000    0    12.011   -0.214613    1.689001   -0.000004
   4 C     6.0000    0    12.011   -2.720619    0.900598    0.000012
   5 C     6.0000    0    12.011   -3.278914   -1.670376    0.000013
   6 O     8.0000    0    15.999   -4.546753    2.696625    0.000022
   7 C     6.0000    0    12.011    4.258390    0.693059   -0.000075
   8 N     7.0000    0    14.007    6.331359    1.320500    0.000056
   9 H     1.0000    0     1.008   -1.811818   -5.427994   -0.000009
  10 H     1.0000    0     1.008    2.657528   -4.050417   -0.000042
  11 H     1.0000    0     1.008    0.207464    3.682918   -0.000010
  12 H     1.0000    0     1.008   -5.230566   -2.280136    0.000026
  13 H     1.0000    0     1.008   -6.197563    1.921619    0.000050

------------------------------------------------------------------------------
                   ___                                                        
                  /   \      - P O W E R E D   B Y -                         
                 /     \                                                     
                 |  |  |   _    _      __       _____    __    __             
                 |  |  |  | |  | |    /  \     |  _  \  |  |  /  |          
                  \  \/   | |  | |   /    \    | | | |  |  | /  /          
                 / \  \   | |__| |  /  /\  \   | |_| |  |  |/  /          
                |  |  |   |  __  | /  /__\  \  |    /   |      \           
                |  |  |   | |  | | |   __   |  |    \   |  |\   \          
                \     /   | |  | | |  |  |  |  | |\  \  |  | \   \       
                 \___/    |_|  |_| |__|  |__|  |_| \__\ |__|  \__/        
                                                                              
                      - O R C A' S   B I G   F R I E N D -                    
                                      &                                       
                       - I N T E G R A L  F E E D E R -                       
                                                                              
 v1 FN, 2020, v2 2021, v3 2022-2024                                           
------------------------------------------------------------------------------


----------------------
SHARK INTEGRAL PACKAGE
----------------------

Number of atoms                             ...     14
Number of basis functions                   ...    206
Number of shells                            ...     98
Maximum angular momentum                    ...      2
Integral batch strategy                     ... SHARK/LIBINT Hybrid
RI-J (if used) integral strategy            ... SPLIT-RIJ (Revised 2003 algorithm where possible)
Printlevel                                  ...      1
Contraction scheme used                     ... SEGMENTED contraction
Prescreening option                         ... SCHWARTZ
   Thresh                                   ... 3.000e-11
   Tcut                                     ... 1.000e-12
   Tpresel                                  ... 1.000e-12 
Coulomb Range Separation                    ... NOT USED
Exchange Range Separation                   ... NOT USED
Multipole approximations                    ... NOT USED
Finite Nucleus Model                        ... NOT USED
CABS basis                                  ... NOT available
Auxiliary Coulomb fitting basis             ... AVAILABLE
   # of basis functions in Aux-J            ...    496
   # of shells in Aux-J                     ...    160
   Maximum angular momentum in Aux-J        ...      4
Auxiliary J/K fitting basis                 ... NOT available
Auxiliary Correlation fitting basis         ... NOT available
Auxiliary 'external' fitting basis          ... NOT available

Checking pre-screening integrals            ... done (  0.0 sec) Dimension = 98
Check shell pair data                       ... done (  0.0 sec)
Shell pair information
Shell pair cut-off parameter TPreSel        ...   1.0e-12
Total number of shell pairs                 ...      4851
Shell pairs after pre-screening             ...      4355
Total number of primitive shell pairs       ...     18168
Primitive shell pairs kept                  ...     11612
          la=0 lb=0:   1317 shell pairs
          la=1 lb=0:   1605 shell pairs
          la=1 lb=1:    501 shell pairs
          la=2 lb=0:    540 shell pairs
          la=2 lb=1:    331 shell pairs
          la=2 lb=2:     61 shell pairs

Calculating one electron integrals          ... done (  0.0 sec)
Calculating RI/J V-Matrix + Cholesky decomp.... done (  0.0 sec)
Calculating Nuclear repulsion               ... done (  0.0 sec) ENN=    379.013667275535 Eh

Diagonalization of the overlap matrix:
Smallest eigenvalue                        ... 2.682e-05
Time for diagonalization                   ...    0.003 sec
Threshold for overlap eigenvalues          ... 1.000e-07
Number of eigenvalues below threshold      ... 0
Time for construction of square roots      ...    0.001 sec
Total time needed                          ...    0.004 sec

-------------------
DFT GRID GENERATION
-------------------

General Integration Accuracy     IntAcc      ... 4.388
Radial Grid Type                 RadialGrid  ... OptM3 with GC (2021)
Angular Grid (max. ang.)         AngularGrid ... 4 (Lebedev-302)
Angular grid pruning method      GridPruning ... 4 (adaptive)
Weight generation scheme         WeightScheme... mBecke (2022)
Basis function cutoff            BFCut       ... 1.0000e-11
Integration weight cutoff        WCut        ... 1.0000e-14
Partially contracted basis set               ... off
Rotationally invariant grid construction     ... off
Angular grids for H and He will be reduced by one unit
Diffuse basis detected: some atoms will have their outermost
                        angular grid increased by 1.

Total number of grid points                  ...    70706
Total number of batches                      ...     1113
Average number of points per batch           ...       63
Average number of grid points per atom       ...     5050
Initializing property integral containers    ... done (  0.0 sec)

SHARK setup successfully completed in   0.5 seconds

Maximum memory used throughout the entire STARTUP-calculation: 33.3 MB
Occupation numbers will be reassigned to an Aufbau configuration
             **** ENERGY FILE WAS UPDATED (xtb_opt.en.tmp) ****
Finished Guess after   0.0 sec
Maximum memory used throughout the entire GUESS-calculation: 14.9 MB
----------------------------------------D-I-I-S--------------------------------------------
Iteration    Energy (Eh)           Delta-E    RMSDP     MaxDP     DIISErr   Damp  Time(sec)
-------------------------------------------------------------------------------------------
               ***  Starting incremental Fock matrix formation  ***
                              *** Initializing SOSCF ***
---------------------------------------S-O-S-C-F--------------------------------------
Iteration    Energy (Eh)           Delta-E    RMSDP     MaxDP     MaxGrad    Time(sec)
--------------------------------------------------------------------------------------
    1    -399.6244266592543113     0.00e+00  5.54e-06  1.27e-04  1.71e-05     1.1
               *** Restarting incremental Fock matrix formation ***
    2    -399.6244266693790337    -1.01e-08  6.31e-06  1.26e-04  2.61e-05     1.1
    3    -399.6244265917068219     7.77e-08  4.11e-06  7.74e-05  7.38e-05     0.9
                 **** Energy Check signals convergence ****

               *****************************************************
               *                     SUCCESS                       *
               *           SCF CONVERGED AFTER   3 CYCLES          *
               *****************************************************

             **** ENERGY FILE WAS UPDATED (xtb_opt.en.tmp) ****

----------------
TOTAL SCF ENERGY
----------------

Total Energy       :       -399.62442659170682 Eh          -10874.33349 eV

Components:
Nuclear Repulsion  :        379.01366727553528 Eh           10313.48621 eV
Electronic Energy  :       -778.63809386724211 Eh          -21187.81970 eV
One Electron Energy:      -1291.20128395689676 Eh          -35135.37318 eV
Two Electron Energy:        512.56319008965465 Eh           13947.55348 eV

Virial components:
Potential Energy   :       -797.78274821333946 Eh          -21708.77223 eV
Kinetic Energy     :        398.15832162163264 Eh           10834.43874 eV
Virial Ratio       :          2.00368221606948

DFT components:
N(Alpha)           :       31.000019720034 electrons
N(Beta)            :       31.000019720034 electrons
N(Total)           :       62.000039440068 electrons
E(X)               :      -53.149983336591 Eh       
E(C)               :       -2.024322520110 Eh       
E(XC)              :      -55.174305856700 Eh       

---------------
SCF CONVERGENCE
---------------

  Last Energy change         ...   -7.7672e-08  Tolerance :   1.0000e-07
  Last MAX-Density change    ...    7.7424e-05  Tolerance :   1.0000e-07
  Last RMS-Density change    ...    4.1137e-06  Tolerance :   5.0000e-09
  Last DIIS Error            ...    7.5055e-05  Tolerance :   1.0000e-07
  Last Orbital Gradient      ...    7.3769e-05  Tolerance :   1.0000e-04
  Last Orbital Rotation      ...    1.2794e-04  Tolerance :   1.0000e-04


----------------
ORBITAL ENERGIES
----------------

  NO   OCC          E(Eh)            E(eV) 
   0   2.0000     -19.009808      -517.2832 
   1   2.0000     -14.156727      -385.2241 
   2   2.0000     -10.126347      -275.5519 
   3   2.0000     -10.092408      -274.6284 
   4   2.0000     -10.069531      -274.0059 
   5   2.0000     -10.065868      -273.9062 
   6   2.0000     -10.065060      -273.8842 
   7   2.0000     -10.064304      -273.8636 
   8   2.0000     -10.061657      -273.7916 
   9   2.0000      -1.056485       -28.7484 
  10   2.0000      -0.883798       -24.0494 
  11   2.0000      -0.852715       -23.2036 
  12   2.0000      -0.762987       -20.7619 
  13   2.0000      -0.742593       -20.2070 
  14   2.0000      -0.644316       -17.5327 
  15   2.0000      -0.607423       -16.5288 
  16   2.0000      -0.572070       -15.5668 
  17   2.0000      -0.497536       -13.5386 
  18   2.0000      -0.479104       -13.0371 
  19   2.0000      -0.466715       -12.6999 
  20   2.0000      -0.427864       -11.6428 
  21   2.0000      -0.413282       -11.2460 
  22   2.0000      -0.390678       -10.6309 
  23   2.0000      -0.370705       -10.0874 
  24   2.0000      -0.366441        -9.9714 
  25   2.0000      -0.343910        -9.3583 
  26   2.0000      -0.327689        -8.9169 
  27   2.0000      -0.319428        -8.6921 
  28   2.0000      -0.314035        -8.5453 
  29   2.0000      -0.260377        -7.0852 
  30   2.0000      -0.234143        -6.3713 
  31   0.0000      -0.083906        -2.2832 
  32   0.0000      -0.047562        -1.2942 
  33   0.0000       0.007265         0.1977 
  34   0.0000       0.039512         1.0752 
  35   0.0000       0.049429         1.3450 
  36   0.0000       0.052063         1.4167 
  37   0.0000       0.089607         2.4383 
  38   0.0000       0.113998         3.1021 
  39   0.0000       0.115201         3.1348 
  40   0.0000       0.119900         3.2626 
  41   0.0000       0.131726         3.5845 
*Only the first 10 virtual orbitals were printed.
Total SCF time: 0 days 0 hours 0 min 3 sec 
Finished LeanSCF after   3.2 sec

Maximum memory used throughout the entire LEANSCF-calculation: 22.3 MB


-------------------------------------------------------------------------------
                          DFT DISPERSION CORRECTION                            
                                                                               
                                DFTD4 V3.4.0                                   
-------------------------------------------------------------------------------
-------------------------   ----------------
Dispersion correction           -0.004700784
-------------------------   ----------------

------------------   -----------------
gCP correction             0.003849561
------------------   -----------------

-------------------------   --------------------
FINAL SINGLE POINT ENERGY      -399.625277815394
-------------------------   --------------------

------------------------------------------------------------------------------
                         ORCA SCF GRADIENT CALCULATION
------------------------------------------------------------------------------

Nuc. rep. gradient        (SHARK) ... done (  0.0 sec)
HCore & Overlap gradient  (SHARK) ... done (  0.1 sec)
Split-RIJ-J gradient      (SHARK) ... done (  0.9 sec)
XC gradient                       ... done (  2.9 sec)
Dispersion correction             ... done (  0.0 sec)

-------------------
DISPERSION GRADIENT
-------------------

   1   C   :   -0.000023693   -0.000079216   -0.000000000
   2   C   :    0.000027548   -0.000058706   -0.000000001
   3   C   :    0.000049762    0.000004685   -0.000000000
   4   C   :   -0.000003932    0.000047552   -0.000000000
   5   C   :   -0.000059772    0.000029905    0.000000000
   6   C   :   -0.000064885   -0.000027581    0.000000000
   7   O   :   -0.000082269    0.000047487    0.000000001
   8   C   :    0.000098269    0.000026780   -0.000000001
   9   N   :    0.000102727    0.000031221    0.000000001
  10   H   :   -0.000010085   -0.000042009    0.000000000
  11   H   :    0.000021127   -0.000034279   -0.000000000
  12   H   :    0.000000359    0.000041623   -0.000000000
  13   H   :   -0.000035228   -0.000014187    0.000000000
  14   H   :   -0.000019926    0.000026724    0.000000000

Difference to translation invariance:
           :   -0.0000000000    0.0000000000   -0.0000000000

Difference to rotation invariance:
           :    0.0000000000   -0.0000000000   -0.0000000000

Norm of the Dispersion gradient    ...    0.0002528900
RMS gradient                       ...    0.0000390218
MAX gradient                       ...    0.0001027272
gCP correction                   ... done

------------------
CARTESIAN GRADIENT
------------------

   1   C   :    0.000429682    0.000565824   -0.000000193
   2   C   :   -0.003278325    0.003391312    0.000000384
   3   C   :    0.003575638    0.001594666    0.000003747
   4   C   :    0.004401795   -0.004908413    0.000000272
   5   C   :   -0.001241618    0.004519901   -0.000000474
   6   C   :    0.003084702   -0.000075865   -0.000000085
   7   O   :    0.002351844   -0.006278819   -0.000000175
   8   C   :    0.018911565    0.005656817   -0.000005499
   9   N   :   -0.026867229   -0.008265902    0.000001886
  10   H   :    0.000736978    0.003495835   -0.000000177
  11   H   :   -0.002383555    0.001791317    0.000000024
  12   H   :   -0.001319628   -0.003505356    0.000000114
  13   H   :    0.003483376    0.001409001    0.000000072
  14   H   :   -0.001885225    0.000609683    0.000000106

Difference to translation invariance:
           :   -0.0000000000   -0.0000000000   -0.0000000000

Difference to rotation invariance:
           :    0.0000000078   -0.0000000715    0.0003946610

Norm of the Cartesian gradient     ...    0.0373034151
RMS gradient                       ...    0.0057560419
MAX gradient                       ...    0.0268672288

-------
TIMINGS
-------

Total SCF gradient time     ....        4.024 sec

Densities                   ....       0.000 sec  (  0.0%)
One electron gradient       ....       0.127 sec  (  3.2%)
RI-J Coulomb gradient       ....       0.931 sec  ( 23.1%)
XC gradient                 ....       2.946 sec  ( 73.2%)

Maximum memory used throughout the entire SCFGRAD-calculation: 35.1 MB

------------------------------------------------------------------------------
                              ORCA PROPERTY CALCULATIONS
------------------------------------------------------------------------------

GBWName                                 ... xtb_opt.gbw
Number of atoms                         ...     14
Number of basis functions               ...    206
Max core memory                         ...   1024 MB

Electric properties:
Dipole moment                           ... YES
Quadrupole moment                       ...  NO
Static polarizability (Dipole/Dipole)   ...  NO
Static polarizability (Dipole/Quad.)    ...  NO
Static polarizability (Quad./Quad.)     ...  NO
Static polarizability (Velocity)        ...  NO

Atomic electric properties:
Dipole moment                           ...  NO
Quadrupole moment                       ...  NO
Static polarizability                   ...  NO

Choice of electric origin               ... Center of mass
Position of electric origin             ...     0.000023    -0.000011     0.000000

General magnetic properties:
Magnetizability                         ...  NO

EPR properties:
g-Tensor (aka g-matrix)                 ...  NO
Zero-Field splitting spin-orbit         ...  NO
Zero-field splitting spin-spin          ...  NO
Hyperfine couplings                     ...  NO (   0 nuclei)
Quadrupole couplings                    ...  NO (   0 nuclei)
Contact density                         ...  NO (   0 nuclei)

NMR properties:
Chemical shifts                         ...  NO (   0 nuclei)
Spin-rotation constants                 ...  NO (   0 nuclei)
Spin-spin couplings                     ...  NO (   0 nuclei,    0 pairs)

Choice of magnetic origin               ... GIAO
Position of magnetic origin             ...     0.000000     0.000000     0.000000

Properties with geometric perturbations:
SCF Hessian                             ...  NO
IR spectrum                             ...  NO
VCD spectrum                            ...  NO
X-ray spectroscopy properties:
SCF XES/XAS/RIXS spectra                ...  NO


-------------
DIPOLE MOMENT
-------------

Method             : SCF
Type of density    : Electron Density
Multiplicity       :   1
Irrep              :   0
Energy             :  -399.6244265917068219 Eh
Relativity type    : 
Basis              : AO
                                X                 Y                 Z
Electronic contribution:      3.005063004       2.173703695      -0.000030305
Nuclear contribution   :     -5.167956534      -3.030250428       0.000007843
                        -----------------------------------------
Total Dipole Moment    :     -2.162893530      -0.856546734      -0.000022461
                        -----------------------------------------
Magnitude (a.u.)       :      2.326323436
Magnitude (Debye)      :      5.913044256



--------------------
Rotational spectrum 
--------------------
 
Rotational constants in cm-1:             0.115405             0.040728             0.030104 
Rotational constants in MHz :          3459.758229          1220.990409           902.490593 

Dipole components along the rotational axes: 
x,y,z [a.u.] :     2.167399    -0.845081    -0.000023 
x,y,z [Debye]:     5.509091    -2.148025    -0.000058 

 

Dipole moment calculation done in   0.0 sec 

Maximum memory used throughout the entire PROP-calculation: 13.5 MB

--------------------------------
SUGGESTED CITATIONS FOR THIS RUN
--------------------------------

Below you find a list of papers that are relevant to this ORCA run
We neither can nor want to force you to cite these papers, but we appreciate if you do
You receive ORCA, which is the product of decades of hard work by many enthusiastic individuals, for free
The only thing we kindly ask in return is that you cite our papers,
We deeply appreciate it, if you show your appreciation for ORCA by not just citing the generic ORCA reference.

Please note that relegating all ORCA citations to the supporting information does *not* help us.
SI sections are not indexed - citations you put there will not count into any citation statistics
But we need these citations in order to attract the funding resources that allow us to do what we are doing

Therefore, if you are a happy ORCA user, please consider citing a few of the papers listed below in the main body of your paper

In addition to the list printed below, the program has created the file xtb_opt.bibtex that contains the list in bibtex format
You can import this file easily into all common literature databanks and citation aid programs


List of essential papers. We consider these as the minimum necessary citations

  1. Neese,F.
     Software update: the ORCA program system, version 5.0
     WIRES Comput. Molec. Sci., 2022 12(1)e1606
     doi.org/10.1002/wcms.1606
  2. Grimme,S.; Hansen,A.; Ehlert,S.; Mewes,J.
     r2SCAN-3c: A 'Swiss army knife' composite electronic-structure method
     J. Chem. Phys., 2021 154 064103
     doi.org/10.1063/5.0040021

List of papers to cite with high priority. The work reported in these papers was absolutely
necessary for this run to complete.
Our perspective: the developers of density functionals and basis sets usually get cited in chemistry papers
Good! But without the algorithms to do something with them, the functionals or basis sets would not do anything.
Hence, in our opinion, the algorithm design and method developments papers are equally worthy of getting cited

  1. Neese,F.
     An improvement of the resolution of the identity approximation for the formation of the Coulomb matrix
     J. Comp. Chem., 2003 24(14)1740-1747
     doi.org/10.1002/jcc.10318
  2. Neese,F.
     The SHARK Integral Generation and Digestion System
     J. Comp. Chem., 2022  1-16
     doi.org/10.1002/jcc.26942
  3. Lehtola,S.; Steigemann,C.; Oliveira,M.; Marques,M.
     Recent developments in Libxc - A comprehensive library of functionals for density functional theory
     Software X, 2018 7 
     doi.org/10.1016/j.softx.2017.11.002
  4. Caldeweyher,E.; Bannwarth,C.; Grimme,S.
     Extension of the D3 dispersion coefficient model
     J. Chem. Phys., 2017 147 034112
     doi.org/10.1063/1.4993215
  5. Caldeweyher,E.; Ehlert,S.; Hansen,A.; Neugebauer,H.; Spicher,S.; Bannwarth,C.; Grimme,S.
     A generally applicable atomic-charge dependent London dispersion correction
     J. Chem. Phys., 2019 150 154122
     doi.org/10.1063/1.5090222
  6. Caldeweyher,E.; Mewes,J.; Ehlert,S.; Grimme,S.
     Extension and evaluation of the D4 London-dispersion model for periodic systems
     Phys. Chem. Chem. Phys., 2020 22(16)8499-8512
     doi.org/10.1039/D0CP00502A
  7. Wittmann,L.; Gordiy,I.; Friede,M.; Helmich-Paris,B.; Grimme,S.; Hansen,A.; Bursch,M.
     Extension of the D3 and D4 London Dispersion Corrections to the full Actinides Series
     Phys. Chem. Chem. Phys., 2024 26(32)21379-21394
     doi.org/https://doi.org/10.1039/D4CP01514B 

List of suggested additional citations. These are papers that are important in the 'surrounding' of 
of this run, or papers that preceded the highly important papers. If you like your results we are grateful for a citation.

  1. Neese,F.
     The ORCA program system
     WIRES Comput. Molec. Sci., 2012 2(1)73-78
     doi.org/10.1002/wcms.81
  2. Neese,F.
     Software update: the ORCA program system, version 4.0
     WIRES Comput. Molec. Sci., 2018 8(1)1-6
     doi.org/10.1002/wcms.1327
  3. Neese,F.; Wennmohs,F.; Becker,U.; Riplinger,C.
     The ORCA quantum chemistry program package
     J. Chem. Phys., 2020 152 Art. No. L224108
     doi.org/10.1063/5.0004608

List of optional additional citations

  1. Neese,F.
     Approximate second-order SCF convergence for spin unrestricted wavefunctions
     Chem. Phys. Lett., 2000 325(1-3)93-98
     doi.org/10.1016/s0009-2614(00)00662-x

Timings for individual modules:

Sum of individual times          ...        7.854 sec (=   0.131 min)
Startup calculation              ...        0.489 sec (=   0.008 min)   6.2 %
SCF iterations                   ...        3.264 sec (=   0.054 min)  41.6 %
Property calculations            ...        0.037 sec (=   0.001 min)   0.5 %
SCF Gradient evaluation          ...        4.065 sec (=   0.068 min)  51.8 %
                             ****ORCA TERMINATED NORMALLY****
TOTAL RUN TIME: 0 days 0 hours 0 minutes 7 seconds 920 msec
  ------------------------------------------------------------------------
          * successful ORCA run, taking over control again...

         :::::::::::::::::::::::::::::::::::::::::::::::::::::
         ::                  ORCA SUMMARY                   ::
         :::::::::::::::::::::::::::::::::::::::::::::::::::::
         :: total energy            -399.625277815394 Eh    ::
         :: gradient norm              0.037303415080 Eh/a0 ::
         :: HOMO-LUMO gap              0.000000000000 eV    ::
         :::::::::::::::::::::::::::::::::::::::::::::::::::::

      ----------------------------------------------------------- 
     |                       L-ANC optimizer                     |
      ----------------------------------------------------------- 
          low memory version by Sebastian Ehlert

          ...................................................
          :                      SETUP                      :
          :.................................................:
          :   energy convergence        0.5000000E-05 Eh    :
          :   grad. convergence         0.1000000E-02 Eh/a0 :
          :   optimization log               true           :
          :   writing optlog all                1     steps :
          :   Hessian reset                     8     steps :
          :   maximium step len.        1.0000000     a0    :
          :   LBFGS images                      8           :
          ...................................................
 * calculating model hessian...
Using Lindh-Hessian (1995)
 Shifting diagonal of input Hessian by    1.0000000000000000E-002
 Lowest  eigenvalues of input Hessian
    0.000000    0.000000    0.000000    0.000000    0.000000    0.000000
    0.010329    0.018830    0.023755    0.029596    0.034559    0.037435
    0.052249    0.055498    0.078288    0.095550    0.102849    0.105915
 Highest eigenvalues
    1.613837    1.773066    1.916421    2.018959    2.113804    2.632450


........................................................................
.............................. CYCLE    1 ..............................
........................................................................
                         * ORCA takes the control...
  ------------------------------------------------------------------------

                                 *****************
                                 * O   R   C   A *
                                 *****************

                                            #,                                       
                                            ###                                      
                                            ####                                     
                                            #####                                    
                                            ######                                   
                                           ########,                                 
                                     ,,################,,,,,                         
                               ,,#################################,,                 
                          ,,##########################################,,             
                       ,#########################################, ''#####,          
                    ,#############################################,,   '####,        
                  ,##################################################,,,,####,       
                ,###########''''           ''''###############################       
              ,#####''   ,,,,##########,,,,          '''####'''          '####       
            ,##' ,,,,###########################,,,                        '##       
           ' ,,###''''                  '''############,,,                           
         ,,##''                                '''############,,,,        ,,,,,,###''
      ,#''                                            '''#######################'''  
     '                                                          ''''####''''         
             ,#######,   #######,   ,#######,      ##                                
            ,#'     '#,  ##    ##  ,#'     '#,    #''#        ,####,   ,####,        
            ##       ##  ##   ,#'  ##            #'  '#       #'       #'  '#        
            ##       ##  #######   ##           ,######,      #####,   #    #        
            '#,     ,#'  ##    ##  '#,     ,#' ,#      #,     #,   #   #,  ,#        
             '#######'   ##     ##  '#######'  #'      '#     '####' # '####'        



                #########################################################
                #                        -***-                          #
                #          Department of theory and spectroscopy        #
                #                                                       #
                #                      Frank Neese                      #
                #                                                       #
                #     Directorship, Architecture, Infrastructure        #
                #                    SHARK, DRIVERS                     #
                #        Core code/Algorithms in most modules           #
                #                                                       #
                #        Max Planck Institute fuer Kohlenforschung      #
                #                Kaiser Wilhelm Platz 1                 #
                #                 D-45470 Muelheim/Ruhr                 #
                #                      Germany                          #
                #                                                       #
                #                  All rights reserved                  #
                #                        -***-                          #
                #########################################################


                         Program Version 6.0.1  -  RELEASE   -


 With contributions from (in alphabetic order):
[Max-Planck-Institut fuer Kohlenforschung]                               
  Daniel Aravena         : Magnetic Suceptibility                        
  Michael Atanasov       : Ab Initio Ligand Field Theory (pilot matlab implementation)
  Alexander A. Auer      : GIAO ZORA, VPT2 properties, NMR spectrum      
  Ute Becker             : All parallelization in ORCA, NUMFREQ, NUMCALC 
  Giovanni Bistoni       : ED, misc. LED, open-shell LED, HFLD           
  Martin Brehm           : Molecular dynamics                            
  Dmytro Bykov           : pre 5.0 version of the SCF Hessian            
  Marcos Casanova-Páez   : Triplet and SCS-CIS(D). UHF-(DLPNO)-IP/EA/STEOM-CCSD. UHF-CVS-IP/STEOM-CCSD   
  Vijay G. Chilkuri      : MRCI spin determinant printing, contributions to CSF-ICE 
  Pauline Colinet        : FMM embedding                                 
  Dipayan Datta          : RHF DLPNO-CCSD density                        
  Achintya Kumar Dutta   : EOM-CC, STEOM-CC                              
  Nicolas Foglia         : Exact transition moments, OPA infrastructure, MCD improvements    
  Dmitry Ganyushin       : Spin-Orbit,Spin-Spin,Magnetic field MRCI      
  Miquel Garcia-Rates    : C-PCM and meta-GGA Hessian, CCSD/C-PCM, Gaussian charge scheme 
  Tiago L. C. Gouveia    : GS-ROHF, GS-ROCIS                             
  Yang Guo               : DLPNO-NEVPT2, F12-NEVPT2, CIM, IAO-localization        
  Andreas Hansen         : Spin unrestricted coupled pair/coupled cluster methods 
  Ingolf Harden          : AUTO-CI MPn and infrastructure                
  Benjamin Helmich-Paris : MC-RPA, TRAH-(SCF,CASSCF), AVAS, COSX integrals, SCF dyn. polar. 
  Lee Huntington         : MR-EOM, pCC                                   
  Robert Izsak           : Overlap fitted RIJCOSX, COSX-SCS-MP3, EOM     
  Riya Kayal             : Wick's Theorem for AUTO-CI, AUTO-CI UHF-CCSDT 
  Emily Kempfer          : AUTO-CI, RHF CISDT and CCSDT                  
  Christian Kollmar      : KDIIS, OOCD, Brueckner-CCSD(T), CCSD density, CASPT2, CASPT2-K, improved NEVPT2 
  Axel Koslowski         : Symmetry handling                             
  Simone Kossmann        : meta-GGA functionals, TD-DFT gradient, OOMP2, (MP2 Hessian; deprecated post 5.0) 
  Lucas Lang             : DCDCAS                                        
  Marvin Lechner         : AUTO-CI (C++ implementation), FIC-MRCC        
  Spencer Leger          : CASSCF response                               
  Dagmar Lenk            : GEPOL surface, SMD, ORCA-2-JSON               
  Dimitrios Liakos       : Extrapolation schemes; Compound Job, initial MDCI parallelization 
  Dimitrios Manganas     : Further ROCIS development; embedding schemes. LFT, Crystal Embedding 
  Dimitrios Pantazis     : SARC Basis sets                               
  Anastasios Papadopoulos: AUTO-CI, single reference methods and gradients 
  Taras Petrenko         : pre 6.0 DFT Hessian and TD-DFT gradient, (ASA, deprecated), ECA, 1-Electron XAS/XES, NRVS 
  Peter Pinski           : DLPNO-MP2, DLPNO-MP2 Gradient                 
  Christoph Reimann      : Effective Core Potentials                     
  Marius Retegan         : Local ZFS, SOC                                
  Christoph Riplinger    : Optimizer, TS searches, QM/MM, DLPNO-CCSD(T), (RO)-DLPNO pert. Triples 
  Michael Roemelt        : Original ROCIS implementation                 
  Masaaki Saitow         : Open-shell DLPNO-CCSD energy and density      
  Barbara Sandhoefer     : DKH picture change effects                    
  Kantharuban Sivalingam : CASSCF convergence/infrastructure, NEVPT2 and variants, FIC-MRCI 
  Bernardo de Souza      : ESD, SOC TD-DFT                               
  Georgi L. Stoychev     : AutoAux, RI-MP2 NMR, DLPNO-MP2 response, X2C  
  Van Anh Tran           : RI-MP2 g-tensors                              
  Willem Van den Heuvel  : Paramagnetic NMR                              
  Zikuan Wang            : NOTCH, Electric field optimization            
  Frank Wennmohs         : Technical directorship and infrastructure     
  Hang Xu                : AUTO-CI-Response properties                   
                                                                         
[FACCTs GmbH]                                                            
  Markus Bursch, Miquel Garcia-Rates, Christoph Riplinger, Bernardo de Souza, Georgi L. Stoychev 
                                                                 
  APM, Basis sets (HGBS, AHGBS, def-TZVP (Ac-Lr), def2-XVPD (La-Lu)), CI-OPT, improved COSX, DLPNO-Multilevel,           
  DOCKER, DRACO, updates on ESD, GOAT, IRC, LR-CPCM, MBIS, meta-GGA TD-DFT gradient, ML-optimized integration grids, 
  MM, NACMEs, nearIR, NEB, NEB-TS, NL-DFT gradient (VV10), 2- and 3-layer-ONIOM, interface openCOSMO-RS, QMMM,   
  Crystal-QMMM, SF, symmetry and pop. for TD-DFT, r2SCAN hybrids, SOLVATOR                                   
                                                                         
[Other institutions]                                                     
  V. Asgeirsson          : NEB                                           
  Christoph Bannwarth    : sTDA-DFT, sTD-DFT, PBEh-3c, B97-3c, D3        
  Sebastian Ehlert       : rSCAN, r2SCAN, r2SCAN-3c, D4, dhf basis sets  
  Marvin Friede          : D4 for Fr, Ra, Ac-Lr                          
  Lars Goerigk           : TD-DFT with DH, B97 family of functionals     
  Stefan Grimme          : VdW corrections, initial TS optimization, DFT functionals, gCP, sTDA/sTD-DF 
  Waldemar Hujo          : DFT-NL                                        
  H. Jonsson             : NEB                                           
  Holger Kruse           : gCP                                           
  Marcel Mueller         : wB97X-3c, vDZP basis set                      
  Hagen Neugebauer       : wr2SCAN                                       
  Tobias Risthaus        : range-separated hybrid DFT                    
  Lukas Wittmann         : regularized MP2, r2SCAN double-hybrids, wr2SCAN        
                                                                         
We gratefully acknowledge several colleagues who have allowed us to      
interface, adapt or use parts of their codes:                            
  Ed Valeev, F. Pavosevic, A. Kumar             : LibInt (2-el integral package), F12 methods 
  Garnet Chan, S. Sharma, J. Yang, R. Olivares  : DMRG                   
  Ulf Ekstrom                                   : XCFun DFT Library      
  Mihaly Kallay                                 : mrcc  (arbitrary order and MRCC methods)
  Frank Weinhold                                : gennbo (NPA and NBO analysis)           
  Simon Mueller                                 : openCOSMO-RS                            
  Christopher J. Cramer and Donald G. Truhlar   : smd solvation model                     
  S Lehtola, MJT Oliveira, MAL Marques          : LibXC Library                           
  Liviu Ungur et al                             : ANISO software                          


 Your calculation uses the libint2 library for the computation of 2-el integrals
 For citations please refer to: http://libint.valeyev.net

 Your ORCA version has been built with support for libXC version: 6.2.2
 For citations please refer to: https://libxc.gitlab.io

 This ORCA versions uses:
   CBLAS   interface :  Fast vector & matrix operations
   LAPACKE interface :  Fast linear algebra routines
   SCALAPACK package :  Parallel linear algebra routines
   Shared memory     :  Shared parallel matrices
   BLAS/LAPACK       :  OpenBLAS 0.3.27  USE64BITINT DYNAMIC_ARCH NO_AFFINITY Zen SINGLE_THREADED
        Core in use  :  Zen
   Copyright (c) 2011-2014, The OpenBLAS Project




***************************************
The coordinates will be read from file: xtb_opt.xyz
***************************************


Your calculation utilizes the geometrical counterpoise correction gCP
Please cite in your paper:
H.Kruse, S. Grimme J.Chem.Phys., 136, (2012), 154101 
   

Your calculation utilizes the atom-pairwise dispersion correction
based on EEQ partial charges (D4)


================================================================================

----- Orbital basis set information -----
Your calculation utilizes the basis: def2-mTZVPP
   Stefan Grimme, Andreas Hansen, Sebastian Ehlert, and Jan-Michael Mewes 
   J. Chem. Phys. 154, 064103 (2021). DOI: 10.1063/5.0040021

----- AuxJ basis set information -----
Your calculation utilizes the auxiliary basis: def2/J
   F. Weigend, Phys. Chem. Chem. Phys. 8, 1057 (2006).

================================================================================
                                        WARNINGS
                       Please study these warnings very carefully!
================================================================================

WARNING: Old DensityContainer found on disk!
         Will remove this file - 
         If you want to keep old densities, please start your calculation with a different basename. 



WARNING: SCAN, rSCAN, or r2SCAN functional requested.
  ===> : libXC variant has now been activated.



================================================================================
                                       INPUT FILE
================================================================================
NAME = xtb_opt.inp
|  1> ! r2scan-3c def2/J RI DEFGRID2 scfconv7 ENGRAD tightSCF miniprint
|  2> * xyzfile 0 1 xtb_opt.xyz
|  3> 
|  4>                          ****END OF INPUT****
================================================================================

                     *******************************
                     * Energy+Gradient Calculation *
                     *******************************

---------------------------------
CARTESIAN COORDINATES (ANGSTROEM)
---------------------------------
  C     -0.718024   -1.826732   -0.000013
  C      0.608210   -1.425127   -0.000011
  C      0.901828   -0.055763    0.000000
  C     -0.117605    0.897535   -0.000001
  C     -1.443523    0.474934   -0.000002
  C     -1.742567   -0.888434   -0.000005
  O     -2.405034    1.435052    0.000009
  C      2.258574    0.370481    0.000111
  N      3.367936    0.708227   -0.000112
  H     -0.961376   -2.882462   -0.000010
  H      1.412611   -2.149208   -0.000005
  H      0.108195    1.956406    0.000012
  H     -2.779021   -1.213071    0.000003
  H     -3.277422    1.024917    0.000021

----------------------------
CARTESIAN COORDINATES (A.U.)
----------------------------
  NO LB      ZA    FRAG     MASS         X           Y           Z
   0 C     6.0000    0    12.011   -1.356869   -3.452024   -0.000024
   1 C     6.0000    0    12.011    1.149350   -2.693100   -0.000021
   2 C     6.0000    0    12.011    1.704208   -0.105376    0.000000
   3 C     6.0000    0    12.011   -0.222241    1.696095   -0.000002
   4 C     6.0000    0    12.011   -2.727864    0.897495   -0.000003
   5 C     6.0000    0    12.011   -3.292975   -1.678897   -0.000009
   6 O     8.0000    0    15.999   -4.544855    2.711856    0.000018
   7 C     6.0000    0    12.011    4.268086    0.700108    0.000211
   8 N     7.0000    0    14.007    6.364476    1.338355   -0.000211
   9 H     1.0000    0     1.008   -1.816738   -5.447063   -0.000019
  10 H     1.0000    0     1.008    2.669449   -4.061415   -0.000009
  11 H     1.0000    0     1.008    0.204459    3.697072    0.000022
  12 H     1.0000    0     1.008   -5.251589   -2.292372    0.000005
  13 H     1.0000    0     1.008   -6.193430    1.936812    0.000040

------------------------------------------------------------------------------
                   ___                                                        
                  /   \      - P O W E R E D   B Y -                         
                 /     \                                                     
                 |  |  |   _    _      __       _____    __    __             
                 |  |  |  | |  | |    /  \     |  _  \  |  |  /  |          
                  \  \/   | |  | |   /    \    | | | |  |  | /  /          
                 / \  \   | |__| |  /  /\  \   | |_| |  |  |/  /          
                |  |  |   |  __  | /  /__\  \  |    /   |      \           
                |  |  |   | |  | | |   __   |  |    \   |  |\   \          
                \     /   | |  | | |  |  |  |  | |\  \  |  | \   \       
                 \___/    |_|  |_| |__|  |__|  |_| \__\ |__|  \__/        
                                                                              
                      - O R C A' S   B I G   F R I E N D -                    
                                      &                                       
                       - I N T E G R A L  F E E D E R -                       
                                                                              
 v1 FN, 2020, v2 2021, v3 2022-2024                                           
------------------------------------------------------------------------------


----------------------
SHARK INTEGRAL PACKAGE
----------------------

Number of atoms                             ...     14
Number of basis functions                   ...    206
Number of shells                            ...     98
Maximum angular momentum                    ...      2
Integral batch strategy                     ... SHARK/LIBINT Hybrid
RI-J (if used) integral strategy            ... SPLIT-RIJ (Revised 2003 algorithm where possible)
Printlevel                                  ...      1
Contraction scheme used                     ... SEGMENTED contraction
Prescreening option                         ... SCHWARTZ
   Thresh                                   ... 3.000e-11
   Tcut                                     ... 1.000e-12
   Tpresel                                  ... 1.000e-12 
Coulomb Range Separation                    ... NOT USED
Exchange Range Separation                   ... NOT USED
Multipole approximations                    ... NOT USED
Finite Nucleus Model                        ... NOT USED
CABS basis                                  ... NOT available
Auxiliary Coulomb fitting basis             ... AVAILABLE
   # of basis functions in Aux-J            ...    496
   # of shells in Aux-J                     ...    160
   Maximum angular momentum in Aux-J        ...      4
Auxiliary J/K fitting basis                 ... NOT available
Auxiliary Correlation fitting basis         ... NOT available
Auxiliary 'external' fitting basis          ... NOT available

Checking pre-screening integrals            ... done (  0.0 sec) Dimension = 98
Check shell pair data                       ... done (  0.0 sec)
Shell pair information
Shell pair cut-off parameter TPreSel        ...   1.0e-12
Total number of shell pairs                 ...      4851
Shell pairs after pre-screening             ...      4354
Total number of primitive shell pairs       ...     18168
Primitive shell pairs kept                  ...     11603
          la=0 lb=0:   1317 shell pairs
          la=1 lb=0:   1604 shell pairs
          la=1 lb=1:    501 shell pairs
          la=2 lb=0:    540 shell pairs
          la=2 lb=1:    331 shell pairs
          la=2 lb=2:     61 shell pairs

Calculating one electron integrals          ... done (  0.0 sec)
Calculating RI/J V-Matrix + Cholesky decomp.... done (  0.0 sec)
Calculating Nuclear repulsion               ... done (  0.0 sec) ENN=    377.682528130370 Eh

Diagonalization of the overlap matrix:
Smallest eigenvalue                        ... 2.769e-05
Time for diagonalization                   ...    0.003 sec
Threshold for overlap eigenvalues          ... 1.000e-07
Number of eigenvalues below threshold      ... 0
Time for construction of square roots      ...    0.001 sec
Total time needed                          ...    0.005 sec

-------------------
DFT GRID GENERATION
-------------------

General Integration Accuracy     IntAcc      ... 4.388
Radial Grid Type                 RadialGrid  ... OptM3 with GC (2021)
Angular Grid (max. ang.)         AngularGrid ... 4 (Lebedev-302)
Angular grid pruning method      GridPruning ... 4 (adaptive)
Weight generation scheme         WeightScheme... mBecke (2022)
Basis function cutoff            BFCut       ... 1.0000e-11
Integration weight cutoff        WCut        ... 1.0000e-14
Partially contracted basis set               ... off
Rotationally invariant grid construction     ... off
Angular grids for H and He will be reduced by one unit
Diffuse basis detected: some atoms will have their outermost
                        angular grid increased by 1.

Total number of grid points                  ...    70720
Total number of batches                      ...     1112
Average number of points per batch           ...       63
Average number of grid points per atom       ...     5051
Initializing property integral containers    ... done (  0.0 sec)

SHARK setup successfully completed in   0.5 seconds

Maximum memory used throughout the entire STARTUP-calculation: 33.3 MB
Occupation numbers will be reassigned to an Aufbau configuration
             **** ENERGY FILE WAS UPDATED (xtb_opt.en.tmp) ****
Finished Guess after   0.0 sec
Maximum memory used throughout the entire GUESS-calculation: 14.9 MB
----------------------------------------D-I-I-S--------------------------------------------
Iteration    Energy (Eh)           Delta-E    RMSDP     MaxDP     DIISErr   Damp  Time(sec)
-------------------------------------------------------------------------------------------
               ***  Starting incremental Fock matrix formation  ***
    1    -399.6249289940590188     0.00e+00  9.88e-05  2.42e-03  6.74e-03  0.700   1.1
    2    -399.6249925272871906    -6.35e-05  8.32e-05  2.09e-03  4.10e-03  0.700   0.9
                               ***Turning on AO-DIIS***
                              *** Initializing SOSCF ***
---------------------------------------S-O-S-C-F--------------------------------------
Iteration    Energy (Eh)           Delta-E    RMSDP     MaxDP     MaxGrad    Time(sec)
--------------------------------------------------------------------------------------
    3    -399.6250323158739093    -3.98e-05  1.93e-04  4.57e-03  2.37e-03     0.9
               *** Restarting incremental Fock matrix formation ***
    4    -399.6251169368601950    -8.46e-05  4.32e-05  1.08e-03  5.16e-04     1.1
    5    -399.6251050353190521     1.19e-05  2.75e-05  8.21e-04  1.69e-03     0.9
    6    -399.6251184493829669    -1.34e-05  9.95e-06  1.99e-04  5.29e-05     0.8
    7    -399.6251182509295177     1.98e-07  6.79e-06  1.39e-04  1.35e-04     0.8
    8    -399.6251185029575481    -2.52e-07  1.75e-06  3.77e-05  1.06e-05     0.8
                  *** Gradient check signals convergence ***

               *****************************************************
               *                     SUCCESS                       *
               *           SCF CONVERGED AFTER   8 CYCLES          *
               *****************************************************

             **** ENERGY FILE WAS UPDATED (xtb_opt.en.tmp) ****

----------------
TOTAL SCF ENERGY
----------------

Total Energy       :       -399.62511850295755 Eh          -10874.35232 eV

Components:
Nuclear Repulsion  :        377.68252813036986 Eh           10277.26408 eV
Electronic Energy  :       -777.30764663332752 Eh          -21151.61639 eV
One Electron Energy:      -1288.56100874593290 Eh          -35063.52764 eV
Two Electron Energy:        511.25336211260543 Eh           13911.91125 eV

Virial components:
Potential Energy   :       -797.61618854821177 Eh          -21704.23991 eV
Kinetic Energy     :        397.99107004525428 Eh           10829.88760 eV
Virial Ratio       :          2.00410574151203

DFT components:
N(Alpha)           :       31.000018976919 electrons
N(Beta)            :       31.000018976919 electrons
N(Total)           :       62.000037953839 electrons
E(X)               :      -53.111926657163 Eh       
E(C)               :       -2.022688671782 Eh       
E(XC)              :      -55.134615328945 Eh       

---------------
SCF CONVERGENCE
---------------

  Last Energy change         ...    2.5203e-07  Tolerance :   1.0000e-07
  Last MAX-Density change    ...    3.7748e-05  Tolerance :   1.0000e-07
  Last RMS-Density change    ...    1.7523e-06  Tolerance :   5.0000e-09
  Last DIIS Error            ...    2.3656e-03  Tolerance :   1.0000e-07
  Last Orbital Gradient      ...    1.0648e-05  Tolerance :   1.0000e-04
  Last Orbital Rotation      ...    4.1614e-05  Tolerance :   1.0000e-04


----------------
ORBITAL ENERGIES
----------------

  NO   OCC          E(Eh)            E(eV) 
   0   2.0000     -19.009739      -517.2813 
   1   2.0000     -14.160375      -385.3234 
   2   2.0000     -10.127543      -275.5844 
   3   2.0000     -10.095007      -274.6991 
   4   2.0000     -10.073677      -274.1187 
   5   2.0000     -10.068121      -273.9675 
   6   2.0000     -10.067111      -273.9400 
   7   2.0000     -10.066055      -273.9113 
   8   2.0000     -10.064067      -273.8572 
   9   2.0000      -1.055732       -28.7279 
  10   2.0000      -0.879705       -23.9380 
  11   2.0000      -0.850549       -23.1446 
  12   2.0000      -0.761745       -20.7281 
  13   2.0000      -0.742102       -20.1936 
  14   2.0000      -0.643698       -17.5159 
  15   2.0000      -0.606550       -16.5051 
  16   2.0000      -0.570794       -15.5321 
  17   2.0000      -0.496839       -13.5197 
  18   2.0000      -0.478963       -13.0333 
  19   2.0000      -0.465293       -12.6613 
  20   2.0000      -0.427672       -11.6375 
  21   2.0000      -0.412271       -11.2185 
  22   2.0000      -0.390944       -10.6381 
  23   2.0000      -0.371331       -10.1044 
  24   2.0000      -0.364596        -9.9212 
  25   2.0000      -0.345001        -9.3880 
  26   2.0000      -0.328519        -8.9395 
  27   2.0000      -0.317948        -8.6518 
  28   2.0000      -0.311587        -8.4787 
  29   2.0000      -0.259876        -7.0716 
  30   2.0000      -0.234400        -6.3784 
  31   0.0000      -0.085583        -2.3288 
  32   0.0000      -0.048884        -1.3302 
  33   0.0000       0.002413         0.0657 
  34   0.0000       0.039650         1.0789 
  35   0.0000       0.045605         1.2410 
  36   0.0000       0.050408         1.3717 
  37   0.0000       0.088912         2.4194 
  38   0.0000       0.113415         3.0862 
  39   0.0000       0.114603         3.1185 
  40   0.0000       0.116673         3.1748 
  41   0.0000       0.130503         3.5512 
*Only the first 10 virtual orbitals were printed.
Total SCF time: 0 days 0 hours 0 min 7 sec 
Finished LeanSCF after   7.5 sec

Maximum memory used throughout the entire LEANSCF-calculation: 22.3 MB


-------------------------------------------------------------------------------
                          DFT DISPERSION CORRECTION                            
                                                                               
                                DFTD4 V3.4.0                                   
-------------------------------------------------------------------------------
-------------------------   ----------------
Dispersion correction           -0.004688294
-------------------------   ----------------

------------------   -----------------
gCP correction             0.003827483
------------------   -----------------

-------------------------   --------------------
FINAL SINGLE POINT ENERGY      -399.625979313405
-------------------------   --------------------

------------------------------------------------------------------------------
                         ORCA SCF GRADIENT CALCULATION
------------------------------------------------------------------------------

Nuc. rep. gradient        (SHARK) ... done (  0.0 sec)
HCore & Overlap gradient  (SHARK) ... done (  0.1 sec)
Split-RIJ-J gradient      (SHARK) ... done (  0.9 sec)
XC gradient                       ... done (  2.8 sec)
Dispersion correction             ... done (  0.0 sec)

-------------------
DISPERSION GRADIENT
-------------------

   1   C   :   -0.000023590   -0.000079381   -0.000000001
   2   C   :    0.000027451   -0.000059127    0.000000000
   3   C   :    0.000049623    0.000004648    0.000000000
   4   C   :   -0.000004384    0.000047884    0.000000001
   5   C   :   -0.000059720    0.000029979   -0.000000000
   6   C   :   -0.000064852   -0.000027716   -0.000000001
   7   O   :   -0.000081826    0.000047686    0.000000000
   8   C   :    0.000098457    0.000026927    0.000000004
   9   N   :    0.000102519    0.000031300   -0.000000003
  10   H   :   -0.000010014   -0.000041920   -0.000000000
  11   H   :    0.000021150   -0.000034390   -0.000000000
  12   H   :    0.000000220    0.000041676    0.000000000
  13   H   :   -0.000035249   -0.000014319   -0.000000000
  14   H   :   -0.000019785    0.000026753    0.000000000

Difference to translation invariance:
           :   -0.0000000000    0.0000000000   -0.0000000000

Difference to rotation invariance:
           :   -0.0000000000    0.0000000000    0.0000000000

Norm of the Dispersion gradient    ...    0.0002529825
RMS gradient                       ...    0.0000390360
MAX gradient                       ...    0.0001025191
gCP correction                   ... done

------------------
CARTESIAN GRADIENT
------------------

   1   C   :    0.000060600   -0.000229436    0.000001026
   2   C   :   -0.000922288    0.001271376   -0.000000849
   3   C   :    0.001285296    0.000518424   -0.000013629
   4   C   :    0.001346277   -0.001845245   -0.000000922
   5   C   :   -0.001221512    0.002873306    0.000001493
   6   C   :    0.001318273   -0.000185702    0.000000008
   7   O   :    0.000949774   -0.003030622    0.000000195
   8   C   :   -0.006247412   -0.001882705    0.000025964
   9   N   :    0.003854102    0.001067811   -0.000012631
  10   H   :    0.000181508    0.000821023    0.000000469
  11   H   :   -0.000503595    0.000269240   -0.000000502
  12   H   :   -0.000354930   -0.000510642   -0.000000682
  13   H   :    0.000626180    0.000427450   -0.000000065
  14   H   :   -0.000372273    0.000435723    0.000000125

Difference to translation invariance:
           :   -0.0000000000    0.0000000000    0.0000000000

Difference to rotation invariance:
           :   -0.0000001911    0.0000005884    0.0004922968

Norm of the Cartesian gradient     ...    0.0096000888
RMS gradient                       ...    0.0014813259
MAX gradient                       ...    0.0062474116

-------
TIMINGS
-------

Total SCF gradient time     ....        3.855 sec

Densities                   ....       0.000 sec  (  0.0%)
One electron gradient       ....       0.126 sec  (  3.3%)
RI-J Coulomb gradient       ....       0.901 sec  ( 23.4%)
XC gradient                 ....       2.808 sec  ( 72.8%)

Maximum memory used throughout the entire SCFGRAD-calculation: 35.1 MB

------------------------------------------------------------------------------
                              ORCA PROPERTY CALCULATIONS
------------------------------------------------------------------------------

GBWName                                 ... xtb_opt.gbw
Number of atoms                         ...     14
Number of basis functions               ...    206
Max core memory                         ...   1024 MB

Electric properties:
Dipole moment                           ... YES
Quadrupole moment                       ...  NO
Static polarizability (Dipole/Dipole)   ...  NO
Static polarizability (Dipole/Quad.)    ...  NO
Static polarizability (Quad./Quad.)     ...  NO
Static polarizability (Velocity)        ...  NO

Atomic electric properties:
Dipole moment                           ...  NO
Quadrupole moment                       ...  NO
Static polarizability                   ...  NO

Choice of electric origin               ... Center of mass
Position of electric origin             ...     0.001832     0.001995    -0.000007

General magnetic properties:
Magnetizability                         ...  NO

EPR properties:
g-Tensor (aka g-matrix)                 ...  NO
Zero-Field splitting spin-orbit         ...  NO
Zero-field splitting spin-spin          ...  NO
Hyperfine couplings                     ...  NO (   0 nuclei)
Quadrupole couplings                    ...  NO (   0 nuclei)
Contact density                         ...  NO (   0 nuclei)

NMR properties:
Chemical shifts                         ...  NO (   0 nuclei)
Spin-rotation constants                 ...  NO (   0 nuclei)
Spin-spin couplings                     ...  NO (   0 nuclei,    0 pairs)

Choice of magnetic origin               ... GIAO
Position of magnetic origin             ...     0.000000     0.000000     0.000000

Properties with geometric perturbations:
SCF Hessian                             ...  NO
IR spectrum                             ...  NO
VCD spectrum                            ...  NO
X-ray spectroscopy properties:
SCF XES/XAS/RIXS spectra                ...  NO


-------------
DIPOLE MOMENT
-------------

Method             : SCF
Type of density    : Electron Density
Multiplicity       :   1
Irrep              :   0
Energy             :  -399.6251185029575481 Eh
Relativity type    : 
Basis              : AO
                                X                 Y                 Z
Electronic contribution:      3.010129323       2.176989002       0.000066253
Nuclear contribution   :     -5.178757858      -3.041512153       0.000036095
                        -----------------------------------------
Total Dipole Moment    :     -2.168628535      -0.864523151       0.000102347
[...]

             **** ENERGY FILE WAS UPDATED (xtb_opt.en.tmp) ****

----------------
TOTAL SCF ENERGY
----------------

Total Energy       :       -399.62516436565846 Eh          -10874.35356 eV

Components:
Nuclear Repulsion  :        377.35730141368498 Eh           10268.41421 eV
Electronic Energy  :       -776.98246577934344 Eh          -21142.76777 eV
One Electron Energy:      -1287.91915405483860 Eh          -35046.06189 eV
Two Electron Energy:        510.93668827549516 Eh           13903.29412 eV

Virial components:
Potential Energy   :       -797.58876637072217 Eh          -21703.49372 eV
Kinetic Energy     :        397.96360200506365 Eh           10829.14015 eV
Virial Ratio       :          2.00417516162841

DFT components:
N(Alpha)           :       31.000018502239 electrons
N(Beta)            :       31.000018502239 electrons
N(Total)           :       62.000037004478 electrons
E(X)               :      -53.105256453228 Eh       
E(C)               :       -2.022242782719 Eh       
E(XC)              :      -55.127499235948 Eh       

---------------
SCF CONVERGENCE
---------------

  Last Energy change         ...   -6.4980e-08  Tolerance :   1.0000e-07
  Last MAX-Density change    ...    4.9903e-05  Tolerance :   1.0000e-07
  Last RMS-Density change    ...    2.1462e-06  Tolerance :   5.0000e-09
  Last DIIS Error            ...    2.0588e-04  Tolerance :   1.0000e-07
  Last Orbital Gradient      ...    1.0724e-04  Tolerance :   1.0000e-04
  Last Orbital Rotation      ...    8.1597e-05  Tolerance :   1.0000e-04


----------------
ORBITAL ENERGIES
----------------

  NO   OCC          E(Eh)            E(eV) 
   0   2.0000     -19.009263      -517.2683 
   1   2.0000     -14.160413      -385.3244 
   2   2.0000     -10.127867      -275.5933 
   3   2.0000     -10.095712      -274.7183 
   4   2.0000     -10.073486      -274.1135 
   5   2.0000     -10.068807      -273.9862 
   6   2.0000     -10.067932      -273.9624 
   7   2.0000     -10.066490      -273.9231 
   8   2.0000     -10.064604      -273.8718 
   9   2.0000      -1.054291       -28.6887 
  10   2.0000      -0.880061       -23.9477 
  11   2.0000      -0.850401       -23.1406 
  12   2.0000      -0.761388       -20.7184 
  13   2.0000      -0.741811       -20.1857 
  14   2.0000      -0.643283       -17.5046 
  15   2.0000      -0.605970       -16.4893 
  16   2.0000      -0.569631       -15.5005 
  17   2.0000      -0.496477       -13.5098 
  18   2.0000      -0.478986       -13.0339 
  19   2.0000      -0.464262       -12.6332 
  20   2.0000      -0.427528       -11.6336 
  21   2.0000      -0.411533       -11.1984 
  22   2.0000      -0.390946       -10.6382 
  23   2.0000      -0.371595       -10.1116 
  24   2.0000      -0.364074        -9.9070 
  25   2.0000      -0.345497        -9.4014 
  26   2.0000      -0.328670        -8.9436 
  27   2.0000      -0.317988        -8.6529 
  28   2.0000      -0.312168        -8.4945 
  29   2.0000      -0.260002        -7.0750 
  30   2.0000      -0.234565        -6.3828 
  31   0.0000      -0.085687        -2.3317 
  32   0.0000      -0.049305        -1.3417 
  33   0.0000       0.002807         0.0764 
  34   0.0000       0.039789         1.0827 
  35   0.0000       0.045476         1.2375 
  36   0.0000       0.049826         1.3558 
  37   0.0000       0.088670         2.4128 
  38   0.0000       0.113171         3.0795 
  39   0.0000       0.114500         3.1157 
  40   0.0000       0.116016         3.1569 
  41   0.0000       0.130256         3.5444 
*Only the first 10 virtual orbitals were printed.
Total SCF time: 0 days 0 hours 0 min 4 sec 
Finished LeanSCF after   4.7 sec

Maximum memory used throughout the entire LEANSCF-calculation: 22.3 MB


-------------------------------------------------------------------------------
                          DFT DISPERSION CORRECTION                            
                                                                               
                                DFTD4 V3.4.0                                   
-------------------------------------------------------------------------------
-------------------------   ----------------
Dispersion correction           -0.004685046
-------------------------   ----------------

------------------   -----------------
gCP correction             0.003817488
------------------   -----------------

-------------------------   --------------------
FINAL SINGLE POINT ENERGY      -399.626031923737
-------------------------   --------------------

------------------------------------------------------------------------------
                         ORCA SCF GRADIENT CALCULATION
------------------------------------------------------------------------------

Nuc. rep. gradient        (SHARK) ... done (  0.0 sec)
HCore & Overlap gradient  (SHARK) ... done (  0.1 sec)
Split-RIJ-J gradient      (SHARK) ... done (  0.9 sec)
XC gradient                       ... done (  2.8 sec)
Dispersion correction             ... done (  0.0 sec)

-------------------
DISPERSION GRADIENT
-------------------

   1   C   :   -0.000023604   -0.000079464   -0.000000004
   2   C   :    0.000027417   -0.000059296    0.000000019
   3   C   :    0.000049657    0.000004612    0.000000019
   4   C   :   -0.000004473    0.000047914    0.000000023
   5   C   :   -0.000059767    0.000029955   -0.000000001
   6   C   :   -0.000064891   -0.000027810   -0.000000012
   7   O   :   -0.000081652    0.000047847   -0.000000010
   8   C   :    0.000098498    0.000027025    0.000000028
   9   N   :    0.000102424    0.000031471   -0.000000065
  10   H   :   -0.000010005   -0.000041863   -0.000000006
  11   H   :    0.000021172   -0.000034451    0.000000008
  12   H   :    0.000000189    0.000041658    0.000000012
  13   H   :   -0.000035265   -0.000014418   -0.000000010
  14   H   :   -0.000019700    0.000026821   -0.000000002

Difference to translation invariance:
           :   -0.0000000000   -0.0000000000   -0.0000000000

Difference to rotation invariance:
           :   -0.0000000000    0.0000000000    0.0000000000

Norm of the Dispersion gradient    ...    0.0002530768
RMS gradient                       ...    0.0000390506
MAX gradient                       ...    0.0001024239
gCP correction                   ... done

------------------
CARTESIAN GRADIENT
------------------

   1   C   :    0.000004413   -0.000023178    0.000006390
   2   C   :   -0.000001750    0.000019753   -0.000004437
   3   C   :    0.000047768   -0.000001142   -0.000113519
   4   C   :    0.000012924   -0.000035341   -0.000004957
   5   C   :   -0.000025908    0.000064452    0.000013274
   6   C   :    0.000023154   -0.000006610   -0.000002231
   7   O   :    0.000005267   -0.000061639   -0.000000698
   8   C   :   -0.000173423    0.000037077    0.000226134
   9   N   :    0.000118186   -0.000011699   -0.000116853
  10   H   :    0.000010900    0.000004731    0.000001460
  11   H   :    0.000006810    0.000000137   -0.000000984
  12   H   :   -0.000011079    0.000014111   -0.000002262
  13   H   :   -0.000002458   -0.000002706   -0.000000960
  14   H   :   -0.000014805    0.000002054   -0.000000356

Difference to translation invariance:
           :   -0.0000000000    0.0000000000   -0.0000000000

Difference to rotation invariance:
           :   -0.0000019470    0.0000070088    0.0004215652

Norm of the Cartesian gradient     ...    0.0003716664
RMS gradient                       ...    0.0000573494
MAX gradient                       ...    0.0002261336

-------
TIMINGS
-------

Total SCF gradient time     ....        3.876 sec

Densities                   ....       0.000 sec  (  0.0%)
One electron gradient       ....       0.125 sec  (  3.2%)
RI-J Coulomb gradient       ....       0.910 sec  ( 23.5%)
XC gradient                 ....       2.822 sec  ( 72.8%)

Maximum memory used throughout the entire SCFGRAD-calculation: 35.1 MB

------------------------------------------------------------------------------
                              ORCA PROPERTY CALCULATIONS
------------------------------------------------------------------------------

GBWName                                 ... xtb_opt.gbw
Number of atoms                         ...     14
Number of basis functions               ...    206
Max core memory                         ...   1024 MB

Electric properties:
Dipole moment                           ... YES
Quadrupole moment                       ...  NO
Static polarizability (Dipole/Dipole)   ...  NO
Static polarizability (Dipole/Quad.)    ...  NO
Static polarizability (Quad./Quad.)     ...  NO
Static polarizability (Velocity)        ...  NO

Atomic electric properties:
Dipole moment                           ...  NO
Quadrupole moment                       ...  NO
Static polarizability                   ...  NO

Choice of electric origin               ... Center of mass
Position of electric origin             ...     0.001958     0.003313    -0.000076

General magnetic properties:
Magnetizability                         ...  NO

EPR properties:
g-Tensor (aka g-matrix)                 ...  NO
Zero-Field splitting spin-orbit         ...  NO
Zero-field splitting spin-spin          ...  NO
Hyperfine couplings                     ...  NO (   0 nuclei)
Quadrupole couplings                    ...  NO (   0 nuclei)
Contact density                         ...  NO (   0 nuclei)

NMR properties:
Chemical shifts                         ...  NO (   0 nuclei)
Spin-rotation constants                 ...  NO (   0 nuclei)
Spin-spin couplings                     ...  NO (   0 nuclei,    0 pairs)

Choice of magnetic origin               ... GIAO
Position of magnetic origin             ...     0.000000     0.000000     0.000000

Properties with geometric perturbations:
SCF Hessian                             ...  NO
IR spectrum                             ...  NO
VCD spectrum                            ...  NO
X-ray spectroscopy properties:
SCF XES/XAS/RIXS spectra                ...  NO


-------------
DIPOLE MOMENT
-------------

Method             : SCF
Type of density    : Electron Density
Multiplicity       :   1
Irrep              :   0
Energy             :  -399.6251643656584633 Eh
Relativity type    : 
Basis              : AO
                                X                 Y                 Z
Electronic contribution:      3.019448675       2.175812733       0.000973152
Nuclear contribution   :     -5.178954294      -3.048778977       0.000250540
                        -----------------------------------------
Total Dipole Moment    :     -2.159505619      -0.872966243       0.001223691
                        -----------------------------------------
Magnitude (a.u.)       :      2.329278016
Magnitude (Debye)      :      5.920554203



--------------------
Rotational spectrum 
--------------------
 
Rotational constants in cm-1:             0.113859             0.040476             0.029861 
Rotational constants in MHz :          3413.407839          1213.433751           895.199253 

Dipole components along the rotational axes: 
x,y,z [a.u.] :    -2.166992     0.854213     0.000901 
x,y,z [Debye]:    -5.508057     2.171236     0.002290 

 

Dipole moment calculation done in   0.0 sec 

Maximum memory used throughout the entire PROP-calculation: 13.5 MB

--------------------------------
SUGGESTED CITATIONS FOR THIS RUN
--------------------------------

Below you find a list of papers that are relevant to this ORCA run
We neither can nor want to force you to cite these papers, but we appreciate if you do
You receive ORCA, which is the product of decades of hard work by many enthusiastic individuals, for free
The only thing we kindly ask in return is that you cite our papers,
We deeply appreciate it, if you show your appreciation for ORCA by not just citing the generic ORCA reference.

Please note that relegating all ORCA citations to the supporting information does *not* help us.
SI sections are not indexed - citations you put there will not count into any citation statistics
But we need these citations in order to attract the funding resources that allow us to do what we are doing

Therefore, if you are a happy ORCA user, please consider citing a few of the papers listed below in the main body of your paper

In addition to the list printed below, the program has created the file xtb_opt.bibtex that contains the list in bibtex format
You can import this file easily into all common literature databanks and citation aid programs


List of essential papers. We consider these as the minimum necessary citations

  1. Neese,F.
     Software update: the ORCA program system, version 5.0
     WIRES Comput. Molec. Sci., 2022 12(1)e1606
     doi.org/10.1002/wcms.1606
  2. Grimme,S.; Hansen,A.; Ehlert,S.; Mewes,J.
     r2SCAN-3c: A 'Swiss army knife' composite electronic-structure method
     J. Chem. Phys., 2021 154 064103
     doi.org/10.1063/5.0040021

List of papers to cite with high priority. The work reported in these papers was absolutely
necessary for this run to complete.
Our perspective: the developers of density functionals and basis sets usually get cited in chemistry papers
Good! But without the algorithms to do something with them, the functionals or basis sets would not do anything.
Hence, in our opinion, the algorithm design and method developments papers are equally worthy of getting cited

  1. Neese,F.
     An improvement of the resolution of the identity approximation for the formation of the Coulomb matrix
     J. Comp. Chem., 2003 24(14)1740-1747
     doi.org/10.1002/jcc.10318
  2. Neese,F.
     The SHARK Integral Generation and Digestion System
     J. Comp. Chem., 2022  1-16
     doi.org/10.1002/jcc.26942
  3. Lehtola,S.; Steigemann,C.; Oliveira,M.; Marques,M.
     Recent developments in Libxc - A comprehensive library of functionals for density functional theory
     Software X, 2018 7 
     doi.org/10.1016/j.softx.2017.11.002
  4. Caldeweyher,E.; Bannwarth,C.; Grimme,S.
     Extension of the D3 dispersion coefficient model
     J. Chem. Phys., 2017 147 034112
     doi.org/10.1063/1.4993215
  5. Caldeweyher,E.; Ehlert,S.; Hansen,A.; Neugebauer,H.; Spicher,S.; Bannwarth,C.; Grimme,S.
     A generally applicable atomic-charge dependent London dispersion correction
     J. Chem. Phys., 2019 150 154122
     doi.org/10.1063/1.5090222
  6. Caldeweyher,E.; Mewes,J.; Ehlert,S.; Grimme,S.
     Extension and evaluation of the D4 London-dispersion model for periodic systems
     Phys. Chem. Chem. Phys., 2020 22(16)8499-8512
     doi.org/10.1039/D0CP00502A
  7. Wittmann,L.; Gordiy,I.; Friede,M.; Helmich-Paris,B.; Grimme,S.; Hansen,A.; Bursch,M.
     Extension of the D3 and D4 London Dispersion Corrections to the full Actinides Series
     Phys. Chem. Chem. Phys., 2024 26(32)21379-21394
     doi.org/https://doi.org/10.1039/D4CP01514B 

List of suggested additional citations. These are papers that are important in the 'surrounding' of 
of this run, or papers that preceded the highly important papers. If you like your results we are grateful for a citation.

  1. Neese,F.
     The ORCA program system
     WIRES Comput. Molec. Sci., 2012 2(1)73-78
     doi.org/10.1002/wcms.81
  2. Neese,F.
     Software update: the ORCA program system, version 4.0
     WIRES Comput. Molec. Sci., 2018 8(1)1-6
     doi.org/10.1002/wcms.1327
  3. Neese,F.; Wennmohs,F.; Becker,U.; Riplinger,C.
     The ORCA quantum chemistry program package
     J. Chem. Phys., 2020 152 Art. No. L224108
     doi.org/10.1063/5.0004608

List of optional additional citations

  1. Neese,F.
     Approximate second-order SCF convergence for spin unrestricted wavefunctions
     Chem. Phys. Lett., 2000 325(1-3)93-98
     doi.org/10.1016/s0009-2614(00)00662-x

Timings for individual modules:

Sum of individual times          ...        9.222 sec (=   0.154 min)
Startup calculation              ...        0.471 sec (=   0.008 min)   5.1 %
SCF iterations                   ...        4.800 sec (=   0.080 min)  52.0 %
Property calculations            ...        0.037 sec (=   0.001 min)   0.4 %
SCF Gradient evaluation          ...        3.915 sec (=   0.065 min)  42.4 %
                             ****ORCA TERMINATED NORMALLY****
TOTAL RUN TIME: 0 days 0 hours 0 minutes 9 seconds 287 msec
  ------------------------------------------------------------------------
          * successful ORCA run, taking over control again...

         :::::::::::::::::::::::::::::::::::::::::::::::::::::
         ::                  ORCA SUMMARY                   ::
         :::::::::::::::::::::::::::::::::::::::::::::::::::::
         :: total energy            -399.626031923737 Eh    ::
         :: gradient norm              0.000371666405 Eh/a0 ::
         :: HOMO-LUMO gap              0.000000000000 eV    ::
         :::::::::::::::::::::::::::::::::::::::::::::::::::::

           -------------------------------------------------
          |                Property Printout                |
           -------------------------------------------------
           -------------------------------------------------
          |                Geometry Summary                 |
           -------------------------------------------------

      molecular mass/u    :      119.1209632
   center of mass at/Å    :        0.0010229       0.0017633      -0.0000404
  moments of inertia/u·Å² :        0.1480548E+03   0.4164817E+03   0.5645364E+03
rotational constants/cm⁻¹ :        0.1138607E+00   0.4047629E-01   0.2986102E-01

 * 13 selected distances

     #   Z          #   Z                                           value/Å
     1   6          2   6                                         1.3871477
     2   6          3   6                                         1.4019517 (max)
     3   6          4   6                                         1.3971542
     4   6          5   6                                         1.3918697
     1   6          6   6                                         1.3910332
     5   6          6   6                                         1.3962220
     5   6          7   8                                         1.3625421
     8   6          9   7                                         1.1579042
     1   6         10   1                                         1.0846722
     2   6         11   1                                         1.0829892
     4   6         12   1                                         1.0833780
     6   6         13   1                                         1.0869741
     7   8         14   1                                         0.9640101 (min)

 * 5 distinct bonds (by element types)

   Z      Z             #   av. dist./Å        max./Å        min./Å
   1 H    6 C           4     1.0845034     1.0869741     1.0829892
   6 C    6 C           6     1.3942298     1.4019517     1.3871477
   6 C    7 N           1     1.1579042     1.1579042     1.1579042
   1 H    8 O           1     0.9640101     0.9640101     0.9640101
   6 C    8 O           1     1.3625421     1.3625421     1.3625421


optimized geometry written to: xtbopt.coord


           -------------------------------------------------
          | TOTAL ENERGY             -399.626031923737 Eh   |
          | GRADIENT NORM               0.000371666405 Eh/α |
           -------------------------------------------------

------------------------------------------------------------------------
 * finished run on 2025/04/09 at 04:45:37.183     
------------------------------------------------------------------------
 total:
 * wall-time:     0 d,  0 h,  1 min, 20.183 sec
 *  cpu-time:     0 d,  0 h,  0 min,  0.361 sec
 * ratio c/w:     0.004 speedup
 SCF:
 * wall-time:     0 d,  0 h,  0 min,  7.935 sec
 *  cpu-time:     0 d,  0 h,  0 min,  0.035 sec
 * ratio c/w:     0.004 speedup
 ANC optimizer:
 * wall-time:     0 d,  0 h,  1 min, 12.212 sec
 *  cpu-time:     0 d,  0 h,  0 min,  0.004 sec
 * ratio c/w:     0.000 speedup

