
                                 *****************
                                 * O   R   C   A *
                                 *****************

                                            #,                                       
                                            ###                                      
                                            ####                                     
                                            #####                                    
                                            ######                                   
                                           ########,                                 
                                     ,,################,,,,,                         
                               ,,#################################,,                 
                          ,,##########################################,,             
                       ,#########################################, ''#####,          
                    ,#############################################,,   '####,        
                  ,##################################################,,,,####,       
                ,###########''''           ''''###############################       
              ,#####''   ,,,,##########,,,,          '''####'''          '####       
            ,##' ,,,,###########################,,,                        '##       
           ' ,,###''''                  '''############,,,                           
         ,,##''                                '''############,,,,        ,,,,,,###''
      ,#''                                            '''#######################'''  
     '                                                          ''''####''''         
             ,#######,   #######,   ,#######,      ##                                
            ,#'     '#,  ##    ##  ,#'     '#,    #''#        ,####,   ,####,        
            ##       ##  ##   ,#'  ##            #'  '#       #'       #'  '#        
            ##       ##  #######   ##           ,######,      #####,   #    #        
            '#,     ,#'  ##    ##  '#,     ,#' ,#      #,     #,   #   #,  ,#        
             '#######'   ##     ##  '#######'  #'      '#     '####' # '####'        



                #########################################################
                #                        -***-                          #
                #          Department of theory and spectroscopy        #
                #                                                       #
                #                      Frank Neese                      #
                #                                                       #
                #     Directorship, Architecture, Infrastructure        #
                #                    SHARK, DRIVERS                     #
                #        Core code/Algorithms in most modules           #
                #                                                       #
                #        Max Planck Institute fuer Kohlenforschung      #
                #                Kaiser Wilhelm Platz 1                 #
                #                 D-45470 Muelheim/Ruhr                 #
                #                      Germany                          #
                #                                                       #
                #                  All rights reserved                  #
                #                        -***-                          #
                #########################################################


                         Program Version 6.0.1  -  RELEASE   -


 With contributions from (in alphabetic order):
[Max-Planck-Institut fuer Kohlenforschung]                               
  Daniel Aravena         : Magnetic Suceptibility                        
  Michael Atanasov       : Ab Initio Ligand Field Theory (pilot matlab implementation)
  Alexander A. Auer      : GIAO ZORA, VPT2 properties, NMR spectrum      
  Ute Becker             : All parallelization in ORCA, NUMFREQ, NUMCALC 
  Giovanni Bistoni       : ED, misc. LED, open-shell LED, HFLD           
  Martin Brehm           : Molecular dynamics                            
  Dmytro Bykov           : pre 5.0 version of the SCF Hessian            
  Marcos Casanova-Páez   : Triplet and SCS-CIS(D). UHF-(DLPNO)-IP/EA/STEOM-CCSD. UHF-CVS-IP/STEOM-CCSD   
  Vijay G. Chilkuri      : MRCI spin determinant printing, contributions to CSF-ICE 
  Pauline Colinet        : FMM embedding                                 
  Dipayan Datta          : RHF DLPNO-CCSD density                        
  Achintya Kumar Dutta   : EOM-CC, STEOM-CC                              
  Nicolas Foglia         : Exact transition moments, OPA infrastructure, MCD improvements    
  Dmitry Ganyushin       : Spin-Orbit,Spin-Spin,Magnetic field MRCI      
  Miquel Garcia-Rates    : C-PCM and meta-GGA Hessian, CCSD/C-PCM, Gaussian charge scheme 
  Tiago L. C. Gouveia    : GS-ROHF, GS-ROCIS                             
  Yang Guo               : DLPNO-NEVPT2, F12-NEVPT2, CIM, IAO-localization        
  Andreas Hansen         : Spin unrestricted coupled pair/coupled cluster methods 
  Ingolf Harden          : AUTO-CI MPn and infrastructure                
  Benjamin Helmich-Paris : MC-RPA, TRAH-(SCF,CASSCF), AVAS, COSX integrals, SCF dyn. polar. 
  Lee Huntington         : MR-EOM, pCC                                   
  Robert Izsak           : Overlap fitted RIJCOSX, COSX-SCS-MP3, EOM     
  Riya Kayal             : Wick's Theorem for AUTO-CI, AUTO-CI UHF-CCSDT 
  Emily Kempfer          : AUTO-CI, RHF CISDT and CCSDT                  
  Christian Kollmar      : KDIIS, OOCD, Brueckner-CCSD(T), CCSD density, CASPT2, CASPT2-K, improved NEVPT2 
  Axel Koslowski         : Symmetry handling                             
  Simone Kossmann        : meta-GGA functionals, TD-DFT gradient, OOMP2, (MP2 Hessian; deprecated post 5.0) 
  Lucas Lang             : DCDCAS                                        
  Marvin Lechner         : AUTO-CI (C++ implementation), FIC-MRCC        
  Spencer Leger          : CASSCF response                               
  Dagmar Lenk            : GEPOL surface, SMD, ORCA-2-JSON               
  Dimitrios Liakos       : Extrapolation schemes; Compound Job, initial MDCI parallelization 
  Dimitrios Manganas     : Further ROCIS development; embedding schemes. LFT, Crystal Embedding 
  Dimitrios Pantazis     : SARC Basis sets                               
  Anastasios Papadopoulos: AUTO-CI, single reference methods and gradients 
  Taras Petrenko         : pre 6.0 DFT Hessian and TD-DFT gradient, (ASA, deprecated), ECA, 1-Electron XAS/XES, NRVS 
  Peter Pinski           : DLPNO-MP2, DLPNO-MP2 Gradient                 
  Christoph Reimann      : Effective Core Potentials                     
  Marius Retegan         : Local ZFS, SOC                                
  Christoph Riplinger    : Optimizer, TS searches, QM/MM, DLPNO-CCSD(T), (RO)-DLPNO pert. Triples 
  Michael Roemelt        : Original ROCIS implementation                 
  Masaaki Saitow         : Open-shell DLPNO-CCSD energy and density      
  Barbara Sandhoefer     : DKH picture change effects                    
  Kantharuban Sivalingam : CASSCF convergence/infrastructure, NEVPT2 and variants, FIC-MRCI 
  Bernardo de Souza      : ESD, SOC TD-DFT                               
  Georgi L. Stoychev     : AutoAux, RI-MP2 NMR, DLPNO-MP2 response, X2C  
  Van Anh Tran           : RI-MP2 g-tensors                              
  Willem Van den Heuvel  : Paramagnetic NMR                              
  Zikuan Wang            : NOTCH, Electric field optimization            
  Frank Wennmohs         : Technical directorship and infrastructure     
  Hang Xu                : AUTO-CI-Response properties                   
                                                                         
[FACCTs GmbH]                                                            
  Markus Bursch, Miquel Garcia-Rates, Christoph Riplinger, Bernardo de Souza, Georgi L. Stoychev 
                                                                 
  APM, Basis sets (HGBS, AHGBS, def-TZVP (Ac-Lr), def2-XVPD (La-Lu)), CI-OPT, improved COSX, DLPNO-Multilevel,           
  DOCKER, DRACO, updates on ESD, GOAT, IRC, LR-CPCM, MBIS, meta-GGA TD-DFT gradient, ML-optimized integration grids, 
  MM, NACMEs, nearIR, NEB, NEB-TS, NL-DFT gradient (VV10), 2- and 3-layer-ONIOM, interface openCOSMO-RS, QMMM,   
  Crystal-QMMM, SF, symmetry and pop. for TD-DFT, r2SCAN hybrids, SOLVATOR                                   
                                                                         
[Other institutions]                                                     
  V. Asgeirsson          : NEB                                           
  Christoph Bannwarth    : sTDA-DFT, sTD-DFT, PBEh-3c, B97-3c, D3        
  Sebastian Ehlert       : rSCAN, r2SCAN, r2SCAN-3c, D4, dhf basis sets  
  Marvin Friede          : D4 for Fr, Ra, Ac-Lr                          
  Lars Goerigk           : TD-DFT with DH, B97 family of functionals     
  Stefan Grimme          : VdW corrections, initial TS optimization, DFT functionals, gCP, sTDA/sTD-DF 
  Waldemar Hujo          : DFT-NL                                        
  H. Jonsson             : NEB                                           
  Holger Kruse           : gCP                                           
  Marcel Mueller         : wB97X-3c, vDZP basis set                      
  Hagen Neugebauer       : wr2SCAN                                       
  Tobias Risthaus        : range-separated hybrid DFT                    
  Lukas Wittmann         : regularized MP2, r2SCAN double-hybrids, wr2SCAN        
                                                                         
We gratefully acknowledge several colleagues who have allowed us to      
interface, adapt or use parts of their codes:                            
  Ed Valeev, F. Pavosevic, A. Kumar             : LibInt (2-el integral package), F12 methods 
  Garnet Chan, S. Sharma, J. Yang, R. Olivares  : DMRG                   
  Ulf Ekstrom                                   : XCFun DFT Library      
  Mihaly Kallay                                 : mrcc  (arbitrary order and MRCC methods)
  Frank Weinhold                                : gennbo (NPA and NBO analysis)           
  Simon Mueller                                 : openCOSMO-RS                            
  Christopher J. Cramer and Donald G. Truhlar   : smd solvation model                     
  S Lehtola, MJT Oliveira, MAL Marques          : LibXC Library                           
  Liviu Ungur et al                             : ANISO software                          


 Your calculation uses the libint2 library for the computation of 2-el integrals
 For citations please refer to: http://libint.valeyev.net

 Your ORCA version has been built with support for libXC version: 6.2.2
 For citations please refer to: https://libxc.gitlab.io

 This ORCA versions uses:
   CBLAS   interface :  Fast vector & matrix operations
   LAPACKE interface :  Fast linear algebra routines
   SCALAPACK package :  Parallel linear algebra routines
   Shared memory     :  Shared parallel matrices
   BLAS/LAPACK       :  OpenBLAS 0.3.27  USE64BITINT DYNAMIC_ARCH NO_AFFINITY Zen SINGLE_THREADED
        Core in use  :  Zen
   Copyright (c) 2011-2014, The OpenBLAS Project


Your calculation utilizes the geometrical counterpoise correction gCP
Please cite in your paper:
H.Kruse, S. Grimme J.Chem.Phys., 136, (2012), 154101 
   

Your calculation utilizes the atom-pairwise dispersion correction
based on EEQ partial charges (D4)


================================================================================

----- Orbital basis set information -----
Your calculation utilizes the basis: def2-mTZVPP
   Stefan Grimme, Andreas Hansen, Sebastian Ehlert, and Jan-Michael Mewes 
   J. Chem. Phys. 154, 064103 (2021). DOI: 10.1063/5.0040021

----- AuxJ basis set information -----
Your calculation utilizes the auxiliary basis: def2/J
   F. Weigend, Phys. Chem. Chem. Phys. 8, 1057 (2006).

================================================================================
                                        WARNINGS
                       Please study these warnings very carefully!
================================================================================

WARNING: Old DensityContainer found on disk!
         Will remove this file - 
         If you want to keep old densities, please start your calculation with a different basename. 



WARNING: SCAN, rSCAN, or r2SCAN functional requested.
  ===> : libXC variant has now been activated.



================================================================================
                                       INPUT FILE
================================================================================
NAME = sp.inp
|  1> ! r2scan-3c def2/J RI DEFGRID2 scfconv6 printgap
|  2> %output
|  3>     printlevel normal
|  4> end
|  5> * xyz 0 1
|  6> C 0.882305187 1.3437836353 -0.6977778795
|  7> C 1.5911193801 0.1682311443 -0.0214915981
|  8> H 2.6200975149 0.0644746991 -0.3918447392
|  9> C 0.7902614037 -1.1179030339 -0.3398295644
| 10> H 1.2116256803 -1.954186717 0.2400882586
| 11> C -0.6717264178 -0.9307397665 0.092164021
| 12> H -1.2766780679 -1.7407020739 -0.3294471928
| 13> C -1.249433248 0.4090025445 -0.4325327989
| 14> H -1.3643074406 0.3616086765 -1.5254435368
| 15> O -0.3842003048 1.4935968925 -0.1057643914
| 16> O -2.4808862464 0.6490515499 0.1210174123
| 17> O -0.8187061188 -0.9951235612 1.489496463
| 18> O 0.8034738688 -1.398653602 -1.7169764096
| 19> O 1.6381600302 0.379482365 1.3748075026
| 20> H 0.7952009902 1.1626382425 -1.7767032857
| 21> H 1.4181673846 2.2795096101 -0.5217328038
| 22> H -2.4366056652 0.3851385336 1.0547634954
| 23> H -0.0354274028 -0.5877205547 1.8926933638
| 24> H 1.696620798 -1.6440246669 -1.9834423489
| 25> H 1.0906351007 1.1566736183 1.5635276674
| 26> *
| 27> 
| 28>                          ****END OF INPUT****
================================================================================

                       ****************************
                       * Single Point Calculation *
                       ****************************

---------------------------------
CARTESIAN COORDINATES (ANGSTROEM)
---------------------------------
  C      0.882305    1.343784   -0.697778
  C      1.591119    0.168231   -0.021492
  H      2.620098    0.064475   -0.391845
  C      0.790261   -1.117903   -0.339830
  H      1.211626   -1.954187    0.240088
  C     -0.671726   -0.930740    0.092164
  H     -1.276678   -1.740702   -0.329447
  C     -1.249433    0.409003   -0.432533
  H     -1.364307    0.361609   -1.525444
  O     -0.384200    1.493597   -0.105764
  O     -2.480886    0.649052    0.121017
  O     -0.818706   -0.995124    1.489496
  O      0.803474   -1.398654   -1.716976
  O      1.638160    0.379482    1.374808
  H      0.795201    1.162638   -1.776703
  H      1.418167    2.279510   -0.521733
  H     -2.436606    0.385139    1.054763
  H     -0.035427   -0.587721    1.892693
  H      1.696621   -1.644025   -1.983442
  H      1.090635    1.156674    1.563528

----------------------------
CARTESIAN COORDINATES (A.U.)
----------------------------
  NO LB      ZA    FRAG     MASS         X           Y           Z
   0 C     6.0000    0    12.011    1.667315    2.539383   -1.318609
   1 C     6.0000    0    12.011    3.006780    0.317911   -0.040613
   2 H     1.0000    0     1.008    4.951267    0.121840   -0.740479
   3 C     6.0000    0    12.011    1.493378   -2.112531   -0.642185
   4 H     1.0000    0     1.008    2.289641   -3.692878    0.453701
   5 C     6.0000    0    12.011   -1.269379   -1.758843    0.174165
   6 H     1.0000    0     1.008   -2.412572   -3.289450   -0.622565
   7 C     6.0000    0    12.011   -2.361087    0.772903   -0.817369
   8 H     1.0000    0     1.008   -2.578167    0.683341   -2.882671
   9 O     8.0000    0    15.999   -0.726033    2.822489   -0.199866
  10 O     8.0000    0    15.999   -4.688196    1.226530    0.228690
  11 O     8.0000    0    15.999   -1.547130   -1.880511    2.814740
  12 O     8.0000    0    15.999    1.518346   -2.643072   -3.244615
  13 O     8.0000    0    15.999    3.095674    0.717118    2.598010
  14 H     1.0000    0     1.008    1.502712    2.197068   -3.357483
  15 H     1.0000    0     1.008    2.679948    4.307649   -0.985932
  16 H     1.0000    0     1.008   -4.604517    0.727806    1.993214
  17 H     1.0000    0     1.008   -0.066948   -1.110631    3.576672
  18 H     1.0000    0     1.008    3.206149   -3.106756   -3.748163
  19 H     1.0000    0     1.008    2.061002    2.185796    2.954639

--------------------------------
INTERNAL COORDINATES (ANGSTROEM)
--------------------------------
 C      0   0   0     0.000000000000     0.00000000     0.00000000
 C      1   0   0     1.530262838158     0.00000000     0.00000000
 H      2   1   0     1.098509376810   110.94310366     0.00000000
 C      2   1   3     1.548177536165   107.92050756   239.81887046
 H      4   2   1     1.101463995620   108.94071200   187.00016286
 C      4   2   1     1.535922177946   109.47073086   304.86258462
 H      6   4   2     1.095336228730   109.10749622   167.58517961
 C      6   4   2     1.550471345868   111.39396490    48.89824912
 H      8   6   4     1.099952789835   109.75058368    69.38296719
 O      1   2   3     1.406044146848   108.24022041   184.81241619
 O      8   6   4     1.371319747025   110.44156468   188.77754194
 O      6   4   2     1.406515644773   111.92018037   285.69651938
 O      4   2   1     1.405535088131   111.25644368    64.14066883
 O      2   1   3     1.412972427057   109.71211081   119.77895952
 H      1   2   3     1.097488417514   110.14721288    63.16517278
 H      1   2   3     1.092576433670   111.07143461   301.29656301
 H     11   8   6     0.971335471271   107.43011639    40.31365372
 H     12   6   4     0.970603161678   108.00810284    35.79874245
 H     13   4   2     0.963806253059   109.29622135    67.90735115
 H     14   2   1     0.969239440609   107.06698646     8.26638005

---------------------------
INTERNAL COORDINATES (A.U.)
---------------------------
 C      0   0   0     0.000000000000     0.00000000     0.00000000
 C      1   0   0     2.891777677035     0.00000000     0.00000000
 H      2   1   0     2.075881877716   110.94310366     0.00000000
 C      2   1   3     2.925631550041   107.92050756   239.81887046
 H      4   2   1     2.081465298096   108.94071200   187.00016286
 C      4   2   1     2.902472279333   109.47073086   304.86258462
 H      6   4   2     2.069885496863   109.10749622   167.58517961
 C      6   4   2     2.929966222182   111.39396490    48.89824912
 H      8   6   4     2.078609533031   109.75058368    69.38296719
 O      1   2   3     2.657038369745   108.24022041   184.81241619
 O      8   6   4     2.591418763916   110.44156468   188.77754194
 O      6   4   2     2.657929371697   111.92018037   285.69651938
 O      4   2   1     2.656076388184   111.25644368    64.14066883
 O      2   1   3     2.670130921921   109.71211081   119.77895952
 H      1   2   3     2.073952544251   110.14721288    63.16517278
 H      1   2   3     2.064670240012   111.07143461   301.29656301
 H     11   8   6     1.835558024865   107.43011639    40.31365372
 H     12   6   4     1.834174160289   108.00810284    35.79874245
 H     13   4   2     1.821329864443   109.29622135    67.90735115
 H     14   2   1     1.831597100946   107.06698646     8.26638005

---------------------
BASIS SET INFORMATION
---------------------
There are 3 groups of distinct atoms

 Group   1 Type C   : 11s6p1d contracted to 5s3p1d pattern {62111/411/1}
 Group   2 Type H   : 4s1p contracted to 2s1p pattern {31/1}
 Group   3 Type O   : 11s6p2d contracted to 5s3p2d pattern {62111/411/11}

Atom   0C    basis set group =>   1
Atom   1C    basis set group =>   1
Atom   2H    basis set group =>   2
Atom   3C    basis set group =>   1
Atom   4H    basis set group =>   2
Atom   5C    basis set group =>   1
Atom   6H    basis set group =>   2
Atom   7C    basis set group =>   1
Atom   8H    basis set group =>   2
Atom   9O    basis set group =>   3
Atom  10O    basis set group =>   3
Atom  11O    basis set group =>   3
Atom  12O    basis set group =>   3
Atom  13O    basis set group =>   3
Atom  14H    basis set group =>   2
Atom  15H    basis set group =>   2
Atom  16H    basis set group =>   2
Atom  17H    basis set group =>   2
Atom  18H    basis set group =>   2
Atom  19H    basis set group =>   2
---------------------------------
AUXILIARY/J BASIS SET INFORMATION
---------------------------------
There are 3 groups of distinct atoms

 Group   1 Type C   : 12s5p4d2f1g contracted to 6s4p3d1f1g pattern {711111/2111/211/2/1}
 Group   2 Type H   : 5s2p1d contracted to 3s1p1d pattern {311/2/1}
 Group   3 Type O   : 12s5p4d2f1g contracted to 6s4p3d1f1g pattern {711111/2111/211/2/1}

Atom   0C    basis set group =>   1
Atom   1C    basis set group =>   1
Atom   2H    basis set group =>   2
Atom   3C    basis set group =>   1
Atom   4H    basis set group =>   2
Atom   5C    basis set group =>   1
Atom   6H    basis set group =>   2
Atom   7C    basis set group =>   1
Atom   8H    basis set group =>   2
Atom   9O    basis set group =>   3
Atom  10O    basis set group =>   3
Atom  11O    basis set group =>   3
Atom  12O    basis set group =>   3
Atom  13O    basis set group =>   3
Atom  14H    basis set group =>   2
Atom  15H    basis set group =>   2
Atom  16H    basis set group =>   2
Atom  17H    basis set group =>   2
Atom  18H    basis set group =>   2
Atom  19H    basis set group =>   2

Checking for AutoStart:
The File: sp.gbw exists
Trying to determine its content:
     ... Fine, the file contains calculation information
     ... Fine, the calculation information was read
     ... Fine, the file contains a basis set
     ... Fine, the basis set was read
     ... Fine, the file contains a geometry
     ... Fine, the geometry was read
     ... Fine, the file contains a set of orbitals
     ... Fine, the orbitals can be read
     => possible old guess file was deleted
     => GBW file was renamed to GES file
     => GES file is set as startup file
     => Guess is set to MORead
     ... now leaving AutoStart

------------------------------------------------------------------------------
                             ORCA STARTUP CALCULATIONS
                           -- RI-GTO INTEGRALS CHOSEN --
------------------------------------------------------------------------------
------------------------------------------------------------------------------
                   ___                                                        
                  /   \      - P O W E R E D   B Y -                         
                 /     \                                                     
                 |  |  |   _    _      __       _____    __    __             
                 |  |  |  | |  | |    /  \     |  _  \  |  |  /  |          
                  \  \/   | |  | |   /    \    | | | |  |  | /  /          
                 / \  \   | |__| |  /  /\  \   | |_| |  |  |/  /          
                |  |  |   |  __  | /  /__\  \  |    /   |      \           
                |  |  |   | |  | | |   __   |  |    \   |  |\   \          
                \     /   | |  | | |  |  |  |  | |\  \  |  | \   \       
                 \___/    |_|  |_| |__|  |__|  |_| \__\ |__|  \__/        
                                                                              
                      - O R C A' S   B I G   F R I E N D -                    
                                      &                                       
                       - I N T E G R A L  F E E D E R -                       
                                                                              
 v1 FN, 2020, v2 2021, v3 2022-2024                                           
------------------------------------------------------------------------------


----------------------
SHARK INTEGRAL PACKAGE
----------------------

Number of atoms                             ...     20
Number of basis functions                   ...    265
Number of shells                            ...    125
Maximum angular momentum                    ...      2
Integral batch strategy                     ... SHARK/LIBINT Hybrid
RI-J (if used) integral strategy            ... SPLIT-RIJ (Revised 2003 algorithm where possible)
Printlevel                                  ...      1
Contraction scheme used                     ... SEGMENTED contraction
Prescreening option                         ... SCHWARTZ
   Thresh                                   ... 1.000e-10
   Tcut                                     ... 1.000e-11
   Tpresel                                  ... 1.000e-11 
Coulomb Range Separation                    ... NOT USED
Exchange Range Separation                   ... NOT USED
Multipole approximations                    ... NOT USED
Finite Nucleus Model                        ... NOT USED
CABS basis                                  ... NOT available
Auxiliary Coulomb fitting basis             ... AVAILABLE
   # of basis functions in Aux-J            ...    600
   # of shells in Aux-J                     ...    200
   Maximum angular momentum in Aux-J        ...      4
Auxiliary J/K fitting basis                 ... NOT available
Auxiliary Correlation fitting basis         ... NOT available
Auxiliary 'external' fitting basis          ... NOT available

Checking pre-screening integrals            ... done (  0.0 sec) Dimension = 125
Check shell pair data                       ... done (  0.0 sec)
Shell pair information
Shell pair cut-off parameter TPreSel        ...   1.0e-11
Total number of shell pairs                 ...      7875
Shell pairs after pre-screening             ...      7185
Total number of primitive shell pairs       ...     27980
Primitive shell pairs kept                  ...     17943
          la=0 lb=0:   2170 shell pairs
          la=1 lb=0:   2559 shell pairs
          la=1 lb=1:    776 shell pairs
          la=2 lb=0:    985 shell pairs
          la=2 lb=1:    577 shell pairs
          la=2 lb=2:    118 shell pairs

Calculating one electron integrals          ... done (  0.0 sec)
Calculating RI/J V-Matrix + Cholesky decomp.... done (  0.0 sec)
Calculating Nuclear repulsion               ... done (  0.0 sec) ENN=    638.970480584627 Eh

Diagonalization of the overlap matrix:
Smallest eigenvalue                        ... 5.983e-05
Time for diagonalization                   ...    0.007 sec
Threshold for overlap eigenvalues          ... 1.000e-07
Number of eigenvalues below threshold      ... 0
Time for construction of square roots      ...    0.006 sec
Total time needed                          ...    0.015 sec

-------------------
DFT GRID GENERATION
-------------------

General Integration Accuracy     IntAcc      ... 4.388
Radial Grid Type                 RadialGrid  ... OptM3 with GC (2021)
Angular Grid (max. ang.)         AngularGrid ... 4 (Lebedev-302)
Angular grid pruning method      GridPruning ... 4 (adaptive)
Weight generation scheme         WeightScheme... mBecke (2022)
Basis function cutoff            BFCut       ... 1.0000e-10
Integration weight cutoff        WCut        ... 1.0000e-14
Partially contracted basis set               ... off
Rotationally invariant grid construction     ... off
Angular grids for H and He will be reduced by one unit
Diffuse basis detected: some atoms will have their outermost
                        angular grid increased by 1.

Total number of grid points                  ...    93310
Total number of batches                      ...     1469
Average number of points per batch           ...       63
Average number of grid points per atom       ...     4666
Initializing property integral containers    ... done (  0.0 sec)

SHARK setup successfully completed in   1.2 seconds

Maximum memory used throughout the entire STARTUP-calculation: 46.0 MB
-------------------------------------------------------------------------------
                                 ORCA GUESS
                   Start orbitals & Density for SCF / CASSCF
-------------------------------------------------------------------------------

------------
SCF SETTINGS
------------
Hamiltonian:
 Density Functional     Method          .... DFT(GTOs)
  Functional kind                       .... Exchange
  Functional name                       .... Re-regularized SCAN exchange by Furness et al
  Functional family                     .... MGGA
  Functional refs                              
    [ 0] J. W. Furness, A. D. Kaplan, J. Ning, J. P. Perdew, and J. Sun.,  J. Phys. Chem. Lett. 11, 8208-8215 (2020), doi: 10.1021/acs.jpclett.0c02405
    [ 1] J. W. Furness, A. D. Kaplan, J. Ning, J. P. Perdew, and J. Sun.,  J. Phys. Chem. Lett. 11, 9248-9248 (2020), doi: 10.1021/acs.jpclett.0c03077
  Functional external parameters        .... 6
    Parameter  0 _c1        =  6.670000e-01 : c1 parameter        
    Parameter  1 _c2        =  8.000000e-01 : c2 parameter        
    Parameter  2 _d         =  1.240000e+00 : d parameter         
    Parameter  3 _k1        =  6.500000e-02 : k1 parameter        
    Parameter  4 _eta       =  1.000000e-03 : eta parameter       
    Parameter  5 _dp2       =  3.610000e-01 : dp2 parameter       
  Functional kind                       .... Correlation
  Functional name                       .... Re-regularized SCAN correlation by Furness et al
  Functional family                     .... MGGA
  Functional refs                              
    [ 0] J. W. Furness, A. D. Kaplan, J. Ning, J. P. Perdew, and J. Sun.,  J. Phys. Chem. Lett. 11, 8208-8215 (2020), doi: 10.1021/acs.jpclett.0c02405
    [ 1] J. W. Furness, A. D. Kaplan, J. Ning, J. P. Perdew, and J. Sun.,  J. Phys. Chem. Lett. 11, 9248-9248 (2020), doi: 10.1021/acs.jpclett.0c03077
  Functional external parameters        .... 1
    Parameter  0 _eta       =  1.000000e-03 : Regularization parameter
 Gradients option       PostSCFGGA      .... off
 RI-approximation to the Coulomb term is turned on
   Number of AuxJ basis functions       .... 600


General Settings:
 Integral files         IntName         .... sp
 Hartree-Fock type      HFTyp           .... RHF
 Total Charge           Charge          ....    0
 Multiplicity           Mult            ....    1
 Number of Electrons    NEL             ....   80
 Basis Dimension        Dim             ....  265
 Nuclear Repulsion      ENuc            ....    638.9704805846 Eh

Convergence Acceleration:
 AO-DIIS                CNVDIIS         .... on
   Start iteration      DIISMaxIt       ....    12
   Startup error        DIISStart       ....  0.200000
   # of expansion vecs  DIISMaxEq       ....     5
   Bias factor          DIISBfac        ....   1.050
   Max. coefficient     DIISMaxC        ....  10.000
 MO-DIIS                CNVKDIIS        .... off
 Trust-Rad. Augm. Hess. CNVTRAH         .... auto
   Auto Start mean grad. ratio tolernc. ....  1.125000
   Auto Start start iteration           ....     1
   Auto Start num. interpolation iter.  ....    10
   Max. Number of Micro iterations      ....    24
   Max. Number of Macro iterations      .... Maxiter - #DIIS iter
   Number of Davidson start vectors     ....     2
   Converg. threshold    (grad. norm)   ....   3.330e-04
   Grad. Scal. Fac. for Micro threshold ....   0.100
   Minimum threshold for Micro iter.    ....   1.000e-02
   NR start threshold (gradient norm)   ....   1.000e-04
   Initial trust radius                 ....   0.400
   Minimum AH scaling param. (alpha)    ....   1.000
   Maximum AH scaling param. (alpha)    .... 1000.000
   Quad. conv. algorithm                .... NR
   White noise on init. David. guess    .... on
   Maximum white noise                  ....   0.010
   Pseudo random numbers                .... off
   Inactive MOs                         .... canonical
   Orbital update algorithm             .... Taylor
   Preconditioner                       .... Diag
   Full preconditioner red. dimension   ....   250
   COSX micro iterations for RIJONX calc.... off
 SOSCF                  CNVSOSCF        .... on
   Start iteration      SOSCFMaxIt      ....   150
   Startup grad/error   SOSCFStart      ....  0.003300
   Hessian update       SOSCFHessUp     .... L-BFGS
 Level Shifting         CNVShift        .... on
   Level shift para.    LevelShift      ....    0.2500
   Turn off err/grad.   ShiftErr        ....    0.0010
 Zerner damping         CNVZerner       .... off
 Static damping         CNVDamp         .... on
   Fraction old density DampFac         ....    0.7000
   Max. Damping (<1)    DampMax         ....    0.9800
   Min. Damping (>=0)   DampMin         ....    0.0000
   Turn off err/grad.   DampErr         ....    0.1000

SCF Procedure:
 Maximum # iterations   MaxIter         ....   125
 SCF integral mode      SCFMode         .... Direct
   Integral package                     .... SHARK and LIBINT hybrid scheme
 Reset frequency        DirectResetFreq ....    20
 Integral Threshold     Thresh          ....  1.000e-10 Eh
 Primitive CutOff       TCut            ....  1.000e-11 Eh

Convergence Tolerance:
 Convergence Check Mode ConvCheckMode   .... Total+1el-Energy
 Convergence forced     ConvForced      .... 0
 Energy Change          TolE            ....  1.000e-06 Eh
 1-El. energy change                    ....  1.000e-03 Eh
 Orbital Gradient       TolG            ....  3.330e-04
 Orbital Rotation angle TolX            ....  3.330e-04
 DIIS Error             TolErr          ....  1.000e-06

---------------------
INITIAL GUESS: MOREAD
---------------------
Guess MOs are being read from file: sp.ges
Input Geometry matches current geometry (good)
Atom 0: N(Shells)= 9 and 6 - projection required
Input basis set needs projection
NBasis(read)= 160
NBasis(calc)= 265
Basis set overlap was calculated
Using GuessMode=FMatrix for the initial guess
C*T matrix was formed
Effective Fockian was calculated
Effective Fockian was diagonalized
Initial density was built
                      ------------------
                      INITIAL GUESS DONE (   0.0 sec)
                      ------------------
             **** ENERGY FILE WAS UPDATED (sp.en.tmp) ****
Finished Guess after   0.1 sec
Maximum memory used throughout the entire GUESS-calculation: 21.8 MB

-------------------------------------------------------------------------------------------
                                      ORCA LEAN-SCF
                              memory conserving SCF solver
-------------------------------------------------------------------------------------------

----------------------------------------D-I-I-S--------------------------------------------
Iteration    Energy (Eh)           Delta-E    RMSDP     MaxDP     DIISErr   Damp  Time(sec)
-------------------------------------------------------------------------------------------
               ***  Starting incremental Fock matrix formation  ***
    1    -572.2420585495267460     0.00e+00  8.73e-03  6.82e-01  6.30e-01  0.700   4.5
    2    -572.3402850825791575    -9.82e-02  6.58e-03  4.63e-01  4.43e-01  0.700   4.2
    3    -572.4097966056710902    -6.95e-02  4.68e-03  3.13e-01  3.10e-01  0.700   4.4
    4    -572.4586017667936630    -4.88e-02  3.30e-03  2.15e-01  2.17e-01  0.700   4.1
                               ***Turning on AO-DIIS***
    5    -572.4928420160272253    -3.42e-02  2.34e-03  1.49e-01  1.52e-01  0.700   4.1
    6    -572.5168485979768320    -2.40e-02  1.64e-03  1.03e-01  1.06e-01  0.700   3.8
    7    -572.5336828834754215    -1.68e-02  1.15e-03  7.19e-02  7.45e-02  0.700   4.0
    8    -572.5454810667558831    -1.18e-02  2.69e-03  1.67e-01  5.22e-02  0.000   4.1
                              *** Initializing SOSCF ***
---------------------------------------S-O-S-C-F--------------------------------------
Iteration    Energy (Eh)           Delta-E    RMSDP     MaxDP     MaxGrad    Time(sec)
--------------------------------------------------------------------------------------
    9    -572.5730546614634022    -2.76e-02  1.33e-05  3.36e-04  1.52e-04     4.2
               *** Restarting incremental Fock matrix formation ***
   10    -572.5730548959711541    -2.35e-07  1.09e-05  4.95e-04  1.75e-05     4.4
                  *** Gradient check signals convergence ***

               *****************************************************
               *                     SUCCESS                       *
               *           SCF CONVERGED AFTER  10 CYCLES          *
               *****************************************************

             **** ENERGY FILE WAS UPDATED (sp.en.tmp) ****

----------------
TOTAL SCF ENERGY
----------------

Total Energy       :       -572.57305489597115 Eh          -15580.50492 eV

Components:
Nuclear Repulsion  :        638.97048058462747 Eh           17387.27073 eV
Electronic Energy  :      -1211.54353548059862 Eh          -32967.77565 eV
One Electron Energy:      -2052.73010906081436 Eh          -55857.62601 eV
Two Electron Energy:        841.18657358021574 Eh           22889.85036 eV

Virial components:
Potential Energy   :      -1142.96676429123681 Eh          -31101.70684 eV
Kinetic Energy     :        570.39370939526577 Eh           15521.20192 eV
Virial Ratio       :          2.00382077408079

DFT components:
N(Alpha)           :       39.999924201089 electrons
N(Beta)            :       39.999924201089 electrons
N(Total)           :       79.999848402178 electrons
E(X)               :      -71.073838496560 Eh       
E(C)               :       -2.665479010414 Eh       
E(XC)              :      -73.739317506974 Eh       

---------------
SCF CONVERGENCE
---------------

  Last Energy change         ...    2.3451e-07  Tolerance :   1.0000e-06
  Last MAX-Density change    ...    4.9468e-04  Tolerance :   1.0000e-05
  Last RMS-Density change    ...    1.0895e-05  Tolerance :   1.0000e-06
  Last DIIS Error            ...    1.5226e-04  Tolerance :   1.0000e-06
  Last Orbital Gradient      ...    1.7460e-05  Tolerance :   3.3300e-04
  Last Orbital Rotation      ...    3.1810e-05  Tolerance :   3.3300e-04


----------------
ORBITAL ENERGIES
----------------

  NO   OCC          E(Eh)            E(eV) 
   0   2.0000     -18.978211      -516.4234 
   1   2.0000     -18.976689      -516.3820 
   2   2.0000     -18.969538      -516.1874 
   3   2.0000     -18.960985      -515.9546 
   4   2.0000     -18.957153      -515.8504 
   5   2.0000     -10.131812      -275.7006 
   6   2.0000     -10.102858      -274.9127 
   7   2.0000     -10.101655      -274.8800 
   8   2.0000     -10.093724      -274.6642 
   9   2.0000     -10.091800      -274.6118 
  10   2.0000      -1.053311       -28.6621 
  11   2.0000      -1.021128       -27.7863 
  12   2.0000      -1.013001       -27.5652 
  13   2.0000      -0.999289       -27.1920 
  14   2.0000      -0.978131       -26.6163 
  15   2.0000      -0.750588       -20.4245 
  16   2.0000      -0.719859       -19.5883 
  17   2.0000      -0.633950       -17.2506 
  18   2.0000      -0.622481       -16.9386 
  19   2.0000      -0.569866       -15.5068 
  20   2.0000      -0.524570       -14.2743 
  21   2.0000      -0.502156       -13.6644 
  22   2.0000      -0.495087       -13.4720 
  23   2.0000      -0.479969       -13.0606 
  24   2.0000      -0.459022       -12.4906 
  25   2.0000      -0.449708       -12.2372 
  26   2.0000      -0.440764       -11.9938 
  27   2.0000      -0.418142       -11.3782 
  28   2.0000      -0.391221       -10.6457 
  29   2.0000      -0.380142       -10.3442 
  30   2.0000      -0.352727        -9.5982 
  31   2.0000      -0.340092        -9.2544 
  32   2.0000      -0.328256        -8.9323 
  33   2.0000      -0.316124        -8.6022 
  34   2.0000      -0.304414        -8.2835 
  35   2.0000      -0.289076        -7.8662 
  36   2.0000      -0.275737        -7.5032 
  37   2.0000      -0.263649        -7.1743 
  38   2.0000      -0.245941        -6.6924 
  39   2.0000      -0.224545        -6.1102 
  40   0.0000       0.023067         0.6277 
  41   0.0000       0.046037         1.2527 
  42   0.0000       0.075577         2.0566 
  43   0.0000       0.086619         2.3570 
  44   0.0000       0.094843         2.5808 
  45   0.0000       0.105850         2.8803 
  46   0.0000       0.118535         3.2255 
  47   0.0000       0.122848         3.3429 
  48   0.0000       0.131301         3.5729 
  49   0.0000       0.137161         3.7323 
  50   0.0000       0.150916         4.1066 
*Only the first 10 virtual orbitals were printed.

                    ********************************
                    * MULLIKEN POPULATION ANALYSIS *
                    ********************************

-----------------------
MULLIKEN ATOMIC CHARGES
-----------------------
   0 C :   -0.238828
   1 C :    0.005239
   2 H :    0.157847
   3 C :   -0.071715
   4 H :    0.155328
   5 C :    0.049438
   6 H :    0.159878
   7 C :   -0.093264
   8 H :    0.151761
   9 O :   -0.233332
  10 O :   -0.374174
  11 O :   -0.430702
  12 O :   -0.411004
  13 O :   -0.448651
  14 H :    0.167040
  15 H :    0.165269
  16 H :    0.326076
  17 H :    0.327950
  18 H :    0.297816
  19 H :    0.338027
Sum of atomic charges:    0.0000000

--------------------------------
MULLIKEN REDUCED ORBITAL CHARGES
--------------------------------
  0 C s       :     3.309834  s :     3.309834
      pz      :     1.029244  p :     2.871566
      px      :     0.796224
      py      :     1.046099
      dz2     :     0.013827  d :     0.057427
      dxz     :     0.011914
      dyz     :     0.004787
      dx2y2   :     0.011988
      dxy     :     0.014910

  1 C s       :     3.176408  s :     3.176408
      pz      :     0.754622  p :     2.752639
      px      :     1.085105
      py      :     0.912913
      dz2     :     0.019210  d :     0.065714
      dxz     :     0.014158
      dyz     :     0.013873
      dx2y2   :     0.009767
      dxy     :     0.008705

  2 H s       :     0.825084  s :     0.825084
      pz      :     0.003110  p :     0.017069
      px      :     0.010522
      py      :     0.003437

  3 C s       :     3.239153  s :     3.239153
      pz      :     0.776192  p :     2.765941
      px      :     0.976551
      py      :     1.013198
      dz2     :     0.018550  d :     0.066621
      dxz     :     0.011494
      dyz     :     0.017149
      dx2y2   :     0.009489
      dxy     :     0.009939

  4 H s       :     0.827691  s :     0.827691
      pz      :     0.004875  p :     0.016980
      px      :     0.004331
      py      :     0.007775

  5 C s       :     3.101282  s :     3.101282
      pz      :     0.746102  p :     2.783661
      px      :     0.997195
      py      :     1.040364
      dz2     :     0.018381  d :     0.065618
      dxz     :     0.013250
      dyz     :     0.016397
      dx2y2   :     0.008497
      dxy     :     0.009094

  6 H s       :     0.823013  s :     0.823013
      pz      :     0.003413  p :     0.017109
      px      :     0.005789
      py      :     0.007906

  7 C s       :     3.341931  s :     3.341931
      pz      :     1.023711  p :     2.658346
      px      :     0.757075
      py      :     0.877560
      dz2     :     0.019295  d :     0.092987
      dxz     :     0.015168
      dyz     :     0.009908
      dx2y2   :     0.021644
      dxy     :     0.026973

  8 H s       :     0.831604  s :     0.831604
      pz      :     0.012014  p :     0.016635
      px      :     0.002082
      py      :     0.002539

  9 O s       :     3.722295  s :     3.722295
      pz      :     1.736257  p :     4.488585
      px      :     1.186189
      py      :     1.566140
      dz2     :     0.003266  d :     0.022452
      dxz     :    -0.000435
      dyz     :     0.002381
      dx2y2   :     0.009424
      dxy     :     0.007815

 10 O s       :     3.742104  s :     3.742104
      pz      :     1.343590  p :     4.610638
      px      :     1.433009
      py      :     1.834040
      dz2     :     0.006457  d :     0.021432
      dxz     :     0.002441
      dyz     :     0.001752
      dx2y2   :     0.008251
      dxy     :     0.002531

 11 O s       :     3.756262  s :     3.756262
      pz      :     1.227000  p :     4.661115
      px      :     1.618590
      py      :     1.815524
      dz2     :     0.000676  d :     0.013325
      dxz     :     0.000108
      dyz     :     0.000494
      dx2y2   :     0.003352
      dxy     :     0.008696

 12 O s       :     3.763635  s :     3.763635
      pz      :     1.314634  p :     4.631154
      px      :     1.471968
      py      :     1.844552
      dz2     :     0.003753  d :     0.016215
      dxz     :     0.002176
      dyz     :    -0.000218
      dx2y2   :     0.006919
      dxy     :     0.003585

 13 O s       :     3.760508  s :     3.760508
      pz      :     1.329080  p :     4.676714
      px      :     1.756864
      py      :     1.590770
      dz2     :     0.000316  d :     0.011429
      dxz     :    -0.002975
      dyz     :     0.000707
      dx2y2   :     0.008024
      dxy     :     0.005357

 14 H s       :     0.815548  s :     0.815548
      pz      :     0.011417  p :     0.017412
      px      :     0.002313
      py      :     0.003682

 15 H s       :     0.817479  s :     0.817479
      pz      :     0.003291  p :     0.017252
      px      :     0.004511
      py      :     0.009449

 16 H s       :     0.630850  s :     0.630850
      pz      :     0.021967  p :     0.043074
      px      :     0.008405
      py      :     0.012702

 17 H s       :     0.627394  s :     0.627394
      pz      :     0.009933  p :     0.044656
      px      :     0.020462
      py      :     0.014261

 18 H s       :     0.658567  s :     0.658567
      pz      :     0.009331  p :     0.043617
      px      :     0.020895
      py      :     0.013392

 19 H s       :     0.619006  s :     0.619006
      pz      :     0.008211  p :     0.042968
      px      :     0.015785
      py      :     0.018972


------------------------
MULLIKEN OVERLAP CHARGES
------------------------
B(  0-C ,  2-H ) :  -0.1145 B(  0-C ,  3-C ) :  -0.0631 B(  0-C ,  5-C ) :   0.1488 
B(  0-C ,  7-C ) :  -0.4849 B(  0-C ,  9-O ) :   0.4016 B(  0-C , 14-H ) :   0.8381 
B(  0-C , 15-H ) :   0.7981 B(  0-C , 19-H ) :  -0.0561 B(  1-C ,  2-H ) :   0.8877 
B(  1-C ,  3-C ) :  -0.0727 B(  1-C ,  4-H ) :  -0.1761 B(  1-C ,  5-C ) :   0.0997 
B(  1-C ,  7-C ) :  -0.0812 B(  1-C ,  9-O ) :  -0.2478 B(  1-C , 12-O ) :  -0.1222 
B(  1-C , 13-O ) :   0.2832 B(  1-C , 14-H ) :  -0.1653 B(  1-C , 19-H ) :  -0.1171 
B(  2-H ,  3-C ) :  -0.0753 B(  2-H , 13-O ) :  -0.0844 B(  3-C ,  4-H ) :   0.9391 
B(  3-C ,  9-O ) :   0.0502 B(  3-C , 11-O ) :  -0.0512 B(  3-C , 12-O ) :   0.3666 
B(  3-C , 13-O ) :  -0.1676 B(  3-C , 18-H ) :  -0.1331 B(  4-H ,  5-C ) :  -0.0946 
B(  4-H , 12-O ) :  -0.0813 B(  5-C ,  6-H ) :   0.7888 B(  5-C ,  7-C ) :  -0.0520 
B(  5-C ,  8-H ) :  -0.1707 B(  5-C ,  9-O ) :  -0.1943 B(  5-C , 10-O ) :  -0.0783 
B(  5-C , 11-O ) :   0.4242 B(  5-C , 12-O ) :  -0.1485 B(  5-C , 16-H ) :  -0.0503 
B(  5-C , 17-H ) :  -0.1121 B(  6-H ,  7-C ) :  -0.0523 B(  6-H , 11-O ) :  -0.0970 
B(  7-C ,  8-H ) :   0.9369 B(  7-C ,  9-O ) :   0.2734 B(  7-C , 10-O ) :   0.6010 
B(  7-C , 11-O ) :  -0.1806 B(  7-C , 12-O ) :   0.0982 B(  7-C , 16-H ) :  -0.0628 
B(  8-H ,  9-O ) :  -0.1261 B(  8-H , 10-O ) :  -0.1071 B(  9-O , 10-O ) :  -0.1811 
B(  9-O , 14-H ) :  -0.0908 B(  9-O , 15-H ) :  -0.0971 B(  9-O , 19-H ) :   0.0671 
B( 10-O , 16-H ) :   0.5815 B( 11-O , 13-O ) :  -0.0844 B( 11-O , 16-H ) :   0.0545 
B( 11-O , 17-H ) :   0.5937 B( 12-O , 18-H ) :   0.6033 B( 13-O , 17-H ) :   0.0546 
B( 13-O , 19-H ) :   0.5960 


                     *******************************
                     * LOEWDIN POPULATION ANALYSIS *
                     *******************************

----------------------
LOEWDIN ATOMIC CHARGES
----------------------
   0 C :    0.041977
   1 C :    0.088506
   2 H :    0.180743
   3 C :    0.110575
   4 H :    0.182519
   5 C :    0.121953
   6 H :    0.200825
   7 C :    0.284415
   8 H :    0.198653
   9 O :   -0.694661
  10 O :   -0.474287
  11 O :   -0.571534
  12 O :   -0.584246
  13 O :   -0.584258
  14 H :    0.187321
  15 H :    0.186469
  16 H :    0.287815
  17 H :    0.281532
  18 H :    0.272799
  19 H :    0.282883

-------------------------------
LOEWDIN REDUCED ORBITAL CHARGES
-------------------------------
  0 C s       :     2.852256  s :     2.852256
      pz      :     1.037512  p :     2.974340
      px      :     0.888595
      py      :     1.048233
      dz2     :     0.033508  d :     0.131426
      dxz     :     0.026539
      dyz     :     0.009298
      dx2y2   :     0.025984
      dxy     :     0.036097

  1 C s       :     2.836044  s :     2.836044
      pz      :     0.868565  p :     2.933134
      px      :     1.041884
      py      :     1.022685
      dz2     :     0.043586  d :     0.142317
      dxz     :     0.031104
      dyz     :     0.029098
      dx2y2   :     0.020127
      dxy     :     0.018402

  2 H s       :     0.778639  s :     0.778639
      pz      :     0.006897  p :     0.040618
      px      :     0.025169
      py      :     0.008551

  3 C s       :     2.829183  s :     2.829183
      pz      :     0.863891  p :     2.916605
      px      :     1.026213
      py      :     1.026501
      dz2     :     0.042680  d :     0.143636
      dxz     :     0.023917
      dyz     :     0.037094
      dx2y2   :     0.019116
      dxy     :     0.020829

  4 H s       :     0.776715  s :     0.776715
      pz      :     0.011490  p :     0.040766
      px      :     0.010236
      py      :     0.019039

  5 C s       :     2.825910  s :     2.825910
      pz      :     0.867774  p :     2.910617
      px      :     1.014526
      py      :     1.028316
      dz2     :     0.040869  d :     0.141520
      dxz     :     0.028281
      dyz     :     0.035314
      dx2y2   :     0.018655
      dxy     :     0.018401

  6 H s       :     0.758994  s :     0.758994
      pz      :     0.007307  p :     0.040181
      px      :     0.013490
      py      :     0.019384

  7 C s       :     2.774182  s :     2.774182
      pz      :     0.988446  p :     2.738360
      px      :     0.841322
      py      :     0.908591
      dz2     :     0.046468  d :     0.203043
      dxz     :     0.030808
      dyz     :     0.018075
      dx2y2   :     0.047036
      dxy     :     0.060657

  8 H s       :     0.763035  s :     0.763035
      pz      :     0.026586  p :     0.038313
      px      :     0.005396
      py      :     0.006331

  9 O s       :     3.493770  s :     3.493770
      pz      :     1.747787  p :     4.710853
      px      :     1.354514
      py      :     1.608552
      dz2     :     0.090436  d :     0.490037
      dxz     :     0.101873
      dyz     :     0.053787
      dx2y2   :     0.118656
      dxy     :     0.125284

 10 O s       :     3.488062  s :     3.488062
      pz      :     1.420933  p :     4.716202
      px      :     1.513815
      py      :     1.781455
      dz2     :     0.079591  d :     0.270023
      dxz     :     0.060898
      dyz     :     0.024160
      dx2y2   :     0.043375
      dxy     :     0.061999

 11 O s       :     3.499026  s :     3.499026
      pz      :     1.377090  p :     4.773637
      px      :     1.611511
      py      :     1.785036
      dz2     :     0.090652  d :     0.298870
      dxz     :     0.082818
      dyz     :     0.074998
      dx2y2   :     0.017222
      dxy     :     0.033180

 12 O s       :     3.501221  s :     3.501221
      pz      :     1.446808  p :     4.788262
      px      :     1.519956
      py      :     1.821497
      dz2     :     0.088177  d :     0.294763
      dxz     :     0.083065
      dyz     :     0.071207
      dx2y2   :     0.032198
      dxy     :     0.020116

 13 O s       :     3.505662  s :     3.505662
      pz      :     1.452411  p :     4.776430
      px      :     1.735515
      py      :     1.588504
      dz2     :     0.093746  d :     0.302167
      dxz     :     0.073804
      dyz     :     0.076098
      dx2y2   :     0.021294
      dxy     :     0.037225

 14 H s       :     0.770412  s :     0.770412
      pz      :     0.027677  p :     0.042266
      px      :     0.006096
      py      :     0.008494

 15 H s       :     0.773826  s :     0.773826
      pz      :     0.007709  p :     0.039705
      px      :     0.009250
      py      :     0.022746

 16 H s       :     0.589292  s :     0.589292
      pz      :     0.066941  p :     0.122893
      px      :     0.022064
      py      :     0.033889

 17 H s       :     0.588249  s :     0.588249
      pz      :     0.026868  p :     0.130219
      px      :     0.062895
      py      :     0.040455

 18 H s       :     0.603274  s :     0.603274
      pz      :     0.024634  p :     0.123926
      px      :     0.063915
      py      :     0.035377

 19 H s       :     0.592748  s :     0.592748
      pz      :     0.021322  p :     0.124369
      px      :     0.045413
      py      :     0.057634


---------------------------------
LOEWDIN BOND ORDERS (THRESH 0.050000)
---------------------------------
B(  0-C ,  1-C ) :   0.9354 B(  0-C ,  3-C ) :   0.0594 B(  0-C ,  7-C ) :   0.0813 
B(  0-C ,  9-O ) :   1.3827 B(  0-C , 13-O ) :   0.1460 B(  0-C , 14-H ) :   0.8009 
B(  0-C , 15-H ) :   0.8172 B(  1-C ,  2-H ) :   0.7907 B(  1-C ,  3-C ) :   0.8865 
B(  1-C ,  5-C ) :   0.0541 B(  1-C ,  9-O ) :   0.1551 B(  1-C , 12-O ) :   0.1597 
B(  1-C , 13-O ) :   1.3957 B(  2-H , 13-O ) :   0.0948 B(  3-C ,  4-H ) :   0.7827 
B(  3-C ,  5-C ) :   0.8858 B(  3-C ,  7-C ) :   0.0577 B(  3-C , 11-O ) :   0.1485 
B(  3-C , 12-O ) :   1.4097 B(  3-C , 13-O ) :   0.1569 B(  4-H , 12-O ) :   0.0983 
B(  5-C ,  6-H ) :   0.7740 B(  5-C ,  7-C ) :   0.8355 B(  5-C ,  9-O ) :   0.1318 
B(  5-C , 10-O ) :   0.1487 B(  5-C , 11-O ) :   1.4152 B(  5-C , 12-O ) :   0.1638 
B(  6-H , 11-O ) :   0.0955 B(  7-C ,  8-H ) :   0.7306 B(  7-C ,  9-O ) :   1.2275 
B(  7-C , 10-O ) :   1.4300 B(  7-C , 11-O ) :   0.1459 B(  8-H ,  9-O ) :   0.0928 
B(  8-H , 10-O ) :   0.0879 B(  9-O , 10-O ) :   0.3094 B(  9-O , 13-O ) :   0.0940 
B(  9-O , 14-H ) :   0.1010 B(  9-O , 15-H ) :   0.0967 B( 10-O , 11-O ) :   0.1057 
B( 10-O , 16-H ) :   0.9226 B( 11-O , 13-O ) :   0.0990 B( 11-O , 17-H ) :   0.9183 
B( 12-O , 18-H ) :   0.9635 B( 13-O , 17-H ) :   0.0579 B( 13-O , 19-H ) :   0.9374 


------------------------------------------
LOEWDIN REDUCED ORBITAL POPULATIONS PER MO
-------------------------------------------
THRESHOLD FOR PRINTING IS 0.1%%
                      0         1         2         3         4         5   
                 -18.97821 -18.97669 -18.96954 -18.96098 -18.95715 -10.13181
                   2.00000   2.00000   2.00000   2.00000   2.00000   2.00000
                  --------  --------  --------  --------  --------  --------
 7 C  s               0.0       0.0       0.0       0.0       0.0      99.0
 9 O  s               0.0       0.0      99.9       0.0       0.0       0.0
 9 O  dxy             0.0       0.0       0.0       0.0       0.0       0.2
10 O  s               0.0       0.0       0.0       0.0      99.9       0.0
10 O  px              0.0       0.0       0.0       0.0       0.0       0.1
10 O  dxz             0.0       0.0       0.0       0.0       0.0       0.1
10 O  dx2y2           0.0       0.0       0.0       0.0       0.0       0.1
11 O  s               0.0       0.0       0.0      99.9       0.0       0.0
12 O  s               0.0      99.9       0.0       0.0       0.0       0.0
13 O  s              99.9       0.0       0.0       0.0       0.0       0.0

                      6         7         8         9        10        11   
                 -10.10286 -10.10166 -10.09372 -10.09180  -1.05331  -1.02113
                   2.00000   2.00000   2.00000   2.00000   2.00000   2.00000
                  --------  --------  --------  --------  --------  --------
 0 C  s               0.0       0.0      99.4       0.0       4.8       0.1
 0 C  pz              0.0       0.0       0.0       0.0       1.1       0.1
 0 C  px              0.0       0.0       0.0       0.0       2.6       1.1
 0 C  py              0.0       0.0       0.0       0.0       0.2       0.6
 0 C  dxz             0.0       0.0       0.0       0.0       0.1       0.0
 0 C  dx2y2           0.0       0.0       0.0       0.0       0.2       0.0
 1 C  s              99.1       0.2       0.0       0.0       3.0       4.6
 1 C  pz              0.0       0.0       0.0       0.0       0.4       2.0
 1 C  px              0.0       0.0       0.0       0.0       0.9       0.0
 1 C  py              0.0       0.1       0.0       0.0       0.2       0.3
 1 C  dz2             0.0       0.0       0.0       0.0       0.1       0.2
 2 H  s               0.0       0.0       0.0       0.0       0.2       0.3
 3 C  s               0.2      99.1       0.0       0.0       1.8       5.5
 3 C  pz              0.0       0.0       0.0       0.0       0.1       2.5
 3 C  px              0.0       0.0       0.0       0.1       0.1       0.2
 3 C  py              0.1       0.0       0.0       0.0       0.5       0.0
 3 C  dz2             0.0       0.0       0.0       0.0       0.0       0.3
 4 H  s               0.0       0.0       0.0       0.0       0.1       0.4
 5 C  s               0.0       0.0       0.0      99.3       3.5       0.1
 5 C  pz              0.0       0.0       0.0       0.0       0.2       0.0
 5 C  px              0.0       0.1       0.0       0.0       0.0       1.7
 5 C  py              0.0       0.0       0.0       0.0       1.4       0.4
 6 H  s               0.0       0.0       0.0       0.0       0.2       0.0
 7 C  s               0.0       0.0       0.0       0.0      10.8       2.7
 7 C  pz              0.0       0.0       0.0       0.0       1.5       0.4
 7 C  px              0.0       0.0       0.0       0.0       0.1       1.0
 7 C  py              0.0       0.0       0.0       0.1       1.4       0.8
 7 C  dz2             0.0       0.0       0.0       0.0       0.1       0.0
 8 H  s               0.0       0.0       0.0       0.0       0.7       0.2
 9 O  s               0.0       0.0       0.0       0.0      25.0       3.3
 9 O  pz              0.0       0.0       0.0       0.0       0.3       0.1
 9 O  px              0.0       0.0       0.1       0.0       0.0       0.3
 9 O  py              0.0       0.0       0.0       0.0       1.3       0.2
 9 O  dz2             0.0       0.0       0.0       0.0       0.3       0.0
 9 O  dxz             0.0       0.0       0.1       0.0       0.0       0.0
 9 O  dx2y2           0.0       0.0       0.1       0.0       0.1       0.0
 9 O  dxy             0.0       0.0       0.0       0.0       0.2       0.4
10 O  s               0.0       0.0       0.0       0.0      13.2       9.7
10 O  px              0.0       0.0       0.0       0.0       1.5       0.6
10 O  dz2             0.0       0.0       0.0       0.0       0.1       0.0
10 O  dx2y2           0.0       0.0       0.0       0.0       0.4       0.1
11 O  s               0.0       0.0       0.0       0.0       4.5       0.3
11 O  pz              0.0       0.0       0.0       0.1       0.3       0.0
11 O  dz2             0.0       0.0       0.0       0.3       0.0       0.0
12 O  s               0.0       0.0       0.0       0.0       1.9      24.6
12 O  pz              0.0       0.1       0.0       0.0       0.1       0.7
12 O  px              0.0       0.0       0.0       0.0       0.0       0.5
12 O  dz2             0.0       0.3       0.0       0.0       0.0       0.1
13 O  s               0.0       0.0       0.0       0.0       6.4      20.4
13 O  pz              0.1       0.0       0.0       0.0       0.4       0.6
13 O  px              0.0       0.0       0.0       0.0       0.1       0.2
13 O  py              0.0       0.0       0.0       0.0       0.0       0.1
13 O  dz2             0.3       0.0       0.0       0.0       0.0       0.1
14 H  s               0.0       0.0       0.0       0.0       0.3       0.0
15 H  s               0.0       0.0       0.0       0.0       0.3       0.0
16 H  s               0.0       0.0       0.0       0.0       2.3       1.5
16 H  pz              0.0       0.0       0.0       0.0       0.4       0.3
17 H  s               0.0       0.0       0.0       0.0       0.9       0.2
18 H  s               0.0       0.0       0.0       0.0       0.3       4.3
18 H  pz              0.0       0.0       0.0       0.0       0.0       0.1
18 H  px              0.0       0.0       0.0       0.0       0.0       0.7
19 H  s               0.0       0.0       0.0       0.0       1.3       3.4
19 H  px              0.0       0.0       0.0       0.0       0.1       0.2
19 H  py              0.0       0.0       0.0       0.0       0.2       0.5

                     12        13        14        15        16        17   
                  -1.01300  -0.99929  -0.97813  -0.75059  -0.71986  -0.63395
                   2.00000   2.00000   2.00000   2.00000   2.00000   2.00000
                  --------  --------  --------  --------  --------  --------
 0 C  s               0.3       1.7       2.6       3.6      13.8       9.4
 0 C  pz              0.5       0.2       0.3       0.0       0.1       0.5
 0 C  px              0.1       1.1       2.5       1.6       1.2       0.4
 0 C  py              0.0       0.0       0.1       2.2       0.1       0.9
 0 C  dxz             0.0       0.1       0.1       0.0       0.0       0.0
 0 C  dx2y2           0.0       0.1       0.1       0.1       0.0       0.0
 1 C  s               2.4       0.1       0.2      12.1       4.5       2.3
 1 C  pz              5.6       0.1       1.2       2.4       1.9       0.4
 1 C  px              0.1       0.0       0.3       0.8       0.1       0.4
 1 C  py              1.3       0.2       0.1       0.8       2.3       8.5
 1 C  dz2             0.4       0.0       0.1       0.1       0.0       0.0
 1 C  dxy             0.0       0.0       0.0       0.0       0.1       0.1
 2 H  s               0.2       0.0       0.0       2.1       1.1       1.0
 2 H  px              0.0       0.0       0.0       0.2       0.1       0.1
 3 C  s               3.3       0.0       0.0      13.3       1.0       4.5
 3 C  pz              5.8       1.4       0.1       1.9       0.1       1.0
 3 C  px              0.2       0.8       0.2       0.1       3.7       4.9
 3 C  py              0.9       0.0       0.0       2.4       0.5       0.1
 3 C  dz2             0.4       0.0       0.0       0.2       0.0       0.0
 4 H  s               0.2       0.0       0.0       2.0       0.2       2.2
 4 H  py              0.0       0.0       0.0       0.1       0.0       0.1
 5 C  s               0.7       5.9       0.6       6.5       8.4       6.5
 5 C  pz              0.2       8.5       1.0       1.8       2.3       0.7
 5 C  px              0.1       0.1       0.2       2.1       0.0       3.9
 5 C  py              0.0       0.1       0.0       0.0       0.4       0.0
 5 C  dz2             0.0       0.7       0.1       0.1       0.1       0.0
 6 H  s               0.1       0.4       0.0       1.1       1.8       3.0
 6 H  py              0.0       0.0       0.0       0.1       0.1       0.2
 7 C  s               0.4       0.1       0.4       0.4       8.1       0.8
 7 C  pz              0.1       0.4       0.4       0.0       0.0       0.3
 7 C  px              0.3       0.7      11.6       0.4       1.4       0.1
 7 C  py              0.1       2.5       0.4       2.8       0.9       7.1
 7 C  dxz             0.0       0.0       0.4       0.0       0.1       0.0
 7 C  dyz             0.0       0.0       0.0       0.0       0.0       0.1
 7 C  dx2y2           0.0       0.0       0.3       0.0       0.1       0.0
 7 C  dxy             0.0       0.1       0.3       0.1       0.0       0.1
 8 H  s               0.0       0.0       0.0       0.1       1.7       0.5
 8 H  pz              0.0       0.0       0.0       0.0       0.2       0.0
 9 O  s               0.1      10.2      17.3       2.9       0.1       2.8
 9 O  pz              0.0       0.2       0.3       0.1       0.1       0.6
 9 O  px              0.2       0.2       1.1       0.7       8.9       5.4
 9 O  py              0.0       0.2       0.2       0.2       2.1       0.2
 9 O  dz2             0.0       0.0       0.1       0.2       0.0       0.1
 9 O  dxz             0.0       0.0       0.0       0.1       1.0       0.3
 9 O  dx2y2           0.0       0.1       0.1       0.0       1.8       0.2
 9 O  dxy             0.1       0.0       0.2       0.1       0.5       0.1
10 O  s               2.2       0.4      33.0       0.0       3.0       0.1
10 O  pz              0.0       0.0       0.2       0.0       1.6       0.2
10 O  px              0.1       0.0       0.7       0.0       2.2       0.0
10 O  py              0.0       0.0       0.2       0.1       0.0       0.8
10 O  dz2             0.0       0.0       0.1       0.0       0.3       0.0
10 O  dxz             0.0       0.1       0.0       0.0       0.3       0.0
10 O  dx2y2           0.0       0.0       0.0       0.0       0.3       0.0
10 O  dxy             0.0       0.2       0.0       0.2       0.1       0.7
11 O  s               0.5      47.3       6.3       2.2       2.2       0.4
11 O  pz              0.1       0.9       0.1       1.9       2.8       4.6
11 O  px              0.0       0.9       0.2       0.0       0.1       1.3
11 O  py              0.0       0.3       0.0       0.1       0.0       0.1
11 O  dz2             0.0       0.2       0.0       0.6       0.8       0.8
11 O  dxz             0.0       0.0       0.0       0.3       0.1       0.1
12 O  s              30.4       2.0       0.3       4.3       0.1       0.6
12 O  pz              0.7       0.0       0.0       4.3       0.5       1.9
12 O  px              0.6       0.1       0.0       1.0       0.6       0.1
12 O  py              0.0       0.0       0.0       0.7       0.0       0.1
12 O  dz2             0.1       0.0       0.0       1.0       0.2       0.5
12 O  dxz             0.0       0.0       0.0       0.0       0.2       0.4
12 O  dyz             0.0       0.0       0.0       0.4       0.0       0.0
13 O  s              27.0       0.0       5.7       3.2       1.4       0.2
13 O  pz              0.6       0.0       0.1       3.6       1.4       1.7
13 O  px              0.3       0.0       0.0       0.1       0.0       0.3
13 O  py              0.3       0.0       0.0       1.0       0.0       3.4
13 O  dz2             0.1       0.1       0.0       1.2       0.5       0.1
13 O  dxz             0.0       0.0       0.0       0.1       0.0       0.0
13 O  dyz             0.0       0.0       0.0       0.2       0.1       0.5
13 O  dxy             0.0       0.1       0.0       0.0       0.0       0.2
14 H  s               0.0       0.1       0.2       0.7       2.5       3.0
14 H  pz              0.0       0.0       0.0       0.1       0.2       0.2
15 H  s               0.0       0.1       0.2       0.5       3.4       3.9
15 H  py              0.0       0.0       0.0       0.0       0.2       0.2
16 H  s               0.4       0.2       5.3       0.0       1.3       0.0
16 H  pz              0.1       0.0       1.3       0.0       0.2       0.0
17 H  s               0.0       7.9       0.9       0.8       0.8       1.3
17 H  pz              0.0       0.4       0.1       0.0       0.0       0.0
17 H  px              0.0       1.1       0.2       0.1       0.2       0.1
17 H  py              0.0       0.3       0.0       0.0       0.0       0.0
18 H  s               5.2       0.3       0.1       2.2       0.3       0.2
18 H  pz              0.1       0.0       0.0       0.0       0.0       0.0
18 H  px              1.0       0.1       0.0       0.4       0.0       0.1
19 H  s               4.6       0.0       0.9       1.5       0.3       1.3
19 H  px              0.3       0.0       0.1       0.1       0.0       0.1
19 H  py              0.7       0.0       0.1       0.2       0.1       0.1

                     18        19        20        21        22        23   
                  -0.62248  -0.56987  -0.52457  -0.50216  -0.49509  -0.47997
                   2.00000   2.00000   2.00000   2.00000   2.00000   2.00000
                  --------  --------  --------  --------  --------  --------
 0 C  s               0.1       1.7       0.3       0.2       0.2       0.8
 0 C  pz              0.4       2.2       0.1       0.0       0.4      23.2
 0 C  px              2.8       0.1       0.2       1.1       4.4       0.3
 0 C  py              2.3       0.0       7.8       0.0       0.4       0.0
 0 C  dxz             0.1       0.0       0.0       0.0       0.0       0.0
 1 C  s               5.6       1.8       0.1       0.5       0.2       0.6
 1 C  pz              0.4       1.6       2.2       0.1       9.3       0.2
 1 C  px              1.8       2.2       3.5       6.6       0.1       2.1
 1 C  py              0.5       0.1       0.5       2.1       0.1       1.9
 1 C  dz2             0.0       0.0       0.0       0.1       0.3       0.1
 2 H  s               3.1       1.3       0.2       2.5       0.9       0.2
 2 H  px              0.2       0.1       0.0       0.1       0.1       0.0
 3 C  s               5.1       1.8       0.6       0.7       0.7       0.1
 3 C  pz              0.2       1.2       1.5      15.0       0.1       0.2
 3 C  px              2.3       0.1       0.7       0.8       3.3       0.4
 3 C  py              2.7       0.1       7.4       0.3       0.4       0.4
 3 C  dz2             0.0       0.0       0.0       0.4       0.0       0.0
 4 H  s               2.0       0.3       3.8       2.7       1.5       0.5
 4 H  py              0.1       0.0       0.1       0.2       0.0       0.0
 5 C  s               0.9       3.3       0.0       0.1       0.0       0.0
 5 C  pz              0.0       1.7       0.4       0.2       5.0       0.1
 5 C  px              3.0       2.6       0.2       2.7       0.1       0.0
 5 C  py              3.6       0.5       7.2       1.3       0.6       0.3
 5 C  dxz             0.0       0.0       0.0       0.1       0.0       0.0
 5 C  dx2y2           0.1       0.0       0.0       0.0       0.0       0.0
 6 H  s               0.4       1.8       1.1       0.6       0.1       0.0
 7 C  s               8.9       1.7       0.0       0.1       0.1       0.1
 7 C  pz              1.3       4.3       2.7       0.1       3.7       1.9
 7 C  px              0.1       1.1       8.6       0.0       0.2       4.7
 7 C  py              0.0       0.4       0.7       0.7       4.1       1.0
 7 C  dx2y2           0.0       0.1       0.0       0.1       0.0       0.1
 7 C  dxy             0.0       0.0       0.0       0.0       0.0       0.1
 8 H  s               3.7       2.8       0.8       0.1       1.5       0.7
 8 H  pz              0.3       0.2       0.1       0.0       0.1       0.0
 9 O  s               1.7       1.7       0.6       0.7       0.1       0.3
 9 O  pz              0.3       1.4       1.0       0.2       1.8      10.5
 9 O  px              4.9       0.0       0.5       2.2       6.3       4.6
 9 O  py              3.1       0.1       7.7       0.3       0.2       1.1
 9 O  dz2             0.1       0.0       0.0       0.0       0.0       0.9
 9 O  dxz             0.1       0.0       0.0       0.0       0.0       0.9
 9 O  dyz             0.2       0.2       0.0       0.0       0.1       0.3
 9 O  dx2y2           0.0       0.2       0.7       0.0       0.3       0.2
 9 O  dxy             0.2       0.1       0.6       0.0       0.0       0.0
10 O  s               1.9       0.0       0.1       0.1       0.2       0.0
10 O  pz              6.7       6.1      14.4       0.4       0.4       8.9
10 O  px              4.5       0.7       1.2       0.0       2.5       3.1
10 O  py              0.0       0.2       0.1       0.1       0.6       0.1
10 O  dz2             0.1       0.1       0.0       0.0       0.2       0.1
10 O  dxz             0.4       0.3       0.2       0.0       0.1       0.1
10 O  dyz             0.1       0.1       0.0       0.0       0.0       0.1
10 O  dx2y2           0.4       0.0       0.1       0.0       0.1       0.0
10 O  dxy             0.1       0.0       0.0       0.0       0.1       0.1
11 O  s               0.4       0.3       0.1       1.3       0.0       0.0
11 O  pz              0.6      12.2       0.9       0.1       6.9       0.3
11 O  px              0.0       3.8       0.1       3.7       2.2       0.5
11 O  py              0.2       0.6       2.8       0.5       0.8       0.4
11 O  dz2             0.0       0.4       0.0       0.0       0.0       0.0
11 O  dxz             0.2       0.0       0.0       0.2       0.0       0.0
11 O  dyz             0.2       0.0       0.4       0.0       0.0       0.0
11 O  dx2y2           0.1       0.0       0.0       0.1       0.1       0.0
12 O  s               0.3       0.1       0.1       0.6       0.9       0.1
12 O  pz              4.8       6.0       0.2      13.0       0.6       0.1
12 O  px              2.2       3.1       0.2      17.5       3.5       0.4
12 O  py              0.0       1.1       1.5       2.9       0.0       0.0
12 O  dz2             0.8       0.2       0.2       0.2       0.1       0.0
12 O  dxz             0.1       0.0       0.0       0.0       0.3       0.0
12 O  dyz             0.0       0.0       0.4       0.0       0.0       0.0
12 O  dx2y2           0.0       0.2       0.1       0.1       0.0       0.0
12 O  dxy             0.0       0.0       0.0       0.2       0.1       0.0
13 O  s               0.3       0.1       0.3       0.1       0.2       2.7
13 O  pz              3.7       6.4       0.9       1.0       8.3       2.6
13 O  px              0.8       1.9       2.7       3.7       2.0       3.2
13 O  py              0.8       2.0       2.2       0.3      12.4       2.7
13 O  dz2             0.7       0.3       0.0       0.2       0.1       0.0
13 O  dxz             0.1       0.0       0.1       0.4       0.0       0.2
13 O  dyz             0.0       0.0       0.0       0.2       0.1       0.2
13 O  dx2y2           0.0       0.0       0.1       0.0       0.1       0.0
13 O  dxy             0.0       0.0       0.0       0.1       0.3       0.1
14 H  s               0.2       2.0       0.0       0.1       0.2      10.4
14 H  pz              0.0       0.1       0.0       0.0       0.0       0.4
15 H  s               0.0       0.6       1.9       0.0       0.2       0.0
15 H  pz              0.0       0.0       0.0       0.0       0.0       0.1
16 H  s               2.8       1.5       3.7       0.1       0.4       2.8
16 H  pz              0.3       0.1       0.2       0.0       0.0       0.1
17 H  s               0.1       4.2       0.4       0.5       2.2       0.2
17 H  px              0.0       0.3       0.0       0.0       0.1       0.0
18 H  s               1.5       2.5       0.1       8.3       0.2       0.1
18 H  px              0.1       0.2       0.0       0.3       0.0       0.0
19 H  s               1.2       2.0       1.1       0.2       5.4       0.4
19 H  px              0.0       0.0       0.0       0.0       0.1       0.0
19 H  py              0.1       0.1       0.0       0.0       0.1       0.0

                     24        25        26        27        28        29   
                  -0.45902  -0.44971  -0.44076  -0.41814  -0.39122  -0.38014
                   2.00000   2.00000   2.00000   2.00000   2.00000   2.00000
                  --------  --------  --------  --------  --------  --------
 0 C  s               1.0       0.2       0.6       0.2       0.3       0.4
 0 C  pz              0.5       0.4       2.2       2.1       2.2       0.1
 0 C  px              9.9       1.5       0.3       0.2       0.3       4.9
 0 C  py              1.5       7.8       1.5       0.8       5.9       8.5
 0 C  dz2             0.0       0.0       0.0       0.0       0.1       0.0
 0 C  dxz             0.2       0.0       0.0       0.1       0.0       0.1
 0 C  dx2y2           0.1       0.0       0.0       0.0       0.0       0.3
 0 C  dxy             0.1       0.0       0.1       0.1       0.0       0.0
 1 C  s               0.2       0.3       1.2       0.3       0.0       0.1
 1 C  pz              1.8       0.1       3.1       3.3       0.0       0.7
 1 C  px              0.1       6.8       4.1       2.7       3.9       5.9
 1 C  py              6.0       0.3       1.6       5.6       0.1       2.9
 1 C  dz2             0.1       0.0       0.2       0.0       0.1       0.0
 1 C  dyz             0.1       0.0       0.0       0.0       0.0       0.0
 1 C  dx2y2           0.0       0.0       0.0       0.1       0.0       0.2
 1 C  dxy             0.0       0.0       0.0       0.1       0.0       0.2
 2 H  s               0.4       2.3       5.4       3.7       2.0       3.1
 2 H  px              0.0       0.0       0.2       0.1       0.0       0.0
 3 C  s               0.1       0.3       0.3       0.2       0.1       0.3
 3 C  pz              1.8       0.1       0.9       0.1       0.0       0.0
 3 C  px              8.9       2.9       1.0       1.5       0.5       1.0
 3 C  py              2.0       4.2       0.8      10.7       0.4       6.9
 3 C  dz2             0.0       0.0       0.2       0.0       0.0       0.0
 3 C  dx2y2           0.0       0.0       0.1       0.2       0.0       0.0
 3 C  dxy             0.1       0.1       0.0       0.1       0.0       0.1
 4 H  s               0.1       2.8       0.1       5.2       0.2       0.9
 4 H  pz              0.0       0.1       0.0       0.1       0.0       0.0
 5 C  s               0.4       0.1       0.9       1.5       0.3       0.1
 5 C  pz              0.1       3.4       5.6       0.7       6.3       0.8
 5 C  px              7.0       2.2       0.1       0.5       6.3       1.1
 5 C  py              0.3       5.0       7.9       0.1       7.5       0.6
 5 C  dz2             0.1       0.2       0.0       0.0       0.3       0.0
 5 C  dxz             0.0       0.1       0.1       0.0       0.0       0.0
 5 C  dxy             0.0       0.1       0.1       0.0       0.1       0.1
 6 H  s               0.0       0.0       5.6       0.9      10.3       1.0
 6 H  px              0.0       0.0       0.1       0.0       0.1       0.0
 6 H  py              0.0       0.0       0.1       0.0       0.1       0.0
 7 C  s               0.1       1.1       0.3       0.9       0.3       0.3
 7 C  pz              3.6       2.4       7.3       2.4       6.2       3.0
 7 C  px              0.7       0.8       0.7       1.5       0.9       0.1
 7 C  py              4.0       6.8       0.1       0.1       0.3       0.2
 7 C  dz2             0.0       0.0       0.0       0.1       0.2       0.1
 7 C  dx2y2           0.0       0.1       0.0       0.0       0.0       0.4
 8 H  s               1.8       0.0       2.4       2.6       4.5       2.3
 9 O  s               0.1       0.1       0.4       1.7       0.0       0.6
 9 O  pz              1.7       2.0       0.0       0.9       0.4       1.3
 9 O  px             10.4       0.1       0.2       0.1       0.1       8.1
 9 O  py              0.8       0.5       0.0       8.0       0.9       7.4
 9 O  dz2             0.2       0.0       0.1       0.0       0.0       0.0
 9 O  dxz             0.2       0.1       0.8       0.2       0.5       0.2
[...]
 6 H  py              0.0       0.0       0.1       0.0       0.0       0.0
 7 C  s               0.0       0.1       0.0       2.9      30.3       0.1
 7 C  pz              0.0       0.6       0.0       0.0       0.0       0.0
 7 C  px              0.0       1.6       0.2       0.0       0.0       0.0
 7 C  dz2             0.0       0.7       0.0       0.0       0.0       0.0
 7 C  dxz             0.0       0.8       0.1       0.0       0.0       0.0
 7 C  dx2y2           0.0       0.9       0.1       0.0       0.0       0.0
 7 C  dxy             0.0       0.1       0.0       0.0       0.0       0.0
 8 H  s               0.0       0.2       0.0       0.0       0.0       0.0
 8 H  pz              0.0       0.3       0.0       0.0       0.0       0.0
 9 O  py              0.1       0.0       0.0       0.0       0.0       0.0
10 O  s               0.1       4.6       0.4       0.0       0.0       0.0
10 O  pz              0.0      17.0       1.7       0.0       0.0       0.0
10 O  px              0.0       1.6       0.1       0.0       0.0       0.0
10 O  py              0.0       0.6       0.1       0.0       0.0       0.0
10 O  dz2             0.1      24.5       2.2       0.0       0.0       0.0
10 O  dxz             0.0       2.7       0.3       0.0       0.0       0.0
10 O  dyz             0.0       6.9       0.6       0.0       0.0       0.0
10 O  dx2y2           0.0       2.1       0.2       0.0       0.0       0.0
11 O  s               0.1       0.9       6.9       0.0       0.0       0.0
11 O  pz              0.2       0.3       5.7       0.0       0.0       0.0
11 O  px              0.2       0.5       7.9       0.0       0.0       0.0
11 O  py              0.0       0.3       1.8       0.0       0.0       0.0
11 O  dz2             0.2       0.3       4.7       0.0       0.0       0.0
11 O  dxz             0.1       0.7       7.8       0.0       0.0       0.0
11 O  dyz             0.1       0.3       2.2       0.0       0.0       0.0
11 O  dx2y2           0.1       0.5       3.9       0.0       0.0       0.0
11 O  dxy             0.1       0.6       8.9       0.0       0.0       0.0
12 O  s               4.1       0.0       0.0       0.0       0.0       0.0
12 O  pz              4.7       0.0       0.2       0.0       0.0       0.0
12 O  px              9.1       0.0       0.3       0.0       0.0       0.0
12 O  py              1.1       0.0       0.1       0.0       0.0       0.0
12 O  dz2             9.2       0.0       0.3       0.0       0.0       0.0
12 O  dxz             3.4       0.0       0.0       0.0       0.0       0.0
12 O  dx2y2          10.1       0.0       0.2       0.0       0.0       0.0
12 O  dxy             3.3       0.0       0.1       0.0       0.0       0.0
13 O  s               2.5       0.2       1.1       0.0       0.0       0.0
13 O  pz              0.9       0.0       0.3       0.0       0.0       0.0
13 O  px              1.6       0.1       0.8       0.0       0.0       0.0
13 O  py              3.4       0.4       1.9       0.0       0.0       0.0
13 O  dz2             4.1       0.3       1.6       0.0       0.0       0.0
13 O  dxz             0.2       0.0       0.1       0.0       0.0       0.0
13 O  dyz             0.2       0.0       0.3       0.0       0.0       0.0
13 O  dx2y2           0.6       0.1       0.3       0.0       0.0       0.0
13 O  dxy             6.3       0.7       3.6       0.0       0.0       0.0
16 H  s               0.0      11.3       1.1       0.0       0.0       0.0
16 H  pz              0.0      12.7       1.2       0.0       0.0       0.0
16 H  py              0.0       1.0       0.1       0.0       0.0       0.0
17 H  s               0.2       0.8       9.5       0.0       0.0       0.0
17 H  pz              0.0       0.2       1.8       0.0       0.0       0.0
17 H  px              0.1       0.9       8.2       0.0       0.0       0.0
17 H  py              0.0       0.2       2.2       0.0       0.0       0.0
18 H  s               9.1       0.0       0.2       0.0       0.0       0.0
18 H  pz              0.7       0.0       0.0       0.0       0.0       0.0
18 H  px              9.0       0.0       0.2       0.0       0.0       0.0
18 H  py              0.6       0.0       0.0       0.0       0.0       0.0
19 H  s               3.9       0.3       1.9       0.0       0.0       0.0
19 H  pz              0.2       0.0       0.0       0.0       0.0       0.0
19 H  px              1.5       0.1       0.7       0.0       0.0       0.0
19 H  py              2.9       0.3       1.9       0.0       0.0       0.0

                    258       259       260       261       262       263   
                  22.31802  22.38928  43.73213  43.79047  43.82372  43.89925
                   0.00000   0.00000   0.00000   0.00000   0.00000   0.00000
                  --------  --------  --------  --------  --------  --------
 0 C  s               0.1       6.7       0.0       0.0       0.0       0.0
 1 C  s               4.5      14.0       0.0       0.0       0.1       0.0
 3 C  s              24.1       0.2       0.0       0.1       0.0       0.0
 5 C  s               6.6      76.5       0.0       0.0       0.0       0.1
 7 C  s              64.1       2.2       0.0       0.0       0.0       0.0
 9 O  s               0.1       0.0       1.7      22.1       6.5       1.8
10 O  s               0.1       0.0      56.9       4.4      18.9      19.2
11 O  s               0.0       0.0      19.1       0.6       0.5      77.6
12 O  s               0.0       0.0       1.8      72.5       8.3       0.3
13 O  s               0.0       0.0      20.3       0.1      65.6       0.9

                    264   
                  43.93904
                   0.00000
                  --------
 9 O  s              67.8
10 O  s               0.4
11 O  s               2.0
12 O  s              16.8
13 O  s              12.8


                      *****************************
                      * MAYER POPULATION ANALYSIS *
                      *****************************

  NA   - Mulliken gross atomic population
  ZA   - Total nuclear charge
  QA   - Mulliken gross atomic charge
  VA   - Mayer's total valence
  BVA  - Mayer's bonded valence
  FA   - Mayer's free valence

  ATOM       NA         ZA         QA         VA         BVA        FA
  0 C      6.2388     6.0000    -0.2388     3.6870     3.6870    -0.0000
  1 C      5.9948     6.0000     0.0052     3.5419     3.5419     0.0000
  2 H      0.8422     1.0000     0.1578     0.9566     0.9566     0.0000
  3 C      6.0717     6.0000    -0.0717     3.7124     3.7124    -0.0000
  4 H      0.8447     1.0000     0.1553     0.9505     0.9505    -0.0000
  5 C      5.9506     6.0000     0.0494     3.6481     3.6481    -0.0000
  6 H      0.8401     1.0000     0.1599     0.9560     0.9560    -0.0000
  7 C      6.0933     6.0000    -0.0933     4.0014     4.0014    -0.0000
  8 H      0.8482     1.0000     0.1518     0.9495     0.9495    -0.0000
  9 O      8.2333     8.0000    -0.2333     1.6915     1.6915     0.0000
 10 O      8.3742     8.0000    -0.3742     1.9202     1.9202     0.0000
 11 O      8.4307     8.0000    -0.4307     1.8169     1.8169    -0.0000
 12 O      8.4110     8.0000    -0.4110     1.8440     1.8440    -0.0000
 13 O      8.4487     8.0000    -0.4487     1.7901     1.7901    -0.0000
 14 H      0.8330     1.0000     0.1670     0.9577     0.9577    -0.0000
 15 H      0.8347     1.0000     0.1653     0.9502     0.9502    -0.0000
 16 H      0.6739     1.0000     0.3261     0.9055     0.9055     0.0000
 17 H      0.6721     1.0000     0.3279     0.9087     0.9087    -0.0000
 18 H      0.7022     1.0000     0.2978     0.9121     0.9121    -0.0000
 19 H      0.6620     1.0000     0.3380     0.8983     0.8983     0.0000

  Mayer bond orders larger than 0.100000
B(  0-C ,  1-C ) :   0.8919 B(  0-C ,  9-O ) :   0.9066 B(  0-C , 14-H ) :   0.9674 
B(  0-C , 15-H ) :   0.9597 B(  1-C ,  2-H ) :   0.9711 B(  1-C ,  3-C ) :   0.8785 
B(  1-C , 13-O ) :   0.9350 B(  3-C ,  4-H ) :   0.9759 B(  3-C ,  5-C ) :   0.9389 
B(  3-C , 12-O ) :   0.9440 B(  5-C ,  6-H ) :   0.9408 B(  5-C ,  7-C ) :   0.9079 
B(  5-C , 11-O ) :   0.9777 B(  7-C ,  8-H ) :   0.9931 B(  7-C ,  9-O ) :   0.9079 
B(  7-C , 10-O ) :   1.1534 B( 10-O , 16-H ) :   0.8437 B( 11-O , 17-H ) :   0.8370 
B( 12-O , 18-H ) :   0.8976 B( 13-O , 19-H ) :   0.8438 

-------
TIMINGS
-------

Total SCF time: 0 days 0 hours 0 min 41 sec 

Total time                  ....      41.962 sec
Sum of individual times     ....      41.913 sec  ( 99.9%)

SCF preparation             ....       0.061 sec  (  0.1%)
Fock matrix formation       ....      41.347 sec  ( 98.5%)
  Startup                   ....       0.011 sec  (  0.0% of F)
  Split-RI-J                ....       8.460 sec  ( 20.5% of F)
  XC integration            ....      32.810 sec  ( 79.4% of F)
    XC Preparation          ....       0.000 sec  (  0.0% of XC)
    Basis function eval.    ....       5.269 sec  ( 16.1% of XC)
    Density eval.           ....      13.180 sec  ( 40.2% of XC)
    XC-Functional eval.     ....       2.258 sec  (  6.9% of XC)
    XC-Potential eval.      ....      11.590 sec  ( 35.3% of XC)
Diagonalization             ....       0.000 sec  (  0.0%)
Density matrix formation    ....       0.037 sec  (  0.1%)
Total Energy calculation    ....       0.003 sec  (  0.0%)
Population analysis         ....       0.163 sec  (  0.4%)
Orbital Transformation      ....       0.030 sec  (  0.1%)
Orbital Orthonormalization  ....       0.000 sec  (  0.0%)
DIIS solution               ....       0.230 sec  (  0.5%)
  MO trafo                  ....       0.000 sec  (  0.0 % of DIIS)
  Orb grad                  ....       0.000 sec  (  0.0 % of DIIS)
  Energy W gradient         ....       0.000 sec  (  0.0 % of DIIS)
  DIIS error                ....       0.037 sec  ( 16.0 % of DIIS)
  DIIS work                 ....       0.174 sec  ( 75.6 % of DIIS)
  Form Q                    ....       0.000 sec  (  0.0 % of DIIS)
  Form QpQm                 ....       0.000 sec  (  0.0 % of DIIS)
  Exp/Cayley                ....       0.000 sec  (  0.0 % of DIIS)
  Orb update                ....       0.000 sec  (  0.0 % of DIIS)
  Wake-sleep                ....       0.001 sec  (  0.6 % of DIIS)
SOSCF solution              ....       0.041 sec  (  0.1%)
  MO trafo                  ....       0.035 sec  ( 85.3 % of SOSCF)
  Orb grad                  ....       0.000 sec  (  0.3 % of SOSCF)
  Rot update                ....       0.000 sec  (  0.1 % of SOSCF)
  Step                      ....       0.006 sec  ( 13.7 % of SOSCF)
Finished LeanSCF after  42.0 sec

Maximum memory used throughout the entire LEANSCF-calculation: 31.9 MB


-------------------------------------------------------------------------------
                          DFT DISPERSION CORRECTION                            
                                                                               
                                DFTD4 V3.4.0                                   
-------------------------------------------------------------------------------
The R2SCAN3C composite method is recognized
Using three-body term ABC
Active option DFTDOPT                   ...         5   

-------------------------   ----------------
Dispersion correction           -0.006549205
-------------------------   ----------------

------------------   -----------------
gCP correction             0.017843956
------------------   -----------------

-------------------------   --------------------
FINAL SINGLE POINT ENERGY      -572.561760145331
-------------------------   --------------------


------------------------------------------------------------------------------
                              ORCA PROPERTY CALCULATIONS
------------------------------------------------------------------------------

GBWName                                 ... sp.gbw
Number of atoms                         ...     20
Number of basis functions               ...    265
Max core memory                         ...   1024 MB

Electric properties:
Dipole moment                           ... YES
Quadrupole moment                       ...  NO
Static polarizability (Dipole/Dipole)   ...  NO
Static polarizability (Dipole/Quad.)    ...  NO
Static polarizability (Quad./Quad.)     ...  NO
Static polarizability (Velocity)        ...  NO

Atomic electric properties:
Dipole moment                           ...  NO
Quadrupole moment                       ...  NO
Static polarizability                   ...  NO

Choice of electric origin               ... Center of mass
Position of electric origin             ...     0.000011    -0.000001    -0.000008

General magnetic properties:
Magnetizability                         ...  NO

EPR properties:
g-Tensor (aka g-matrix)                 ...  NO
Zero-Field splitting spin-orbit         ...  NO
Zero-field splitting spin-spin          ...  NO
Hyperfine couplings                     ...  NO (   0 nuclei)
Quadrupole couplings                    ...  NO (   0 nuclei)
Contact density                         ...  NO (   0 nuclei)

NMR properties:
Chemical shifts                         ...  NO (   0 nuclei)
Spin-rotation constants                 ...  NO (   0 nuclei)
Spin-spin couplings                     ...  NO (   0 nuclei,    0 pairs)

Choice of magnetic origin               ... GIAO
Position of magnetic origin             ...     0.000000     0.000000     0.000000

Properties with geometric perturbations:
SCF Hessian                             ...  NO
IR spectrum                             ...  NO
VCD spectrum                            ...  NO
X-ray spectroscopy properties:
SCF XES/XAS/RIXS spectra                ...  NO


-------------
DIPOLE MOMENT
-------------

Method             : SCF
Type of density    : Electron Density
Multiplicity       :   1
Irrep              :   0
Energy             :  -572.5730548959711541 Eh
Relativity type    : 
Basis              : AO
                                X                 Y                 Z
Electronic contribution:     -2.158678844       0.363005484       1.289329816
Nuclear contribution   :      3.470961275      -0.482748401      -1.650412924
                        -----------------------------------------
Total Dipole Moment    :      1.312282431      -0.119742917      -0.361083108
                        -----------------------------------------
Magnitude (a.u.)       :      1.366310564
Magnitude (Debye)      :      3.472885458



--------------------
Rotational spectrum 
--------------------
 
Rotational constants in cm-1:             0.057721             0.041943             0.039449 
Rotational constants in MHz :          1730.436548          1257.425411          1182.660319 

Dipole components along the rotational axes: 
x,y,z [a.u.] :    -1.351225     0.091990    -0.180368 
x,y,z [Debye]:    -3.434542     0.233820    -0.458458 

 

Dipole moment calculation done in   0.0 sec 

Maximum memory used throughout the entire PROP-calculation: 20.0 MB

--------------------------------
SUGGESTED CITATIONS FOR THIS RUN
--------------------------------

Below you find a list of papers that are relevant to this ORCA run
We neither can nor want to force you to cite these papers, but we appreciate if you do
You receive ORCA, which is the product of decades of hard work by many enthusiastic individuals, for free
The only thing we kindly ask in return is that you cite our papers,
We deeply appreciate it, if you show your appreciation for ORCA by not just citing the generic ORCA reference.

Please note that relegating all ORCA citations to the supporting information does *not* help us.
SI sections are not indexed - citations you put there will not count into any citation statistics
But we need these citations in order to attract the funding resources that allow us to do what we are doing

Therefore, if you are a happy ORCA user, please consider citing a few of the papers listed below in the main body of your paper

In addition to the list printed below, the program has created the file sp.bibtex that contains the list in bibtex format
You can import this file easily into all common literature databanks and citation aid programs


List of essential papers. We consider these as the minimum necessary citations

  1. Neese,F.
     Software update: the ORCA program system, version 5.0
     WIRES Comput. Molec. Sci., 2022 12(1)e1606
     doi.org/10.1002/wcms.1606
  2. Grimme,S.; Hansen,A.; Ehlert,S.; Mewes,J.
     r2SCAN-3c: A 'Swiss army knife' composite electronic-structure method
     J. Chem. Phys., 2021 154 064103
     doi.org/10.1063/5.0040021

List of papers to cite with high priority. The work reported in these papers was absolutely
necessary for this run to complete.
Our perspective: the developers of density functionals and basis sets usually get cited in chemistry papers
Good! But without the algorithms to do something with them, the functionals or basis sets would not do anything.
Hence, in our opinion, the algorithm design and method developments papers are equally worthy of getting cited

  1. Neese,F.
     An improvement of the resolution of the identity approximation for the formation of the Coulomb matrix
     J. Comp. Chem., 2003 24(14)1740-1747
     doi.org/10.1002/jcc.10318
  2. Neese,F.
     The SHARK Integral Generation and Digestion System
     J. Comp. Chem., 2022  1-16
     doi.org/10.1002/jcc.26942
  3. Lehtola,S.; Steigemann,C.; Oliveira,M.; Marques,M.
     Recent developments in Libxc - A comprehensive library of functionals for density functional theory
     Software X, 2018 7 
     doi.org/10.1016/j.softx.2017.11.002
  4. Caldeweyher,E.; Bannwarth,C.; Grimme,S.
     Extension of the D3 dispersion coefficient model
     J. Chem. Phys., 2017 147 034112
     doi.org/10.1063/1.4993215
  5. Caldeweyher,E.; Ehlert,S.; Hansen,A.; Neugebauer,H.; Spicher,S.; Bannwarth,C.; Grimme,S.
     A generally applicable atomic-charge dependent London dispersion correction
     J. Chem. Phys., 2019 150 154122
     doi.org/10.1063/1.5090222
  6. Caldeweyher,E.; Mewes,J.; Ehlert,S.; Grimme,S.
     Extension and evaluation of the D4 London-dispersion model for periodic systems
     Phys. Chem. Chem. Phys., 2020 22(16)8499-8512
     doi.org/10.1039/D0CP00502A
  7. Wittmann,L.; Gordiy,I.; Friede,M.; Helmich-Paris,B.; Grimme,S.; Hansen,A.; Bursch,M.
     Extension of the D3 and D4 London Dispersion Corrections to the full Actinides Series
     Phys. Chem. Chem. Phys., 2024 26(32)21379-21394
     doi.org/https://doi.org/10.1039/D4CP01514B 

List of suggested additional citations. These are papers that are important in the 'surrounding' of 
of this run, or papers that preceded the highly important papers. If you like your results we are grateful for a citation.

  1. Neese,F.
     The ORCA program system
     WIRES Comput. Molec. Sci., 2012 2(1)73-78
     doi.org/10.1002/wcms.81
  2. Neese,F.
     Software update: the ORCA program system, version 4.0
     WIRES Comput. Molec. Sci., 2018 8(1)1-6
     doi.org/10.1002/wcms.1327
  3. Neese,F.; Wennmohs,F.; Becker,U.; Riplinger,C.
     The ORCA quantum chemistry program package
     J. Chem. Phys., 2020 152 Art. No. L224108
     doi.org/10.1063/5.0004608

List of optional additional citations

  1. Neese,F.
     Approximate second-order SCF convergence for spin unrestricted wavefunctions
     Chem. Phys. Lett., 2000 325(1-3)93-98
     doi.org/10.1016/s0009-2614(00)00662-x

Timings for individual modules:

Sum of individual times          ...       43.412 sec (=   0.724 min)
Startup calculation              ...        1.230 sec (=   0.020 min)   2.8 %
SCF iterations                   ...       42.126 sec (=   0.702 min)  97.0 %
Property calculations            ...        0.057 sec (=   0.001 min)   0.1 %
                             ****ORCA TERMINATED NORMALLY****
TOTAL RUN TIME: 0 days 0 hours 0 minutes 43 seconds 541 msec
