      -----------------------------------------------------------      
     |                   =====================                   |     
     |                           x T B                           |     
     |                   =====================                   |     
     |                         S. Grimme                         |     
     |          Mulliken Center for Theoretical Chemistry        |     
     |                    University of Bonn                     |     
      -----------------------------------------------------------      

   * xtb version 6.7.1 (41059b4) compiled by 'michael@archlinux' on 2025-03-24

   xtb is free software: you can redistribute it and/or modify it under
   the terms of the GNU Lesser General Public License as published by
   the Free Software Foundation, either version 3 of the License, or
   (at your option) any later version.
   
   xtb is distributed in the hope that it will be useful,
   but WITHOUT ANY WARRANTY; without even the implied warranty of
   MERCHANTABILITY or FITNESS FOR A PARTICULAR PURPOSE.  See the
   GNU Lesser General Public License for more details.
   
   Cite this work as:
   * C. Bannwarth, E. Caldeweyher, S. Ehlert, A. Hansen, P. Pracht,
     J. Seibert, S. Spicher, S. Grimme, WIREs Comput. Mol. Sci., 2020, 11,
     e01493. DOI: 10.1002/wcms.1493
   
   for GFN2-xTB:
   * C. Bannwarth, S. Ehlert and S. Grimme., J. Chem. Theory Comput., 2019,
     15, 1652-1671. DOI: 10.1021/acs.jctc.8b01176
   for GFN1-xTB:
   * S. Grimme, C. Bannwarth, P. Shushkov, J. Chem. Theory Comput., 2017,
     13, 1989-2009. DOI: 10.1021/acs.jctc.7b00118
   for GFN0-xTB:
   * P. Pracht, E. Caldeweyher, S. Ehlert, S. Grimme, ChemRxiv, 2019, preprint.
     DOI: 10.26434/chemrxiv.8326202.v1
   for GFN-FF:
   * S. Spicher and S. Grimme, Angew. Chem. Int. Ed., 2020, 59, 15665-15673.
     DOI: 10.1002/anie.202004239
   
   for ALPB and GBSA implicit solvation:
   * S. Ehlert, M. Stahn, S. Spicher, S. Grimme, J. Chem. Theory Comput.,
     2021, 17, 4250-4261. DOI: 10.1021/acs.jctc.1c00471
   
   for ddCOSMO and CPCM-X implicit solvation:
   * M. Stahn, S. Ehlert, S. Grimme, J. Phys. Chem. A,
     2023, XX, XXXX-XXXX. DOI: 10.1021/acs.jpca.3c04382
   
   for DFT-D4:
   * E. Caldeweyher, C. Bannwarth and S. Grimme, J. Chem. Phys., 2017,
     147, 034112. DOI: 10.1063/1.4993215
   * E. Caldeweyher, S. Ehlert, A. Hansen, H. Neugebauer, S. Spicher,
     C. Bannwarth and S. Grimme, J. Chem. Phys., 2019, 150, 154122.
     DOI: 10.1063/1.5090222
   * E. Caldeweyher, J.-M. Mewes, S. Ehlert and S. Grimme, Phys. Chem. Chem. Phys.
     2020, 22, 8499-8512. DOI: 10.1039/D0CP00502A
   
   for sTDA-xTB:
   * S. Grimme and C. Bannwarth, J. Chem. Phys., 2016, 145, 054103.
     DOI: 10.1063/1.4959605
   
   in the mass-spec context:
   * V. Asgeirsson, C. Bauer and S. Grimme, Chem. Sci., 2017, 8, 4879.
     DOI: 10.1039/c7sc00601b
   * J. Koopman and S. Grimme, ACS Omega 2019, 4, 12, 15120-15133.
     DOI: 10.1021/acsomega.9b02011
   
   for metadynamics refer to:
   * S. Grimme, J. Chem. Theory Comput., 2019, 155, 2847-2862
     DOI: 10.1021/acs.jctc.9b00143
   
   for SPH calculations refer to:
   * S. Spicher and S. Grimme, J. Chem. Theory Comput., 2021, 17, 1701-1714
     DOI: 10.1021/acs.jctc.0c01306
   
   for ONIOM refer to:
   * C. Plett, A. Katbashev, S. Ehlert, S. Grimme, M. Bursch,
     Phys. Chem. Chem. Phys., 2023, 25, 17860-17868. DOI: 10.1039/D3CP02178E
   
   for DIPRO refer to:
   * J. Kohn, N. Gildemeister, S. Grimme, D. Fazzi, A. Hansen,
     J. Chem. Phys., 2023, just accepted.
   
   for PTB refer to:
   * S. Grimme, M. Mueller, A. Hansen, J. Chem. Phys., 2023, 158, 124111.
     DOI: 10.1063/5.0137838
   
   with help from (in alphabetical order)
   P. Atkinson, C. Bannwarth, F. Bohle, G. Brandenburg, E. Caldeweyher
   M. Checinski, S. Dohm, S. Ehlert, S. Ehrlich, I. Gerasimov, C. Hölzer
   A. Katbashev, J. Kohn, J. Koopman, C. Lavigne, S. Lehtola, F. März, M. Müller,
   F. Musil, H. Neugebauer, J. Pisarek, C. Plett, P. Pracht, F. Pultar,
   J. Seibert, P. Shushkov, S. Spicher, M. Stahn, M. Steiner, T. Strunk,
   J. Stückrath, T. Rose, and J. Unsleber
   
 * started run on 2025/04/09 at 06:08:45.260     
   ID    Z sym.   atoms
    1    6 C      1-6, 9-14
    2   17 Cl     7, 16-18
    3    8 O      8, 15
    4    1 H      19-22

           -------------------------------------------------
          |                Calculation Setup                |
           -------------------------------------------------

          program call               : /usr/bin/xtb xtb_rrho.coord --gfn2 --ohess vtight --chrg 0 --enso --norestart -I rrho-xcontrol-inp --parallel 1
          coordinate file            : xtb_rrho.coord
          omp threads                :                     1


           -------------------------------------------------
          |                 G F N 2 - x T B                 |
           -------------------------------------------------

        Reference                      10.1021/acs.jctc.8b01176
      * Hamiltonian:
        H0-scaling (s, p, d)           1.850000    2.230000    2.230000
        zeta-weighting                 0.500000
      * Dispersion:
        s8                             2.700000
        a1                             0.520000
        a2                             5.000000
        s9                             5.000000
      * Repulsion:
        kExp                           1.500000    1.000000
        rExp                           1.000000
      * Coulomb:
        alpha                          2.000000
        third order                    shell-resolved
        anisotropic                    true
        a3                             3.000000
        a5                             4.000000
        cn-shift                       1.200000
        cn-exp                         4.000000
        max-rad                        5.000000


          ...................................................
          :                      SETUP                      :
          :.................................................:
          :  # basis functions                 100          :
          :  # atomic orbitals                  96          :
          :  # shells                           44          :
          :  # electrons                        92          :
          :  max. iterations                   250          :
          :  Hamiltonian                  GFN2-xTB          :
          :  restarted?                      false          :
          :  GBSA solvation                  false          :
          :  PC potential                    false          :
          :  electronic temp.          300.0000000     K    :
          :  accuracy                    1.0000000          :
          :  -> integral cutoff          0.2500000E+02      :
          :  -> integral neglect         0.1000000E-07      :
          :  -> SCF convergence          0.1000000E-05 Eh   :
          :  -> wf. convergence          0.1000000E-03 e    :
          :  Broyden damping             0.4000000          :
          :  net charge                          0          :
          :  unpaired electrons                  0          :
          ...................................................

 iter      E             dE          RMSdq      gap      omega  full diag
   1    -54.5783098 -0.545783E+02  0.531E+00    3.15       0.0  T
   2    -54.6189211 -0.406113E-01  0.311E+00    2.86       1.0  T
   3    -54.6096380  0.928313E-02  0.131E+00    3.03       1.0  T
   4    -54.6251119 -0.154740E-01  0.319E-01    2.97       1.0  T
   5    -54.6260779 -0.965952E-03  0.898E-02    2.97       1.0  T
   6    -54.6260985 -0.205552E-04  0.538E-02    2.97       1.0  T
   7    -54.6261125 -0.140437E-04  0.266E-02    2.97       1.0  T
   8    -54.6261164 -0.385914E-05  0.175E-02    2.97       1.2  T
   9    -54.6261179 -0.157465E-05  0.120E-02    2.97       1.8  T
  10    -54.6261190 -0.109808E-05  0.735E-03    2.98       2.9  T
  11    -54.6261196 -0.557224E-06  0.354E-03    2.97       6.0  T
  12    -54.6261197 -0.749086E-07  0.213E-03    2.97      10.0  T
  13    -54.6261197 -0.454574E-07  0.148E-03    2.97      14.4  T
  14    -54.6261197 -0.161705E-07  0.926E-04    2.97      23.0  T
  15    -54.6261197 -0.103039E-07  0.543E-04    2.97      39.3  T

   *** convergence criteria satisfied after 15 iterations ***

         #    Occupation            Energy/Eh            Energy/eV
      -------------------------------------------------------------
         1        2.0000           -1.0722890             -29.1785
       ...           ...                  ...                  ...
        40        2.0000           -0.4384019             -11.9295
        41        2.0000           -0.4351925             -11.8422
        42        2.0000           -0.4327877             -11.7768
        43        2.0000           -0.4309739             -11.7274
        44        2.0000           -0.4235784             -11.5262
        45        2.0000           -0.4137435             -11.2585
        46        2.0000           -0.3911572             -10.6439 (HOMO)
        47                         -0.2818348              -7.6691 (LUMO)
        48                         -0.2758857              -7.5072
        49                         -0.2595619              -7.0630
        50                         -0.2434728              -6.6252
        51                         -0.1875499              -5.1035
       ...                                ...                  ...
        96                          0.6217173              16.9178
      -------------------------------------------------------------
                  HL-Gap            0.1093224 Eh            2.9748 eV
             Fermi-level           -0.3364960 Eh           -9.1565 eV

 SCC (total)                   0 d,  0 h,  0 min,  0.027 sec
 SCC setup                      ...        0 min,  0.000 sec (  0.386%)
 Dispersion                     ...        0 min,  0.000 sec (  0.468%)
 classical contributions        ...        0 min,  0.000 sec (  0.104%)
 integral evaluation            ...        0 min,  0.004 sec ( 13.297%)
 iterations                     ...        0 min,  0.015 sec ( 55.285%)
 molecular gradient             ...        0 min,  0.008 sec ( 30.063%)
 printout                       ...        0 min,  0.000 sec (  0.369%)

         :::::::::::::::::::::::::::::::::::::::::::::::::::::
         ::                     SUMMARY                     ::
         :::::::::::::::::::::::::::::::::::::::::::::::::::::
         :: total energy             -54.095215617680 Eh    ::
         :: gradient norm              0.025888896366 Eh/a0 ::
         :: HOMO-LUMO gap              2.974813549207 eV    ::
         ::.................................................::
         :: SCC energy               -54.626320198443 Eh    ::
         :: -> isotropic ES            0.034334087814 Eh    ::
         :: -> anisotropic ES          0.002820011511 Eh    ::
         :: -> anisotropic XC          0.007347668932 Eh    ::
         :: -> dispersion             -0.031024926920 Eh    ::
         :: repulsion energy           0.531104580763 Eh    ::
         :: add. restraining           0.000000000000 Eh    ::
         :: total charge               0.000000000000 e     ::
         :::::::::::::::::::::::::::::::::::::::::::::::::::::

      ----------------------------------------------------------- 
     |                   =====================                   |
     |                        A N C O P T                        |
     |                   =====================                   |
     |               Approximate Normal Coordinate               |
     |                Rational Function Optimizer                |
      ----------------------------------------------------------- 

          ...................................................
          :                      SETUP                      :
          :.................................................:
          :   optimization level         verytight          :
          :   max. optcycles                   440          :
          :   ANC micro-cycles                  20          :
          :   degrees of freedom                60          :
          :.................................................:
          :   RF solver                   davidson          :
          :   write xtbopt.log                true          :
          :   linear?                        false          :
          :   energy convergence         0.1000000E-06 Eh   :
          :   grad. convergence          0.2000000E-03 Eh/α :
          :   maximum RF displ.          1.0000000          :
          :   Hlow (freq-cutoff)         0.1000000E-01      :
          :   Hmax (freq-cutoff)         5.0000000          :
          :   S6 in model hess.         20.0000000          :
          ...................................................

generating ANC from exact Hessian ...
Using Lindh-Hessian (1995)
 Shifting diagonal of input Hessian by    7.9769207404320128E-003
 Lowest  eigenvalues of input Hessian
    0.000000    0.000000    0.000000    0.000000    0.000000    0.000000
    0.010000    0.010903    0.015887    0.018733    0.020541    0.020990
    0.024688    0.028145    0.039132    0.042639    0.045738    0.047797
 Highest eigenvalues
    1.848443    1.886071    2.044850    2.049622    2.128995    2.181233


........................................................................
.............................. CYCLE    1 ..............................
........................................................................

 iter      E             dE          RMSdq      gap      omega  full diag
   1    -54.6261197 -0.546261E+02  0.217E-04    2.97       0.0  T
   2    -54.6261197 -0.180627E-09  0.163E-04    2.97     130.7  T
   3    -54.6261197 -0.134584E-09  0.125E-04    2.97     171.2  T
     SCC iter.                  ...        0 min,  0.003 sec
     gradient                   ...        0 min,  0.008 sec
 * total energy  :   -54.0952156 Eh     change       -0.3176055E-08 Eh
   gradient norm :     0.0258918 Eh/α   predicted     0.0000000E+00 (-100.00%)
   displ. norm   :     0.0914666 α      lambda       -0.1346023E-02
   maximum displ.:     0.0506953 α      in ANC's #29, #14, #16, ...

........................................................................
.............................. CYCLE    2 ..............................
........................................................................

 iter      E             dE          RMSdq      gap      omega  full diag
   1    -54.6379901 -0.546380E+02  0.892E-02    2.97       0.0  T
   2    -54.6380047 -0.146237E-04  0.627E-02    2.97       1.0  T
   3    -54.6380072 -0.255571E-05  0.350E-02    2.98       1.0  T
   4    -54.6380162 -0.897909E-05  0.142E-02    2.98       1.5  T
   5    -54.6380171 -0.857464E-06  0.111E-02    2.98       1.9  T
   6    -54.6380179 -0.773079E-06  0.653E-03    2.98       3.3  T
   7    -54.6380183 -0.402038E-06  0.222E-03    2.98       9.6  T
   8    -54.6380183 -0.521710E-07  0.130E-03    2.98      16.4  T
   9    -54.6380183 -0.111789E-07  0.832E-04    2.98      25.6  T
  10    -54.6380183 -0.459286E-08  0.528E-04    2.98      40.4  T
     SCC iter.                  ...        0 min,  0.010 sec
     gradient                   ...        0 min,  0.008 sec
 * total energy  :   -54.0961332 Eh     change       -0.9176041E-03 Eh
   gradient norm :     0.0148115 Eh/α   predicted    -0.6786435E-03 ( -26.04%)
   displ. norm   :     0.0541760 α      lambda       -0.4022166E-03
   maximum displ.:     0.0261606 α      in ANC's #29, #14, #5, ...

........................................................................
.............................. CYCLE    3 ..............................
........................................................................

 iter      E             dE          RMSdq      gap      omega  full diag
   1    -54.6425742 -0.546426E+02  0.614E-02    2.96       0.0  T
   2    -54.6425860 -0.117748E-04  0.441E-02    2.96       1.0  T
   3    -54.6425905 -0.448889E-05  0.267E-02    2.96       1.0  T
   4    -54.6425933 -0.279342E-05  0.120E-02    2.96       1.8  T
   5    -54.6425939 -0.670608E-06  0.909E-03    2.96       2.3  T
   6    -54.6425944 -0.419915E-06  0.600E-03    2.96       3.6  T
   7    -54.6425947 -0.375954E-06  0.222E-03    2.96       9.6  T
   8    -54.6425948 -0.457180E-07  0.126E-03    2.96      16.9  T
   9    -54.6425948 -0.143855E-07  0.758E-04    2.96      28.1  T
  10    -54.6425948 -0.331254E-08  0.547E-04    2.96      39.0  T
     SCC iter.                  ...        0 min,  0.010 sec
     gradient                   ...        0 min,  0.008 sec
 * total energy  :   -54.0963646 Eh     change       -0.2313344E-03 Eh
   gradient norm :     0.0063864 Eh/α   predicted    -0.2017361E-03 ( -12.79%)
   displ. norm   :     0.0112704 α      lambda       -0.4120965E-04
   maximum displ.:     0.0064623 α      in ANC's #5, #10, #47, ...

........................................................................
.............................. CYCLE    4 ..............................
........................................................................

 iter      E             dE          RMSdq      gap      omega  full diag
   1    -54.6419186 -0.546419E+02  0.155E-02    2.96       0.0  T
   2    -54.6419198 -0.120703E-05  0.112E-02    2.96       1.9  T
   3    -54.6419202 -0.430512E-06  0.724E-03    2.96       2.9  T
   4    -54.6419203 -0.124904E-06  0.348E-03    2.96       6.1  T
   5    -54.6419204 -0.645824E-07  0.244E-03    2.96       8.7  T
   6    -54.6419204 -0.270622E-07  0.178E-03    2.96      11.9  T
   7    -54.6419205 -0.299167E-07  0.905E-04    2.96      23.6  T
   8    -54.6419205 -0.861929E-08  0.417E-04    2.96      51.1  T
     SCC iter.                  ...        0 min,  0.008 sec
     gradient                   ...        0 min,  0.008 sec
 * total energy  :   -54.0963930 Eh     change       -0.2845757E-04 Eh
   gradient norm :     0.0026600 Eh/α   predicted    -0.2147923E-04 ( -24.52%)
   displ. norm   :     0.0064830 α      lambda       -0.1050955E-04
   maximum displ.:     0.0023312 α      in ANC's #14, #10, #22, ...

........................................................................
.............................. CYCLE    5 ..............................
........................................................................

 iter      E             dE          RMSdq      gap      omega  full diag
   1    -54.6410649 -0.546411E+02  0.778E-03    2.96       0.0  T
   2    -54.6410651 -0.238510E-06  0.511E-03    2.96       4.2  T
   3    -54.6410652 -0.560739E-07  0.333E-03    2.96       6.4  T
   4    -54.6410652 -0.380555E-07  0.138E-03    2.96      15.5  T
   5    -54.6410652 -0.112563E-07  0.905E-04    2.96      23.6  T
   6    -54.6410652 -0.405630E-08  0.706E-04    2.96      30.2  T
     SCC iter.                  ...        0 min,  0.006 sec
     gradient                   ...        0 min,  0.008 sec
 * total energy  :   -54.0963988 Eh     change       -0.5748400E-05 Eh
   gradient norm :     0.0006132 Eh/α   predicted    -0.5262990E-05 (  -8.44%)
   displ. norm   :     0.0019781 α      lambda       -0.3280147E-06
   maximum displ.:     0.0010287 α      in ANC's #14, #13, #16, ...

........................................................................
.............................. CYCLE    6 ..............................
........................................................................

 iter      E             dE          RMSdq      gap      omega  full diag
   1    -54.6409395 -0.546409E+02  0.238E-03    2.96       0.0  T
   2    -54.6409395 -0.187397E-07  0.144E-03    2.96      14.8  T
   3    -54.6409395 -0.847756E-09  0.979E-04    2.96      21.8  T
   4    -54.6409395 -0.848120E-08  0.380E-04    2.96      56.1  T
     SCC iter.                  ...        0 min,  0.004 sec
     gradient                   ...        0 min,  0.008 sec
 * total energy  :   -54.0963990 Eh     change       -0.2577585E-06 Eh
   gradient norm :     0.0001757 Eh/α   predicted    -0.1767328E-06 ( -31.43%)
   displ. norm   :     0.0006129 α      lambda        0.3192004E-06
   maximum displ.:     0.0003176 α      in ANC's #10, #22, #19, ...

........................................................................
.............................. CYCLE    7 ..............................
........................................................................

 iter      E             dE          RMSdq      gap      omega  full diag
   1    -54.6409864 -0.546410E+02  0.657E-04    2.96       0.0  T
   2    -54.6409864 -0.111304E-08  0.498E-04    2.96      42.8  T
   3    -54.6409864 -0.697945E-09  0.316E-04    2.96      67.5  T
     SCC iter.                  ...        0 min,  0.003 sec
     gradient                   ...        0 min,  0.008 sec
 * total energy  :   -54.0963991 Eh     change       -0.3115818E-07 Eh
   gradient norm :     0.0000622 Eh/α   predicted    -0.1720012E-07 ( -44.80%)
   displ. norm   :     0.0006141 α      lambda        0.3101554E-07
   maximum displ.:     0.0003172 α      in ANC's #10, #22, #19, ...

   *** GEOMETRY OPTIMIZATION CONVERGED AFTER 7 ITERATIONS ***

------------------------------------------------------------------------
 total energy gain   :        -0.0011834 Eh       -0.7426 kcal/mol
 total RMSD          :         0.0310265 a0        0.0164 Å
 total power (kW/mol):        -0.4438732 (step)  -24.3475 (real)
------------------------------------------------------------------------

 ANCopt (total)                0 d,  0 h,  0 min,  0.128 sec
 optimizer setup                ...        0 min,  0.000 sec (  0.032%)
 model hessian                  ...        0 min,  0.001 sec (  0.750%)
 ANC generation                 ...        0 min,  0.000 sec (  0.247%)
 coordinate transformation      ...        0 min,  0.000 sec (  0.018%)
 single point calculation       ...        0 min,  0.125 sec ( 97.901%)
 optimization log               ...        0 min,  0.000 sec (  0.244%)
 hessian update                 ...        0 min,  0.000 sec (  0.027%)
 rational function              ...        0 min,  0.000 sec (  0.146%)

================
 final structure:
================
$coord
        7.97332872148144        2.32083532468825        0.00011639855331      C
        5.52279491615453        3.24131524831206       -0.00014365602563      C
        3.49074568853134        1.59395656765551       -0.00044519723440      C
        3.91258050495956       -1.01004925950803       -0.00049557263997      C
        6.35519023286996       -1.94169039929834       -0.00022863379049      C
        8.37305189603424       -0.26411753694504        0.00007874477260      C
       11.40812327789751       -1.44000897649231        0.00043227978765      Cl
        1.95725190976967       -2.72306068254263       -0.00079447187889      O
       -0.42598911711755       -1.72336354032915       -0.00055847430198      C
       -2.45078465968622       -3.37745166455647       -0.00037024708370      C
       -4.90542598445827       -2.45202545203536       -0.00010842456569      C
       -5.35349061711619        0.13726113872218       -0.00002564644309      C
       -3.30403500371359        1.80010663516787       -0.00021960232254      C
       -0.83943689968880        0.88659047309926       -0.00049297225546      C
        1.09272857648338        2.59823912198127       -0.00067571754438      O
       -3.77869877559113        5.00506723131230       -0.00013267059263      Cl
       -8.37562487843339        1.30135727048217        0.00032812646249      Cl
       -7.39365536421250       -4.52872294775705        0.00013404161983      Cl
        9.55292026952111        3.60558153796723        0.00035703278208      H
        5.15177705821167        5.24349155994313       -0.00011929978041      H
        6.64855444261159       -3.95613075925524       -0.00026780778229      H
       -2.09429096549505       -5.38114640998433       -0.00043384992929      H
$end

 Bond Distances (Angstroems)
 ---------------------------
C1-C2=1.3852         C1-C6=1.3842         C1-H19=1.0775        C2-C1=1.3852         C2-C3=1.3843         C2-H20=1.0775        
C3-C2=1.3843         C3-C4=1.3959         C3-O15=1.3758        C4-C3=1.3959         C4-C5=1.3834         C4-O8=1.3756         
C5-C4=1.3834         C5-C6=1.3886         C5-H21=1.0772        C6-C1=1.3842         C6-C5=1.3886         C6-Cl7=1.7224        
Cl7-C6=1.7224        O8-C4=1.3756         O8-C9=1.3676         C9-O8=1.3676         C9-C10=1.3836        C9-C14=1.3984        
C10-C9=1.3836        C10-C11=1.3882       C10-H22=1.0770       C11-C10=1.3882       C11-C12=1.3906       C11-Cl18=1.7151      
C12-C11=1.3906       C12-C13=1.3966       C12-Cl17=1.7138      C13-C12=1.3966       C13-C14=1.3909       C13-Cl16=1.7145      
C14-C9=1.3984        C14-C13=1.3909       C14-O15=1.3660       O15-C3=1.3758        O15-C14=1.3660       Cl16-C13=1.7145      
Cl17-C12=1.7138      Cl18-C11=1.7151      H19-C1=1.0775        H20-C2=1.0775        H21-C5=1.0772        H22-C10=1.0770       
 C  H  Rav=1.0773 sigma=0.0002  Rmin=1.0770  Rmax=1.0775     4
 C  C  Rav=1.3892 sigma=0.0052  Rmin=1.3834  Rmax=1.3984    12
 O  C  Rav=1.3712 sigma=0.0045  Rmin=1.3660  Rmax=1.3758     4
 Cl C  Rav=1.7164 sigma=0.0035  Rmin=1.7138  Rmax=1.7224     4

 selected bond angles (degree)
 --------------------
C6-C1-C2=119.38                H19-C1-C2=120.29               H19-C1-C6=120.33               C3-C2-C1=120.38                
H20-C2-C1=121.09               H20-C2-C3=118.53               C4-C3-C2=119.83                O15-C3-C2=118.24               
O15-C3-C4=121.93               C5-C4-C3=120.08                O8-C4-C3=122.02                O8-C4-C5=117.90                
C6-C5-C4=119.38                H21-C5-C4=119.16               H21-C5-C6=121.45               C5-C6-C1=120.95                
Cl7-C6-C1=119.97               Cl7-C6-C5=119.08               C9-O8-C4=116.02                C10-C9-O8=118.00               
C14-C9-O8=121.76               C14-C9-C10=120.24              C11-C10-C9=120.10              H22-C10-C9=119.16              
H22-C10-C11=120.75             

 selected dihedral angles (degree)
 ---------------------------------
C3-C2-C1-C6=  0.00            C3-C2-C1-H19=180.00           H20-C2-C1-C6=180.00           H20-C2-C1-H19=  0.00          
C4-C3-C2-C1=  0.00            C4-C3-C2-H20=180.00           O15-C3-C2-C1=180.00           O15-C3-C2-H20=  0.00          
C5-C4-C3-C2=  0.00            C5-C4-C3-O15=180.00           O8-C4-C3-C2=180.00            O8-C4-C3-O15=  0.00           
C6-C5-C4-C3=  0.00            C6-C5-C4-O8=180.00            H21-C5-C4-C3=180.00           H21-C5-C4-O8=  0.00           
C5-C6-C1-C2=  0.00            C5-C6-C1-H19=180.00           Cl7-C6-C1-C2=180.00           Cl7-C6-C1-H19=  0.00          
C1-C6-C5-C4=  0.00            C1-C6-C5-H21=180.00           Cl7-C6-C5-C4=180.00           Cl7-C6-C5-H21=  0.00          
C9-O8-C4-C3=  0.00            C9-O8-C4-C5=179.99            C10-C9-O8-C4=180.01           C14-C9-O8-C4=  0.00           
C11-C10-C9-O8=180.00          C11-C10-C9-C14=  0.00         H22-C10-C9-O8=  0.00          H22-C10-C9-C14=180.00         
           -------------------------------------------------
          |                Final Singlepoint                |
           -------------------------------------------------

          ...................................................
          :                      SETUP                      :
          :.................................................:
          :  # basis functions                 100          :
          :  # atomic orbitals                  96          :
          :  # shells                           44          :
          :  # electrons                        92          :
          :  max. iterations                   250          :
          :  Hamiltonian                  GFN2-xTB          :
          :  restarted?                      false          :
          :  GBSA solvation                  false          :
          :  PC potential                    false          :
          :  electronic temp.          300.0000000     K    :
          :  accuracy                    1.0000000          :
          :  -> integral cutoff          0.2500000E+02      :
          :  -> integral neglect         0.1000000E-07      :
          :  -> SCF convergence          0.1000000E-05 Eh   :
          :  -> wf. convergence          0.1000000E-03 e    :
          :  Broyden damping             0.4000000          :
          :  net charge                          0          :
          :  unpaired electrons                  0          :
          ...................................................

 iter      E             dE          RMSdq      gap      omega  full diag
   1    -54.6409864 -0.546410E+02  0.168E-04    2.96       0.0  T
   2    -54.6409864 -0.105430E-09  0.145E-04    2.96     146.6  T
   3    -54.6409864 -0.715303E-10  0.126E-04    2.96     168.9  T

   *** convergence criteria satisfied after 3 iterations ***

         #    Occupation            Energy/Eh            Energy/eV
      -------------------------------------------------------------
         1        2.0000           -1.0735386             -29.2125
       ...           ...                  ...                  ...
        40        2.0000           -0.4387950             -11.9402
        41        2.0000           -0.4345863             -11.8257
        42        2.0000           -0.4334324             -11.7943
        43        2.0000           -0.4311401             -11.7319
        44        2.0000           -0.4233651             -11.5204
        45        2.0000           -0.4131157             -11.2414
        46        2.0000           -0.3898996             -10.6097 (HOMO)
        47                         -0.2811872              -7.6515 (LUMO)
        48                         -0.2743706              -7.4660
        49                         -0.2580135              -7.0209
        50                         -0.2418994              -6.5824
        51                         -0.1811246              -4.9287
       ...                                ...                  ...
        96                          0.6298353              17.1387
      -------------------------------------------------------------
                  HL-Gap            0.1087123 Eh            2.9582 eV
             Fermi-level           -0.3355434 Eh           -9.1306 eV

 SCC (total)                   0 d,  0 h,  0 min,  0.015 sec
 SCC setup                      ...        0 min,  0.000 sec (  0.496%)
 Dispersion                     ...        0 min,  0.000 sec (  0.342%)
 classical contributions        ...        0 min,  0.000 sec (  0.138%)
 integral evaluation            ...        0 min,  0.003 sec ( 22.794%)
 iterations                     ...        0 min,  0.003 sec ( 22.115%)
 molecular gradient             ...        0 min,  0.008 sec ( 53.495%)
 printout                       ...        0 min,  0.000 sec (  0.572%)

         :::::::::::::::::::::::::::::::::::::::::::::::::::::
         ::                     SUMMARY                     ::
         :::::::::::::::::::::::::::::::::::::::::::::::::::::
         :: total energy             -54.096399055164 Eh    ::
         :: gradient norm              0.000062053431 Eh/a0 ::
         :: HOMO-LUMO gap              2.958213312246 eV    ::
         ::.................................................::
         :: SCC energy               -54.641188709829 Eh    ::
         :: -> isotropic ES            0.033329032210 Eh    ::
         :: -> anisotropic ES          0.003532180269 Eh    ::
         :: -> anisotropic XC          0.006809648772 Eh    ::
         :: -> dispersion             -0.031185691152 Eh    ::
         :: repulsion energy           0.544789654665 Eh    ::
         :: add. restraining           0.000000000000 Eh    ::
         :: total charge               0.000000000000 e     ::
         :::::::::::::::::::::::::::::::::::::::::::::::::::::

           ------------------------------------------------- 
          |                Numerical Hessian                |
           ------------------------------------------------- 
step length          :   0.00500
SCC accuracy         :   0.30000
Hessian scale factor :   1.00000
frozen atoms in %    :   0.00000    0
RMS gradient         :   0.00006
estimated CPU  time      0.04 min
estimated wall time      0.04 min

writing file <hessian>, containing the non-mass-weighted Hessian matrix in atomic units (Eₕ/Bohr²).

 projected vibrational frequencies (cm⁻¹)
eigval :       -0.00    -0.00     0.00     0.00     0.00     0.00
eigval :       27.91    59.03    77.62   104.54   136.85   150.18
eigval :      161.04   170.88   203.14   213.16   261.94   283.20
eigval :      305.97   340.47   341.32   383.79   387.77   427.84
eigval :      458.93   502.77   503.07   546.38   550.49   566.26
eigval :      574.52   625.09   633.06   655.50   719.51   760.64
eigval :      800.50   825.20   847.20   865.75   883.56   896.29
eigval :      901.66   949.54  1083.33  1100.10  1115.03  1148.95
eigval :     1165.02  1216.38  1246.13  1296.00  1296.86  1330.27
eigval :     1354.14  1404.64  1443.73  1472.68  1536.13  1543.75
eigval :     1580.66  1583.42  3115.44  3124.67  3126.14  3129.76
           -------------------------------------------------
          |                Property Printout                |
           -------------------------------------------------

    * Orbital Energies and Occupations

         #    Occupation            Energy/Eh            Energy/eV
      -------------------------------------------------------------
         1        2.0000           -1.0735381             -29.2125
       ...           ...                  ...                  ...
        34        2.0000           -0.4837978             -13.1648
        35        2.0000           -0.4836437             -13.1606
        36        2.0000           -0.4639968             -12.6260
        37        2.0000           -0.4578465             -12.4586
        38        2.0000           -0.4512576             -12.2793
        39        2.0000           -0.4411374             -12.0040
        40        2.0000           -0.4387948             -11.9402
        41        2.0000           -0.4345861             -11.8257
        42        2.0000           -0.4334322             -11.7943
        43        2.0000           -0.4311400             -11.7319
        44        2.0000           -0.4233649             -11.5203
        45        2.0000           -0.4131153             -11.2414
        46        2.0000           -0.3898997             -10.6097 (HOMO)
        47                         -0.2811872              -7.6515 (LUMO)
        48                         -0.2743703              -7.4660
        49                         -0.2580136              -7.0209
        50                         -0.2418993              -6.5824
        51                         -0.1811238              -4.9286
        52                         -0.1564545              -4.2573
        53                         -0.1538223              -4.1857
        54                         -0.1527877              -4.1576
        55                         -0.1466988              -3.9919
        56                         -0.1199362              -3.2636
        57                         -0.0243130              -0.6616
       ...                                ...                  ...
        96                          0.6298351              17.1387
      -------------------------------------------------------------
                  HL-Gap            0.1087125 Eh            2.9582 eV
             Fermi-level           -0.3355435 Eh           -9.1306 eV

     #   Z          covCN         q      C6AA      α(0)
     1   6          2.955    -0.046    29.141     8.854
     2   6          2.922    -0.049    29.226     8.865
     3   6          2.887     0.116    25.442     8.270
     4   6          2.888     0.122    25.320     8.250
     5   6          2.958    -0.063    29.568     8.919
     6   6          2.889     0.095    25.891     8.342
     7  17          0.971    -0.150   103.835    15.589
     8   8          1.708    -0.219    17.637     5.670
     9   6          2.886     0.120    25.368     8.257
    10   6          2.958    -0.073    29.815     8.956
    11   6          2.919     0.080    26.221     8.397
    12   6          2.951     0.066    26.519     8.446
    13   6          2.922     0.060    26.650     8.466
    14   6          2.929     0.110    25.578     8.294
    15   8          1.708    -0.212    17.528     5.653
    16  17          0.997    -0.095   102.111    15.460
    17  17          1.014    -0.096   102.162    15.463
    18  17          0.997    -0.109   102.547    15.493
    19   1          0.926     0.076     2.016     2.221
    20   1          0.926     0.080     1.981     2.201
    21   1          0.926     0.086     1.918     2.166
    22   1          0.926     0.101     1.777     2.084

 Mol. C6AA /au·bohr⁶  :      13623.865732
 Mol. C8AA /au·bohr⁸  :     427274.874918
 Mol. α(0) /au        :        184.316028


Wiberg/Mayer (AO) data.
largest (>0.10) Wiberg bond orders for each atom

 ---------------------------------------------------------------------------
     #   Z sym  total        # sym  WBO       # sym  WBO       # sym  WBO
 ---------------------------------------------------------------------------
     1   6      3.979 --     2      1.424     6      1.409    19      0.965
     2   6      3.979 --     1      1.424     3      1.397    20      0.963
     3   6      3.929 --     2      1.397     4      1.316    15      1.015
     4   6      3.932 --     5      1.403     3      1.316     8      1.018
     5   6      3.976 --     4      1.403     6      1.384    21      0.962
     6   6      3.919 --     1      1.409     5      1.384     7      0.991
     7  17      1.127 --     6      0.991
     8   8      2.320 --     9      1.042     4      1.018
     9   6      3.942 --    10      1.392    14      1.301     8      1.042
    10   6      3.972 --     9      1.392    11      1.377    22      0.958
    11   6      3.927 --    10      1.377    12      1.363    18      1.011
    12   6      3.927 --    11      1.363    13      1.334    17      1.017
    13   6      3.927 --    14      1.353    12      1.334    16      1.016
    14   6      3.942 --    13      1.353     9      1.301    15      1.047
    15   8      2.322 --    14      1.047     3      1.015
    16  17      1.172 --    13      1.016
    17  17      1.173 --    12      1.017
    18  17      1.156 --    11      1.011
    19   1      0.994 --     1      0.965
    20   1      0.994 --     2      0.963
    21   1      0.993 --     5      0.962
    22   1      0.989 --    10      0.958
 ---------------------------------------------------------------------------

Topologies differ in total number of bonds
Writing topology from bond orders to xtbtopo.mol

molecular dipole:
                 x           y           z       tot (Debye)
 q only:        0.829      -0.084      -0.000
   full:        0.666       0.002      -0.000       1.693
molecular quadrupole (traceless):
                xx          xy          yy          xz          yz          zz
 q only:      -13.679       7.260       6.116       0.000       0.001       7.564
  q+dip:      -11.502       5.448       7.305       0.000       0.001       4.197
   full:      -11.426       5.250       4.766       0.000       0.000       6.660

           -------------------------------------------------
          |                Geometry Summary                 |
           -------------------------------------------------

      molecular mass/u    :      321.9711540
   center of mass at/Å    :        0.0000120       0.0000181      -0.0000522
  moments of inertia/u·Å² :        0.7377260E+03   0.3760198E+04   0.4497924E+04
rotational constants/cm⁻¹ :        0.2285080E-01   0.4483176E-02   0.3747869E-02

 * 24 selected distances

     #   Z          #   Z                                           value/Å
     1   6          2   6                                         1.3852320
     2   6          3   6                                         1.3842831
     3   6          4   6                                         1.3959442
     4   6          5   6                                         1.3834011
     1   6          6   6                                         1.3841562
     5   6          6   6                                         1.3886257
     6   6          7  17                                         1.7224195 (max)
     4   6          8   8                                         1.3756286
     8   8          9   6                                         1.3676169
     9   6         10   6                                         1.3835536
    10   6         11   6                                         1.3881882
    11   6         12   6                                         1.3905553
    12   6         13   6                                         1.3965993
     9   6         14   6                                         1.3983502
    13   6         14   6                                         1.3909166
     3   6         15   8                                         1.3757662
    14   6         15   8                                         1.3659545
    13   6         16  17                                         1.7144917
    12   6         17  17                                         1.7137841
    11   6         18  17                                         1.7150535
     1   6         19   1                                         1.0774551
     2   6         20   1                                         1.0775437
     5   6         21   1                                         1.0772407
    10   6         22   1                                         1.0769609 (min)

 * 4 distinct bonds (by element types)

   Z      Z             #   av. dist./Å        max./Å        min./Å
   1 H    6 C           4     1.0773001     1.0775437     1.0769609
   6 C    6 C          12     1.3891505     1.3983502     1.3834011
   6 C    8 O           4     1.3712415     1.3757662     1.3659545
   6 C   17 Cl          4     1.7164372     1.7224195     1.7137841

           -------------------------------------------------
          |               Frequency Printout                |
           -------------------------------------------------
 projected vibrational frequencies (cm⁻¹)
eigval :       -0.00    -0.00     0.00     0.00     0.00     0.00
eigval :       27.91    59.03    77.62   104.54   136.85   150.18
eigval :      161.04   170.88   203.14   213.16   261.94   283.20
eigval :      305.97   340.47   341.32   383.79   387.77   427.84
eigval :      458.93   502.77   503.07   546.38   550.49   566.26
eigval :      574.52   625.09   633.06   655.50   719.51   760.64
eigval :      800.50   825.20   847.20   865.75   883.56   896.29
eigval :      901.66   949.54  1083.33  1100.10  1115.03  1148.95
eigval :     1165.02  1216.38  1246.13  1296.00  1296.86  1330.27
eigval :     1354.14  1404.64  1443.73  1472.68  1536.13  1543.75
eigval :     1580.66  1583.42  3115.44  3124.67  3126.14  3129.76
 reduced masses (amu)
    1:     14.93    2:     15.34    3:     13.93    4:     15.62    5:     19.33    6:     13.58
    7:     16.81    8:      7.07    9:     26.71   10:     18.30   11:     11.25   12:      8.58
   13:     26.26   14:     33.50   15:     16.18   16:      7.31   17:     17.11   18:      6.22
   19:     14.19   20:      6.43   21:     10.05   22:     13.97   23:     10.35   24:      3.73
   25:      8.54   26:      7.84   27:      6.66   28:     10.06   29:      6.40   30:     11.59
   31:      9.57   32:     10.03   33:     10.61   34:      9.05   35:      9.93   36:      8.22
   37:      8.99   38:      1.32   39:      1.26   40:      1.24   41:      7.17   42:      7.89
   43:      1.26   44:     11.12   45:      1.81   46:      2.75   47:      2.62   48:      1.69
   49:      1.84   50:      1.36   51:      5.28   52:      7.18   53:      6.31   54:      8.13
   55:      9.68   56:      5.28   57:      7.64   58:      5.00   59:     11.04   60:      9.63
   61:      9.28   62:     10.24   63:      1.08   64:      1.09   65:      1.08   66:      1.08
 IR intensities (km·mol⁻¹)
    1:      0.02    2:      0.02    3:      0.08    4:      0.04    5:      0.03    6:      0.00
    7:      0.04    8:      0.31    9:      0.04   10:      0.24   11:      0.45   12:      1.67
Molecule has the following symmetry elements: (sigma) 
It seems to be the Cs point group
   13:      0.31   14:      0.04   15:      0.03   16:      0.67   17:      0.49   18:      0.31
   19:      3.04   20:      0.68   21:      2.06   22:      2.37   23:      4.68   24:      0.39
   25:      1.70   26:      0.67   27:      1.02   28:      0.54   29:      2.09   30:      0.27
   31:      0.44   32:      2.03   33:      0.00   34:      0.01   35:      1.89   36:      8.02
   37:      8.36   38:     40.46   39:     26.39   40:      3.33   41:     39.49   42:     98.77
   43:      1.60   44:    107.37   45:     19.67   46:     42.58   47:     65.84   48:     29.10
   49:     25.62   50:      9.29   51:     32.54   52:    240.59   53:      0.89   54:      5.97
   55:     43.98   56:     20.92   57:    970.13   58:    247.61   59:     48.18   60:     30.69
   61:      6.43   62:     15.91   63:      5.61   64:      0.31   65:      0.58   66:      1.77
 Raman intensities (Ä⁴*amu⁻¹)
    1:      0.00    2:      0.00    3:      0.00    4:      0.00    5:      0.00    6:      0.00
    7:      0.00    8:      0.00    9:      0.00   10:      0.00   11:      0.00   12:      0.00
   13:      0.00   14:      0.00   15:      0.00   16:      0.00   17:      0.00   18:      0.00
   19:      0.00   20:      0.00   21:      0.00   22:      0.00   23:      0.00   24:      0.00
   25:      0.00   26:      0.00   27:      0.00   28:      0.00   29:      0.00   30:      0.00
   31:      0.00   32:      0.00   33:      0.00   34:      0.00   35:      0.00   36:      0.00
   37:      0.00   38:      0.00   39:      0.00   40:      0.00   41:      0.00   42:      0.00
   43:      0.00   44:      0.00   45:      0.00   46:      0.00   47:      0.00   48:      0.00
   49:      0.00   50:      0.00   51:      0.00   52:      0.00   53:      0.00   54:      0.00
   55:      0.00   56:      0.00   57:      0.00   58:      0.00   59:      0.00   60:      0.00
   61:      0.00   62:      0.00   63:      0.00   64:      0.00   65:      0.00   66:      0.00
 output can be read by thermo (or use thermo option).
 writing <g98.out> molden fake output.
 recommended (thermochemical) frequency scaling factor: 1.0
           -------------------------------------------------
          |             Thermodynamic Functions             |
           -------------------------------------------------

cs  symmetry found (for desy threshold:  0.10E+00) used in thermo

          ...................................................
          :                      SETUP                      :
          :.................................................:
          :  # frequencies                          60      :
          :  # imaginary freq.                       0      :
          :  linear?                             false      :
          :  only rotor calc.                    false      :
          :  symmetry                               cs      :
          :  rotational number                       1      :
          :  scaling factor                  1.0000000      :
          :  rotor cutoff                    0.0000000 cm⁻¹ :
          :  imag. cutoff                 -100.0000000 cm⁻¹ :
          :.................................................:

    mode    ω/cm⁻¹     T·S(HO)/kcal·mol⁻¹    T·S(FR)/kcal·mol⁻¹   T·S(vib)
   ------------------------------------------------------------------------
       1     27.91    -1.78084 (100.00%)    -1.22925 (  0.00%)    -1.78084
       2     59.03    -1.33852 (100.00%)    -1.00735 (  0.00%)    -1.33852
       3     77.62    -1.17771 (100.00%)    -0.92623 (  0.00%)    -1.17771
       4    104.54    -1.00415 (100.00%)    -0.83805 (  0.00%)    -1.00415
       5    136.85    -0.84896 (100.00%)    -0.75826 (  0.00%)    -0.84896
       6    150.18    -0.79604 (100.00%)    -0.73073 (  0.00%)    -0.79604
       7    161.04    -0.75656 (100.00%)    -0.71004 (  0.00%)    -0.75656
       8    170.88    -0.72324 (100.00%)    -0.69247 (  0.00%)    -0.72324
       9    203.14    -0.62744 (100.00%)    -0.64125 (  0.00%)    -0.62744
      10    213.16    -0.60120 (100.00%)    -0.62699 (  0.00%)    -0.60120
      11    261.94    -0.49159 (100.00%)    -0.56594 (  0.00%)    -0.49159
      12    283.20    -0.45148 (100.00%)    -0.54283 (  0.00%)    -0.45148
   ------------------------------------------------------------------------

   temp. (K)  partition function   enthalpy   heat capacity  entropy
                                   cal/mol     cal/K/mol   cal/K/mol   J/K/mol
 298.15  VIB  0.131E+06             7905.365     51.599     49.924
         ROT  0.853E+07              888.727      2.981     34.695
         INT  0.111E+13             8794.092     54.580     84.619
         TR   0.177E+27             1481.212      4.968     43.203
         TOT                       10275.3046    59.5478   127.8228   534.8107

       T/K    H(0)-H(T)+PV         H(T)/Eh          T*S/Eh         G(T)/Eh
   ------------------------------------------------------------------------
    298.15    0.163747E-01    0.140571E+00    0.607327E-01    0.798381E-01
   ------------------------------------------------------------------------

         :::::::::::::::::::::::::::::::::::::::::::::::::::::
         ::                  THERMODYNAMIC                  ::
         :::::::::::::::::::::::::::::::::::::::::::::::::::::
         :: total free energy         -54.016560934619 Eh   ::
         ::.................................................::
         :: total energy              -54.096399055408 Eh   ::
         :: zero point energy           0.124196124435 Eh   ::
         :: G(RRHO) w/o ZPVE           -0.044358003646 Eh   ::
         :: G(RRHO) contrib.            0.079838120789 Eh   ::
         :::::::::::::::::::::::::::::::::::::::::::::::::::::

optimized geometry written to: xtbopt.coord


           -------------------------------------------------
          | TOTAL ENERGY              -54.096399055408 Eh   |
          | TOTAL ENTHALPY            -53.955828190852 Eh   |
          | TOTAL FREE ENERGY         -54.016560934619 Eh   |
          | GRADIENT NORM               0.000064487192 Eh/α |
          | HOMO-LUMO GAP               2.958217778426 eV   |
           -------------------------------------------------

------------------------------------------------------------------------
 * finished run on 2025/04/09 at 06:08:47.928     
------------------------------------------------------------------------
 total:
 * wall-time:     0 d,  0 h,  0 min,  2.668 sec
 *  cpu-time:     0 d,  0 h,  0 min,  2.646 sec
 * ratio c/w:     0.992 speedup
 SCF:
 * wall-time:     0 d,  0 h,  0 min,  0.027 sec
 *  cpu-time:     0 d,  0 h,  0 min,  0.027 sec
 * ratio c/w:     0.995 speedup
 ANC optimizer:
 * wall-time:     0 d,  0 h,  0 min,  0.143 sec
 *  cpu-time:     0 d,  0 h,  0 min,  0.142 sec
 * ratio c/w:     0.996 speedup
 analytical hessian:
 * wall-time:     0 d,  0 h,  0 min,  2.490 sec
 *  cpu-time:     0 d,  0 h,  0 min,  2.469 sec
 * ratio c/w:     0.991 speedup

