
                                 *****************
                                 * O   R   C   A *
                                 *****************

                                            #,                                       
                                            ###                                      
                                            ####                                     
                                            #####                                    
                                            ######                                   
                                           ########,                                 
                                     ,,################,,,,,                         
                               ,,#################################,,                 
                          ,,##########################################,,             
                       ,#########################################, ''#####,          
                    ,#############################################,,   '####,        
                  ,##################################################,,,,####,       
                ,###########''''           ''''###############################       
              ,#####''   ,,,,##########,,,,          '''####'''          '####       
            ,##' ,,,,###########################,,,                        '##       
           ' ,,###''''                  '''############,,,                           
         ,,##''                                '''############,,,,        ,,,,,,###''
      ,#''                                            '''#######################'''  
     '                                                          ''''####''''         
             ,#######,   #######,   ,#######,      ##                                
            ,#'     '#,  ##    ##  ,#'     '#,    #''#        ,####,   ,####,        
            ##       ##  ##   ,#'  ##            #'  '#       #'       #'  '#        
            ##       ##  #######   ##           ,######,      #####,   #    #        
            '#,     ,#'  ##    ##  '#,     ,#' ,#      #,     #,   #   #,  ,#        
             '#######'   ##     ##  '#######'  #'      '#     '####' # '####'        



                #########################################################
                #                        -***-                          #
                #          Department of theory and spectroscopy        #
                #                                                       #
                #                      Frank Neese                      #
                #                                                       #
                #     Directorship, Architecture, Infrastructure        #
                #                    SHARK, DRIVERS                     #
                #        Core code/Algorithms in most modules           #
                #                                                       #
                #        Max Planck Institute fuer Kohlenforschung      #
                #                Kaiser Wilhelm Platz 1                 #
                #                 D-45470 Muelheim/Ruhr                 #
                #                      Germany                          #
                #                                                       #
                #                  All rights reserved                  #
                #                        -***-                          #
                #########################################################


                         Program Version 6.0.1  -  RELEASE   -


 With contributions from (in alphabetic order):
[Max-Planck-Institut fuer Kohlenforschung]                               
  Daniel Aravena         : Magnetic Suceptibility                        
  Michael Atanasov       : Ab Initio Ligand Field Theory (pilot matlab implementation)
  Alexander A. Auer      : GIAO ZORA, VPT2 properties, NMR spectrum      
  Ute Becker             : All parallelization in ORCA, NUMFREQ, NUMCALC 
  Giovanni Bistoni       : ED, misc. LED, open-shell LED, HFLD           
  Martin Brehm           : Molecular dynamics                            
  Dmytro Bykov           : pre 5.0 version of the SCF Hessian            
  Marcos Casanova-Páez   : Triplet and SCS-CIS(D). UHF-(DLPNO)-IP/EA/STEOM-CCSD. UHF-CVS-IP/STEOM-CCSD   
  Vijay G. Chilkuri      : MRCI spin determinant printing, contributions to CSF-ICE 
  Pauline Colinet        : FMM embedding                                 
  Dipayan Datta          : RHF DLPNO-CCSD density                        
  Achintya Kumar Dutta   : EOM-CC, STEOM-CC                              
  Nicolas Foglia         : Exact transition moments, OPA infrastructure, MCD improvements    
  Dmitry Ganyushin       : Spin-Orbit,Spin-Spin,Magnetic field MRCI      
  Miquel Garcia-Rates    : C-PCM and meta-GGA Hessian, CCSD/C-PCM, Gaussian charge scheme 
  Tiago L. C. Gouveia    : GS-ROHF, GS-ROCIS                             
  Yang Guo               : DLPNO-NEVPT2, F12-NEVPT2, CIM, IAO-localization        
  Andreas Hansen         : Spin unrestricted coupled pair/coupled cluster methods 
  Ingolf Harden          : AUTO-CI MPn and infrastructure                
  Benjamin Helmich-Paris : MC-RPA, TRAH-(SCF,CASSCF), AVAS, COSX integrals, SCF dyn. polar. 
  Lee Huntington         : MR-EOM, pCC                                   
  Robert Izsak           : Overlap fitted RIJCOSX, COSX-SCS-MP3, EOM     
  Riya Kayal             : Wick's Theorem for AUTO-CI, AUTO-CI UHF-CCSDT 
  Emily Kempfer          : AUTO-CI, RHF CISDT and CCSDT                  
  Christian Kollmar      : KDIIS, OOCD, Brueckner-CCSD(T), CCSD density, CASPT2, CASPT2-K, improved NEVPT2 
  Axel Koslowski         : Symmetry handling                             
  Simone Kossmann        : meta-GGA functionals, TD-DFT gradient, OOMP2, (MP2 Hessian; deprecated post 5.0) 
  Lucas Lang             : DCDCAS                                        
  Marvin Lechner         : AUTO-CI (C++ implementation), FIC-MRCC        
  Spencer Leger          : CASSCF response                               
  Dagmar Lenk            : GEPOL surface, SMD, ORCA-2-JSON               
  Dimitrios Liakos       : Extrapolation schemes; Compound Job, initial MDCI parallelization 
  Dimitrios Manganas     : Further ROCIS development; embedding schemes. LFT, Crystal Embedding 
  Dimitrios Pantazis     : SARC Basis sets                               
  Anastasios Papadopoulos: AUTO-CI, single reference methods and gradients 
  Taras Petrenko         : pre 6.0 DFT Hessian and TD-DFT gradient, (ASA, deprecated), ECA, 1-Electron XAS/XES, NRVS 
  Peter Pinski           : DLPNO-MP2, DLPNO-MP2 Gradient                 
  Christoph Reimann      : Effective Core Potentials                     
  Marius Retegan         : Local ZFS, SOC                                
  Christoph Riplinger    : Optimizer, TS searches, QM/MM, DLPNO-CCSD(T), (RO)-DLPNO pert. Triples 
  Michael Roemelt        : Original ROCIS implementation                 
  Masaaki Saitow         : Open-shell DLPNO-CCSD energy and density      
  Barbara Sandhoefer     : DKH picture change effects                    
  Kantharuban Sivalingam : CASSCF convergence/infrastructure, NEVPT2 and variants, FIC-MRCI 
  Bernardo de Souza      : ESD, SOC TD-DFT                               
  Georgi L. Stoychev     : AutoAux, RI-MP2 NMR, DLPNO-MP2 response, X2C  
  Van Anh Tran           : RI-MP2 g-tensors                              
  Willem Van den Heuvel  : Paramagnetic NMR                              
  Zikuan Wang            : NOTCH, Electric field optimization            
  Frank Wennmohs         : Technical directorship and infrastructure     
  Hang Xu                : AUTO-CI-Response properties                   
                                                                         
[FACCTs GmbH]                                                            
  Markus Bursch, Miquel Garcia-Rates, Christoph Riplinger, Bernardo de Souza, Georgi L. Stoychev 
                                                                 
  APM, Basis sets (HGBS, AHGBS, def-TZVP (Ac-Lr), def2-XVPD (La-Lu)), CI-OPT, improved COSX, DLPNO-Multilevel,           
  DOCKER, DRACO, updates on ESD, GOAT, IRC, LR-CPCM, MBIS, meta-GGA TD-DFT gradient, ML-optimized integration grids, 
  MM, NACMEs, nearIR, NEB, NEB-TS, NL-DFT gradient (VV10), 2- and 3-layer-ONIOM, interface openCOSMO-RS, QMMM,   
  Crystal-QMMM, SF, symmetry and pop. for TD-DFT, r2SCAN hybrids, SOLVATOR                                   
                                                                         
[Other institutions]                                                     
  V. Asgeirsson          : NEB                                           
  Christoph Bannwarth    : sTDA-DFT, sTD-DFT, PBEh-3c, B97-3c, D3        
  Sebastian Ehlert       : rSCAN, r2SCAN, r2SCAN-3c, D4, dhf basis sets  
  Marvin Friede          : D4 for Fr, Ra, Ac-Lr                          
  Lars Goerigk           : TD-DFT with DH, B97 family of functionals     
  Stefan Grimme          : VdW corrections, initial TS optimization, DFT functionals, gCP, sTDA/sTD-DF 
  Waldemar Hujo          : DFT-NL                                        
  H. Jonsson             : NEB                                           
  Holger Kruse           : gCP                                           
  Marcel Mueller         : wB97X-3c, vDZP basis set                      
  Hagen Neugebauer       : wr2SCAN                                       
  Tobias Risthaus        : range-separated hybrid DFT                    
  Lukas Wittmann         : regularized MP2, r2SCAN double-hybrids, wr2SCAN        
                                                                         
We gratefully acknowledge several colleagues who have allowed us to      
interface, adapt or use parts of their codes:                            
  Ed Valeev, F. Pavosevic, A. Kumar             : LibInt (2-el integral package), F12 methods 
  Garnet Chan, S. Sharma, J. Yang, R. Olivares  : DMRG                   
  Ulf Ekstrom                                   : XCFun DFT Library      
  Mihaly Kallay                                 : mrcc  (arbitrary order and MRCC methods)
  Frank Weinhold                                : gennbo (NPA and NBO analysis)           
  Simon Mueller                                 : openCOSMO-RS                            
  Christopher J. Cramer and Donald G. Truhlar   : smd solvation model                     
  S Lehtola, MJT Oliveira, MAL Marques          : LibXC Library                           
  Liviu Ungur et al                             : ANISO software                          


 Your calculation uses the libint2 library for the computation of 2-el integrals
 For citations please refer to: http://libint.valeyev.net

 Your ORCA version has been built with support for libXC version: 6.2.2
 For citations please refer to: https://libxc.gitlab.io

 This ORCA versions uses:
   CBLAS   interface :  Fast vector & matrix operations
   LAPACKE interface :  Fast linear algebra routines
   SCALAPACK package :  Parallel linear algebra routines
   Shared memory     :  Shared parallel matrices
   BLAS/LAPACK       :  OpenBLAS 0.3.27  USE64BITINT DYNAMIC_ARCH NO_AFFINITY Zen SINGLE_THREADED
        Core in use  :  Zen
   Copyright (c) 2011-2014, The OpenBLAS Project


Your calculation utilizes the geometrical counterpoise correction gCP
Please cite in your paper:
H.Kruse, S. Grimme J.Chem.Phys., 136, (2012), 154101 
   

Your calculation utilizes the atom-pairwise dispersion correction
based on EEQ partial charges (D4)


================================================================================

----- Orbital basis set information -----
Your calculation utilizes the basis: def2-SV(P)
   F. Weigend and R. Ahlrichs, Phys. Chem. Chem. Phys. 7, 3297 (2005).

----- AuxJ basis set information -----
Your calculation utilizes the auxiliary basis: def2/J
   F. Weigend, Phys. Chem. Chem. Phys. 8, 1057 (2006).

================================================================================
                                        WARNINGS
                       Please study these warnings very carefully!
================================================================================

WARNING: Old DensityContainer found on disk!
         Will remove this file - 
         If you want to keep old densities, please start your calculation with a different basename. 


================================================================================
                                       INPUT FILE
================================================================================
NAME = sp.inp
|  1> ! pbe def2-sv(p) def2/J RI DEFGRID1 loosescf d4 GCP(DFT/SV(P)) printgap
|  2> %output
|  3>     printlevel normal
|  4> end
|  5> * xyz 0 1
|  6> C -1.7669937969 0.6801461592 0.0007847213
|  7> C -0.4741319844 -0.112207125 -0.0004453341
|  8> O -0.4213977657 -1.3219338401 -0.0003445684
|  9> N 0.6363498535 0.6625634475 -0.0017436461
| 10> C 1.9601841829 0.0803868879 0.0010919232
| 11> H -1.8285442419 1.2927334961 0.897721877
| 12> H -1.8117382902 1.3283370148 -0.8716004178
| 13> H -2.6068170748 -0.0076045444 -0.020099855
| 14> H 0.549592833 1.6644340669 0.0018816541
| 15> H 2.0942735578 -0.5430945094 0.8873757605
| 16> H 2.7056230871 0.8702927772 -0.0050932898
| 17> H 2.0915177155 -0.5543212494 -0.8775414722
| 18> *
| 19> 
| 20>                          ****END OF INPUT****
================================================================================

                       ****************************
                       * Single Point Calculation *
                       ****************************

---------------------------------
CARTESIAN COORDINATES (ANGSTROEM)
---------------------------------
  C     -1.766994    0.680146    0.000785
  C     -0.474132   -0.112207   -0.000445
  O     -0.421398   -1.321934   -0.000345
  N      0.636350    0.662563   -0.001744
  C      1.960184    0.080387    0.001092
  H     -1.828544    1.292733    0.897722
  H     -1.811738    1.328337   -0.871600
  H     -2.606817   -0.007605   -0.020100
  H      0.549593    1.664434    0.001882
  H      2.094274   -0.543095    0.887376
  H      2.705623    0.870293   -0.005093
  H      2.091518   -0.554321   -0.877541

----------------------------
CARTESIAN COORDINATES (A.U.)
----------------------------
  NO LB      ZA    FRAG     MASS         X           Y           Z
   0 C     6.0000    0    12.011   -3.339134    1.285290    0.001483
   1 C     6.0000    0    12.011   -0.895980   -0.212041   -0.000842
   2 O     8.0000    0    15.999   -0.796326   -2.498093   -0.000651
   3 N     7.0000    0    14.007    1.202527    1.252063   -0.003295
   4 C     6.0000    0    12.011    3.704211    0.151909    0.002063
   5 H     1.0000    0     1.008   -3.455448    2.442912    1.696448
   6 H     1.0000    0     1.008   -3.423689    2.510193   -1.647086
   7 H     1.0000    0     1.008   -4.926170   -0.014371   -0.037983
   8 H     1.0000    0     1.008    1.038580    3.145325    0.003556
   9 H     1.0000    0     1.008    3.957603   -1.026300    1.676897
  10 H     1.0000    0     1.008    5.112887    1.644615   -0.009625
  11 H     1.0000    0     1.008    3.952396   -1.047515   -1.658313

--------------------------------
INTERNAL COORDINATES (ANGSTROEM)
--------------------------------
 C      0   0   0     0.000000000000     0.00000000     0.00000000
 C      1   0   0     1.516349862743     0.00000000     0.00000000
 O      2   1   0     1.210875564706   123.99881925     0.00000000
 N      2   1   3     1.354046172747   113.59419660   179.99745081
 C      4   2   1     1.446193250814   121.35851361   179.80823992
 H      1   2   3     1.087909906143   110.06842481   118.62578277
 H      1   2   3     1.087754239655   110.23076677   238.72659457
 H      1   2   3     1.085698085995   109.17773060   358.77974613
 H      4   2   1     1.005626501950   119.95340187     0.24333086
 H      5   4   2     1.091882802090   110.11304314   300.39801598
 H      5   4   2     1.086125559365   109.60176880   179.74642892
 H      5   4   2     1.091833119049   110.03221693    59.14424765

---------------------------
INTERNAL COORDINATES (A.U.)
---------------------------
 C      0   0   0     0.000000000000     0.00000000     0.00000000
 C      1   0   0     2.865485963793     0.00000000     0.00000000
 O      2   1   0     2.288223199552   123.99881925     0.00000000
 N      2   1   3     2.558776439177   113.59419660   179.99745081
 C      4   2   1     2.732909180763   121.35851361   179.80823992
 H      1   2   3     2.055851780991   110.06842481   118.62578277
 H      1   2   3     2.055557613959   110.23076677   238.72659457
 H      1   2   3     2.051672046652   109.17773060   358.77974613
 H      4   2   1     1.900358681699   119.95340187     0.24333086
 H      5   4   2     2.063359466288   110.11304314   300.39801598
 H      5   4   2     2.052479854252   109.60176880   179.74642892
 H      5   4   2     2.063265578948   110.03221693    59.14424765

---------------------
BASIS SET INFORMATION
---------------------
There are 4 groups of distinct atoms

 Group   1 Type C   : 7s4p1d contracted to 3s2p1d pattern {511/31/1}
 Group   2 Type O   : 7s4p1d contracted to 3s2p1d pattern {511/31/1}
 Group   3 Type N   : 7s4p1d contracted to 3s2p1d pattern {511/31/1}
 Group   4 Type H   : 4s contracted to 2s pattern {31}

Atom   0C    basis set group =>   1
Atom   1C    basis set group =>   1
Atom   2O    basis set group =>   2
Atom   3N    basis set group =>   3
Atom   4C    basis set group =>   1
Atom   5H    basis set group =>   4
Atom   6H    basis set group =>   4
Atom   7H    basis set group =>   4
Atom   8H    basis set group =>   4
Atom   9H    basis set group =>   4
Atom  10H    basis set group =>   4
Atom  11H    basis set group =>   4
---------------------------------
AUXILIARY/J BASIS SET INFORMATION
---------------------------------
There are 4 groups of distinct atoms

 Group   1 Type C   : 12s5p4d2f1g contracted to 6s4p3d1f1g pattern {711111/2111/211/2/1}
 Group   2 Type O   : 12s5p4d2f1g contracted to 6s4p3d1f1g pattern {711111/2111/211/2/1}
 Group   3 Type N   : 12s5p4d2f1g contracted to 6s4p3d1f1g pattern {711111/2111/211/2/1}
 Group   4 Type H   : 5s2p1d contracted to 3s1p1d pattern {311/2/1}

Atom   0C    basis set group =>   1
Atom   1C    basis set group =>   1
Atom   2O    basis set group =>   2
Atom   3N    basis set group =>   3
Atom   4C    basis set group =>   1
Atom   5H    basis set group =>   4
Atom   6H    basis set group =>   4
Atom   7H    basis set group =>   4
Atom   8H    basis set group =>   4
Atom   9H    basis set group =>   4
Atom  10H    basis set group =>   4
Atom  11H    basis set group =>   4

Checking for AutoStart:
The File: sp.gbw exists
Trying to determine its content:
     ... Fine, the file contains calculation information
     ... Fine, the calculation information was read
     ... Fine, the file contains a basis set
     ... Fine, the basis set was read
     ... Fine, the file contains a geometry
     ... Fine, the geometry was read
     ... Fine, the file contains a set of orbitals
     ... Fine, the orbitals can be read
     => possible old guess file was deleted
     => GBW file was renamed to GES file
     => GES file is set as startup file
     => Guess is set to MORead
     ... now leaving AutoStart

------------------------------------------------------------------------------
                             ORCA STARTUP CALCULATIONS
                           -- RI-GTO INTEGRALS CHOSEN --
------------------------------------------------------------------------------
------------------------------------------------------------------------------
                   ___                                                        
                  /   \      - P O W E R E D   B Y -                         
                 /     \                                                     
                 |  |  |   _    _      __       _____    __    __             
                 |  |  |  | |  | |    /  \     |  _  \  |  |  /  |          
                  \  \/   | |  | |   /    \    | | | |  |  | /  /          
                 / \  \   | |__| |  /  /\  \   | |_| |  |  |/  /          
                |  |  |   |  __  | /  /__\  \  |    /   |      \           
                |  |  |   | |  | | |   __   |  |    \   |  |\   \          
                \     /   | |  | | |  |  |  |  | |\  \  |  | \   \       
                 \___/    |_|  |_| |__|  |__|  |_| \__\ |__|  \__/        
                                                                              
                      - O R C A' S   B I G   F R I E N D -                    
                                      &                                       
                       - I N T E G R A L  F E E D E R -                       
                                                                              
 v1 FN, 2020, v2 2021, v3 2022-2024                                           
------------------------------------------------------------------------------


----------------------
SHARK INTEGRAL PACKAGE
----------------------

Number of atoms                             ...     12
Number of basis functions                   ...     84
Number of shells                            ...     44
Maximum angular momentum                    ...      2
Integral batch strategy                     ... SHARK/LIBINT Hybrid
RI-J (if used) integral strategy            ... SPLIT-RIJ (Revised 2003 algorithm where possible)
Printlevel                                  ...      1
Contraction scheme used                     ... SEGMENTED contraction
Prescreening option                         ... SCHWARTZ
   Thresh                                   ... 1.000e-09
   Tcut                                     ... 1.000e-10
   Tpresel                                  ... 1.000e-10 
Coulomb Range Separation                    ... NOT USED
Exchange Range Separation                   ... NOT USED
Multipole approximations                    ... NOT USED
Finite Nucleus Model                        ... NOT USED
CABS basis                                  ... NOT available
Auxiliary Coulomb fitting basis             ... AVAILABLE
   # of basis functions in Aux-J            ...    322
   # of shells in Aux-J                     ...    110
   Maximum angular momentum in Aux-J        ...      4
Auxiliary J/K fitting basis                 ... NOT available
Auxiliary Correlation fitting basis         ... NOT available
Auxiliary 'external' fitting basis          ... NOT available

Checking pre-screening integrals            ... done (  0.0 sec) Dimension = 44
Check shell pair data                       ... done (  0.0 sec)
Shell pair information
Shell pair cut-off parameter TPreSel        ...   1.0e-10
Total number of shell pairs                 ...       990
Shell pairs after pre-screening             ...       972
Total number of primitive shell pairs       ...      4002
Primitive shell pairs kept                  ...      2954
          la=0 lb=0:    421 shell pairs
          la=1 lb=0:    288 shell pairs
          la=1 lb=1:     55 shell pairs
          la=2 lb=0:    143 shell pairs
          la=2 lb=1:     50 shell pairs
          la=2 lb=2:     15 shell pairs

Calculating one electron integrals          ... done (  0.0 sec)
Calculating RI/J V-Matrix + Cholesky decomp.... done (  0.0 sec)
Calculating Nuclear repulsion               ... done (  0.0 sec) ENN=    181.070644592044 Eh

Diagonalization of the overlap matrix:
Smallest eigenvalue                        ... 3.058e-03
Time for diagonalization                   ...    0.000 sec
Threshold for overlap eigenvalues          ... 1.000e-07
Number of eigenvalues below threshold      ... 0
Time for construction of square roots      ...    0.000 sec
Total time needed                          ...    0.002 sec

-------------------
DFT GRID GENERATION
-------------------

General Integration Accuracy     IntAcc      ... 4.159
Radial Grid Type                 RadialGrid  ... OptM3 with GC (2021)
Angular Grid (max. ang.)         AngularGrid ... 3 (Lebedev-194)
Angular grid pruning method      GridPruning ... 4 (adaptive)
Weight generation scheme         WeightScheme... mBecke (2022)
Basis function cutoff            BFCut       ... 1.0000e-10
Integration weight cutoff        WCut        ... 1.0000e-14
Partially contracted basis set               ... off
Rotationally invariant grid construction     ... off
Angular grids for H and He will be reduced by one unit

Total number of grid points                  ...    26460
Total number of batches                      ...      420
Average number of points per batch           ...       63
Average number of grid points per atom       ...     2205
Initializing property integral containers    ... done (  0.0 sec)

SHARK setup successfully completed in   0.1 seconds

Maximum memory used throughout the entire STARTUP-calculation: 13.7 MB
-------------------------------------------------------------------------------
                                 ORCA GUESS
                   Start orbitals & Density for SCF / CASSCF
-------------------------------------------------------------------------------

------------
SCF SETTINGS
------------
Hamiltonian:
 Density Functional     Method          .... DFT(GTOs)
 Exchange Functional    Exchange        .... PBE
   PBE kappa parameter   XKappa         ....  0.804000
   PBE mue parameter    XMuePBE         ....  0.219520
 Correlation Functional Correlation     .... PBE
   PBE beta parameter  CBetaPBE         ....  0.066725
 LDA part of GGA corr.  LDAOpt          .... PW91-LDA
 Gradients option       PostSCFGGA      .... off
   NL short-range parameter             ....  6.400000
 RI-approximation to the Coulomb term is turned on
   Number of AuxJ basis functions       .... 322


General Settings:
 Integral files         IntName         .... sp
 Hartree-Fock type      HFTyp           .... RHF
 Total Charge           Charge          ....    0
 Multiplicity           Mult            ....    1
 Number of Electrons    NEL             ....   40
 Basis Dimension        Dim             ....   84
 Nuclear Repulsion      ENuc            ....    181.0706445920 Eh

Convergence Acceleration:
 AO-DIIS                CNVDIIS         .... on
   Start iteration      DIISMaxIt       ....    12
   Startup error        DIISStart       ....  0.200000
   # of expansion vecs  DIISMaxEq       ....     5
   Bias factor          DIISBfac        ....   1.050
   Max. coefficient     DIISMaxC        ....  10.000
 MO-DIIS                CNVKDIIS        .... off
 Trust-Rad. Augm. Hess. CNVTRAH         .... auto
   Auto Start mean grad. ratio tolernc. ....  1.125000
   Auto Start start iteration           ....     1
   Auto Start num. interpolation iter.  ....    10
   Max. Number of Micro iterations      ....    24
   Max. Number of Macro iterations      .... Maxiter - #DIIS iter
   Number of Davidson start vectors     ....     2
   Converg. threshold    (grad. norm)   ....   1.000e-04
   Grad. Scal. Fac. for Micro threshold ....   0.100
   Minimum threshold for Micro iter.    ....   1.000e-02
   NR start threshold (gradient norm)   ....   1.000e-04
   Initial trust radius                 ....   0.400
   Minimum AH scaling param. (alpha)    ....   1.000
   Maximum AH scaling param. (alpha)    .... 1000.000
   Quad. conv. algorithm                .... NR
   White noise on init. David. guess    .... on
   Maximum white noise                  ....   0.010
   Pseudo random numbers                .... off
   Inactive MOs                         .... canonical
   Orbital update algorithm             .... Taylor
   Preconditioner                       .... Diag
   Full preconditioner red. dimension   ....   250
 SOSCF                  CNVSOSCF        .... on
   Start iteration      SOSCFMaxIt      ....   150
   Startup grad/error   SOSCFStart      ....  0.003300
   Hessian update       SOSCFHessUp     .... L-BFGS
 Level Shifting         CNVShift        .... on
   Level shift para.    LevelShift      ....    0.2500
   Turn off err/grad.   ShiftErr        ....    0.0010
 Zerner damping         CNVZerner       .... off
 Static damping         CNVDamp         .... on
   Fraction old density DampFac         ....    0.7000
   Max. Damping (<1)    DampMax         ....    0.9800
   Min. Damping (>=0)   DampMin         ....    0.0000
   Turn off err/grad.   DampErr         ....    0.1000

SCF Procedure:
 Maximum # iterations   MaxIter         ....   125
 SCF integral mode      SCFMode         .... Direct
   Integral package                     .... SHARK and LIBINT hybrid scheme
 Reset frequency        DirectResetFreq ....    20
 Integral Threshold     Thresh          ....  1.000e-09 Eh
 Primitive CutOff       TCut            ....  1.000e-10 Eh

Convergence Tolerance:
 Convergence Check Mode ConvCheckMode   .... Total+1el-Energy
 Convergence forced     ConvForced      .... 0
 Energy Change          TolE            ....  1.000e-05 Eh
 1-El. energy change                    ....  1.000e-02 Eh
 Orbital Gradient       TolG            ....  1.000e-04
 Orbital Rotation angle TolX            ....  1.000e-04
 DIIS Error             TolErr          ....  5.000e-04

---------------------
INITIAL GUESS: MOREAD
---------------------
Guess MOs are being read from file: sp.ges
Input Geometry matches current geometry (good)
Input basis set matches current basis set (good)
Occupation numbers will be reassigned to an Aufbau configuration
MOs were renormalized
MOs were reorthogonalized (Cholesky)
                      ------------------
                      INITIAL GUESS DONE (   0.0 sec)
                      ------------------
             **** ENERGY FILE WAS UPDATED (sp.en.tmp) ****
Finished Guess after   0.0 sec
Maximum memory used throughout the entire GUESS-calculation: 7.4 MB

-------------------------------------------------------------------------------------------
                                      ORCA LEAN-SCF
                              memory conserving SCF solver
-------------------------------------------------------------------------------------------

----------------------------------------D-I-I-S--------------------------------------------
Iteration    Energy (Eh)           Delta-E    RMSDP     MaxDP     DIISErr   Damp  Time(sec)
-------------------------------------------------------------------------------------------
               ***  Starting incremental Fock matrix formation  ***
                              *** Initializing SOSCF ***
---------------------------------------S-O-S-C-F--------------------------------------
Iteration    Energy (Eh)           Delta-E    RMSDP     MaxDP     MaxGrad    Time(sec)
--------------------------------------------------------------------------------------
    1    -248.0155796420311276     0.00e+00  7.33e-05  1.15e-03  1.69e-04     0.1
               *** Restarting incremental Fock matrix formation ***
    2    -248.0155783810705543     1.26e-06  1.84e-04  3.30e-03  4.92e-04     0.1
    3    -248.0155574124243572     2.10e-05  1.46e-04  2.63e-03  1.72e-03     0.1
    4    -248.0155811697750892    -2.38e-05  2.54e-05  3.54e-04  6.49e-05     0.1
    5    -248.0155810070571079     1.63e-07  1.40e-05  2.12e-04  8.56e-05     0.1
                 **** Energy Check signals convergence ****

               *****************************************************
               *                     SUCCESS                       *
               *           SCF CONVERGED AFTER   5 CYCLES          *
               *****************************************************

             **** ENERGY FILE WAS UPDATED (sp.en.tmp) ****

----------------
TOTAL SCF ENERGY
----------------

Total Energy       :       -248.01558100705711 Eh           -6748.84706 eV

Components:
Nuclear Repulsion  :        181.07064459204429 Eh            4927.18273 eV
Electronic Energy  :       -429.08622559910140 Eh          -11676.02980 eV
One Electron Energy:       -694.87776447761701 Eh          -18908.58527 eV
Two Electron Energy:        265.79153887851561 Eh            7232.55547 eV

Virial components:
Potential Energy   :       -494.08843261779157 Eh          -13444.82977 eV
Kinetic Energy     :        246.07285161073446 Eh            6695.98271 eV
Virial Ratio       :          2.00789493592489

DFT components:
N(Alpha)           :       20.000138248192 electrons
N(Beta)            :       20.000138248192 electrons
N(Total)           :       40.000276496384 electrons
E(X)               :      -32.766628871065 Eh       
E(C)               :       -1.328362542089 Eh       
E(XC)              :      -34.094991413154 Eh       

---------------
SCF CONVERGENCE
---------------

  Last Energy change         ...   -1.6272e-07  Tolerance :   1.0000e-05
  Last MAX-Density change    ...    2.1193e-04  Tolerance :   1.0000e-03
  Last RMS-Density change    ...    1.3954e-05  Tolerance :   1.0000e-04
  Last DIIS Error            ...    8.3355e-04  Tolerance :   5.0000e-04
  Last Orbital Gradient      ...    8.5636e-05  Tolerance :   1.0000e-04
  Last Orbital Rotation      ...    1.2837e-04  Tolerance :   1.0000e-04


----------------
ORBITAL ENERGIES
----------------

  NO   OCC          E(Eh)            E(eV) 
   0   2.0000     -18.708068      -509.0724 
   1   2.0000     -14.011497      -381.2722 
   2   2.0000      -9.973392      -271.3898 
   3   2.0000      -9.916903      -269.8526 
   4   2.0000      -9.885170      -268.9891 
   5   2.0000      -0.929672       -25.2977 
   6   2.0000      -0.829233       -22.5646 
   7   2.0000      -0.675505       -18.3814 
   8   2.0000      -0.612977       -16.6800 
   9   2.0000      -0.527031       -14.3413 
  10   2.0000      -0.451055       -12.2738 
  11   2.0000      -0.411483       -11.1970 
  12   2.0000      -0.405999       -11.0478 
  13   2.0000      -0.375903       -10.2288 
  14   2.0000      -0.360185        -9.8011 
  15   2.0000      -0.346308        -9.4235 
  16   2.0000      -0.334243        -9.0952 
  17   2.0000      -0.307944        -8.3796 
  18   2.0000      -0.211249        -5.7484 
  19   2.0000      -0.194044        -5.2802 
  20   0.0000       0.004323         0.1176 
  21   0.0000       0.022615         0.6154 
  22   0.0000       0.064730         1.7614 
  23   0.0000       0.073458         1.9989 
  24   0.0000       0.107699         2.9306 
  25   0.0000       0.108549         2.9538 
  26   0.0000       0.120322         3.2741 
  27   0.0000       0.136549         3.7157 
  28   0.0000       0.155124         4.2211 
  29   0.0000       0.212674         5.7871 
  30   0.0000       0.250935         6.8283 
*Only the first 10 virtual orbitals were printed.

                    ********************************
                    * MULLIKEN POPULATION ANALYSIS *
                    ********************************

-----------------------
MULLIKEN ATOMIC CHARGES
-----------------------
   0 C :   -0.289868
   1 C :    0.041998
   2 O :   -0.216877
   3 N :   -0.282895
   4 C :   -0.166230
   5 H :    0.117880
   6 H :    0.116541
   7 H :    0.121077
   8 H :    0.215966
   9 H :    0.120427
  10 H :    0.101135
  11 H :    0.120846
Sum of atomic charges:   -0.0000000

--------------------------------
MULLIKEN REDUCED ORBITAL CHARGES
--------------------------------
  0 C s       :     3.057800  s :     3.057800
      pz      :     1.058143  p :     3.206544
      px      :     1.070583
      py      :     1.077818
      dz2     :     0.004888  d :     0.025524
      dxz     :     0.001715
      dyz     :     0.008348
      dx2y2   :     0.003496
      dxy     :     0.007078

  1 C s       :     3.057186  s :     3.057186
      pz      :     0.872557  p :     2.785471
      px      :     0.978097
      py      :     0.934817
      dz2     :     0.005726  d :     0.115345
      dxz     :     0.009380
      dyz     :     0.025919
      dx2y2   :     0.024497
      dxy     :     0.049823

  2 O s       :     3.739317  s :     3.739317
      pz      :     1.403636  p :     4.460080
      px      :     1.739940
      py      :     1.316504
      dz2     :     0.001949  d :     0.017480
      dxz     :     0.000028
      dyz     :     0.005507
      dx2y2   :     0.006041
      dxy     :     0.003954

  3 N s       :     3.380945  s :     3.380945
      pz      :     1.678763  p :     3.879639
      px      :     1.119720
      py      :     1.081156
      dz2     :     0.002794  d :     0.022311
      dxz     :     0.003833
      dyz     :     0.001158
      dx2y2   :     0.009450
      dxy     :     0.005078

  4 C s       :     3.089372  s :     3.089372
      pz      :     1.111583  p :     3.034956
      px      :     0.882681
      py      :     1.040692
      dz2     :     0.007021  d :     0.041902
      dxz     :     0.007145
      dyz     :     0.009694
      dx2y2   :     0.006695
      dxy     :     0.011346

  5 H s       :     0.882120  s :     0.882120

  6 H s       :     0.883459  s :     0.883459

  7 H s       :     0.878923  s :     0.878923

  8 H s       :     0.784034  s :     0.784034

  9 H s       :     0.879573  s :     0.879573

 10 H s       :     0.898865  s :     0.898865

 11 H s       :     0.879154  s :     0.879154


------------------------
MULLIKEN OVERLAP CHARGES
------------------------
B(  0-C ,  1-C ) :   0.7072 B(  0-C ,  2-O ) :  -0.1857 B(  0-C ,  3-N ) :  -0.3967 
B(  0-C ,  5-H ) :   0.6650 B(  0-C ,  6-H ) :   0.6633 B(  0-C ,  7-H ) :   0.6373 
B(  1-C ,  2-O ) :   1.5070 B(  1-C ,  3-N ) :   0.5671 B(  2-O ,  3-N ) :  -0.2468 
B(  3-N ,  4-C ) :   0.6348 B(  3-N ,  8-H ) :   0.5927 B(  3-N ,  9-H ) :  -0.0747 
B(  3-N , 11-H ) :  -0.0742 B(  4-C ,  8-H ) :  -0.0630 B(  4-C ,  9-H ) :   0.7835 
B(  4-C , 10-H ) :   0.7501 B(  4-C , 11-H ) :   0.7828 B(  9-H , 11-H ) :  -0.0676 



                     *******************************
                     * LOEWDIN POPULATION ANALYSIS *
                     *******************************

----------------------
LOEWDIN ATOMIC CHARGES
----------------------
   0 C :   -0.369861
   1 C :    0.004852
   2 O :   -0.193175
   3 N :   -0.180777
   4 C :   -0.258178
   5 H :    0.133892
   6 H :    0.132917
   7 H :    0.138263
   8 H :    0.229024
   9 H :    0.122290
  10 H :    0.118056
  11 H :    0.122696

-------------------------------
LOEWDIN REDUCED ORBITAL CHARGES
-------------------------------
  0 C s       :     2.958680  s :     2.958680
      pz      :     1.120543  p :     3.345709
      px      :     1.100836
      py      :     1.124330
      dz2     :     0.013330  d :     0.065472
      dxz     :     0.003380
      dyz     :     0.020261
      dx2y2   :     0.008677
      dxy     :     0.019825

  1 C s       :     2.839456  s :     2.839456
      pz      :     0.860026  p :     2.884331
      px      :     0.998854
      py      :     1.025452
      dz2     :     0.014361  d :     0.271360
      dxz     :     0.019020
      dyz     :     0.050483
      dx2y2   :     0.059961
      dxy     :     0.127536

  2 O s       :     3.546289  s :     3.546289
      pz      :     1.406022  p :     4.615889
      px      :     1.756546
      py      :     1.453321
      dz2     :     0.004285  d :     0.030996
      dxz     :     0.000023
      dyz     :     0.007182
      dx2y2   :     0.013030
      dxy     :     0.006476

  3 N s       :     3.116219  s :     3.116219
      pz      :     1.638910  p :     4.008622
      px      :     1.185498
      py      :     1.184214
      dz2     :     0.005396  d :     0.055936
      dxz     :     0.007283
      dyz     :     0.002233
      dx2y2   :     0.024374
      dxy     :     0.016651

  4 C s       :     2.938764  s :     2.938764
      pz      :     1.153557  p :     3.221893
      px      :     0.956493
      py      :     1.111842
      dz2     :     0.016404  d :     0.097522
      dxz     :     0.015380
      dyz     :     0.024144
      dx2y2   :     0.014804
      dxy     :     0.026791

  5 H s       :     0.866108  s :     0.866108

  6 H s       :     0.867083  s :     0.867083

  7 H s       :     0.861737  s :     0.861737

  8 H s       :     0.770976  s :     0.770976

  9 H s       :     0.877710  s :     0.877710

 10 H s       :     0.881944  s :     0.881944

 11 H s       :     0.877304  s :     0.877304


---------------------------------
LOEWDIN BOND ORDERS (THRESH 0.050000)
---------------------------------
B(  0-C ,  1-C ) :   1.0804 B(  0-C ,  2-O ) :   0.1005 B(  0-C ,  3-N ) :   0.0748 
B(  0-C ,  5-H ) :   0.9262 B(  0-C ,  6-H ) :   0.9266 B(  0-C ,  7-H ) :   0.9308 
B(  1-C ,  2-O ) :   2.1575 B(  1-C ,  3-N ) :   1.3811 B(  1-C ,  4-C ) :   0.0731 
B(  2-O ,  3-N ) :   0.2286 B(  3-N ,  4-C ) :   1.1184 B(  3-N ,  8-H ) :   0.8606 
B(  4-C ,  9-H ) :   0.9399 B(  4-C , 10-H ) :   0.9468 B(  4-C , 11-H ) :   0.9398 


------------------------------------------
LOEWDIN REDUCED ORBITAL POPULATIONS PER MO
-------------------------------------------
THRESHOLD FOR PRINTING IS 0.1%%
                      0         1         2         3         4         5   
                 -18.70807 -14.01150  -9.97339  -9.91690  -9.88517  -0.92967
                   2.00000   2.00000   2.00000   2.00000   2.00000   2.00000
                  --------  --------  --------  --------  --------  --------
 0 C  s               0.0       0.0       0.0       0.0      99.7       1.4
 0 C  px              0.0       0.0       0.1       0.0       0.0       1.4
 0 C  py              0.0       0.0       0.0       0.0       0.0       0.7
 1 C  s               0.0       0.0      99.3       0.0       0.0      23.8
 1 C  px              0.0       0.1       0.0       0.0       0.1       0.9
 1 C  py              0.1       0.0       0.0       0.0       0.0       6.7
 1 C  dz2             0.0       0.0       0.0       0.0       0.0       0.6
 1 C  dx2y2           0.0       0.0       0.0       0.0       0.0       0.8
 2 O  s              99.9       0.0       0.0       0.0       0.0      40.5
 2 O  py              0.0       0.0       0.3       0.0       0.0       6.4
 2 O  dx2y2           0.0       0.0       0.0       0.0       0.0       0.2
 3 N  s               0.0      99.8       0.0       0.0       0.0       9.0
 3 N  px              0.0       0.0       0.1       0.1       0.0       0.8
 3 N  py              0.0       0.0       0.1       0.0       0.0       1.3
 4 C  s               0.0       0.0       0.0      99.7       0.0       1.3
 4 C  px              0.0       0.1       0.0       0.0       0.0       1.4
 5 H  s               0.0       0.0       0.0       0.0       0.1       0.2
 6 H  s               0.0       0.0       0.0       0.0       0.1       0.2
 7 H  s               0.0       0.0       0.0       0.0       0.1       0.3
 8 H  s               0.0       0.0       0.0       0.0       0.0       1.3
 9 H  s               0.0       0.0       0.0       0.1       0.0       0.2
10 H  s               0.0       0.0       0.0       0.1       0.0       0.1
11 H  s               0.0       0.0       0.0       0.1       0.0       0.2

                      6         7         8         9        10        11   
                  -0.82923  -0.67551  -0.61298  -0.52703  -0.45106  -0.41148
                   2.00000   2.00000   2.00000   2.00000   2.00000   2.00000
                  --------  --------  --------  --------  --------  --------
 0 C  s               0.2      26.5      16.2       0.3       2.0       0.0
 0 C  pz              0.0       0.0       0.0       0.0       0.0      17.2
 0 C  px              0.3       0.8       0.9       1.1      13.3       0.0
 0 C  py              0.1       0.0       0.0       0.1       2.4       0.0
 0 C  dyz             0.0       0.0       0.0       0.0       0.0       0.1
 0 C  dxy             0.0       0.0       0.0       0.0       0.2       0.0
 1 C  s               0.5       5.9       0.3       4.5       3.2       0.0
 1 C  pz              0.0       0.0       0.0       0.0       0.0      19.0
 1 C  px              4.6       5.6       7.9       5.4       4.4       0.0
 1 C  py             15.9       8.9       0.2       2.8       2.3       0.0
 1 C  dx2y2           0.6       0.1       0.0       0.4       0.2       0.0
 1 C  dxy             0.4       0.0       0.4       0.0       0.0       0.0
 2 O  s              12.2       1.9       0.0       3.7       0.1       0.0
 2 O  pz              0.0       0.0       0.0       0.0       0.0       6.4
 2 O  px              0.1       0.2       0.3       1.3       1.6       0.0
 2 O  py              0.8       0.3       0.0       1.7       0.4       0.0
 2 O  dyz             0.0       0.0       0.0       0.0       0.0       0.1
 3 N  s              38.4       0.1       3.3       1.2       1.6       0.0
 3 N  pz              0.0       0.0       0.0       0.0       0.0      17.9
 3 N  px              0.2      12.3      10.4       6.8      11.1       0.0
 3 N  py              0.0       0.3       0.9      39.8       8.8       0.0
 3 N  dz2             0.1       0.0       0.0       0.0       0.0       0.0
 3 N  dx2y2           0.0       0.0       0.1       0.3       0.0       0.0
 3 N  dxy             0.0       0.1       0.1       0.1       0.0       0.0
 4 C  s               8.6      11.6      22.2       1.1       2.1       0.0
 4 C  pz              0.0       0.0       0.0       0.0       0.0      19.0
 4 C  px              3.8       0.1       1.8       0.0      23.1       0.0
 4 C  py              1.1       0.1       0.1       7.0       0.3       0.0
 4 C  dyz             0.0       0.0       0.0       0.0       0.0       0.1
 4 C  dx2y2           0.1       0.0       0.0       0.0       0.3       0.0
 4 C  dxy             0.1       0.0       0.0       0.1       0.3       0.0
 5 H  s               0.1       6.2       4.3       0.3       2.3       4.9
 6 H  s               0.1       6.2       4.2       0.3       2.2       4.9
 7 H  s               0.0       5.0       5.1       0.5       3.4       0.0
 8 H  s               8.0       0.1       1.7      17.7       2.3       0.0
 9 H  s               1.0       2.4       6.1       1.6       2.1       5.0
10 H  s               1.3       2.8       7.4       0.1       7.6       0.0
11 H  s               1.0       2.4       6.1       1.6       2.1       5.1

                     12        13        14        15        16        17   
                  -0.40600  -0.37590  -0.36019  -0.34631  -0.33424  -0.30794
                   2.00000   2.00000   2.00000   2.00000   2.00000   2.00000
                  --------  --------  --------  --------  --------  --------
 0 C  s               0.1       0.0       0.0       0.0       0.1       0.0
 0 C  pz              0.0      27.7       0.0       0.0       0.0      10.9
 0 C  px              1.0       0.0       1.3      30.8       0.0       0.0
 0 C  py             25.2       0.0      10.4       6.1       7.3       0.0
 0 C  dz2             0.3       0.0       0.1       0.1       0.1       0.0
 0 C  dxz             0.0       0.0       0.0       0.0       0.0       0.1
 0 C  dyz             0.0       0.3       0.0       0.0       0.0       0.6
 0 C  dx2y2           0.0       0.0       0.0       0.0       0.1       0.0
 0 C  dxy             0.1       0.0       0.1       0.5       0.0       0.0
 1 C  s               3.0       0.0       0.5       0.2       0.6       0.0
 1 C  pz              0.0       2.5       0.0       0.0       0.0      21.5
 1 C  px              9.8       0.0       1.6       8.8       0.2       0.0
 1 C  py              0.5       0.0       0.4       1.3      11.9       0.0
 1 C  dxz             0.0       0.2       0.0       0.0       0.0       0.2
 1 C  dyz             0.0       0.0       0.0       0.0       0.0       0.6
 1 C  dx2y2           0.4       0.0       0.0       0.0       0.3       0.0
 1 C  dxy             0.0       0.0       0.1       0.3       0.1       0.0
 2 O  s               6.9       0.0       0.3       1.1      10.6       0.0
 2 O  pz              0.0       0.7       0.0       0.0       0.0      34.2
 2 O  px              5.4       0.0       0.7       2.2       0.1       0.0
 2 O  py             11.1       0.0       2.8       3.7      45.2       0.0
 2 O  dyz             0.0       0.0       0.0       0.0       0.0       0.2
 2 O  dx2y2           0.1       0.0       0.0       0.0       0.3       0.0
 2 O  dxy             0.1       0.0       0.0       0.1       0.0       0.0
 3 N  s               0.1       0.0       0.2       0.1       0.3       0.0
 3 N  pz              0.0       3.3       0.0       0.0       0.0       5.1
 3 N  px              8.1       0.0       0.2       6.9       0.3       0.0
 3 N  py              1.2       0.0       2.2       0.2       3.0       0.0
 3 N  dxz             0.0       0.1       0.0       0.0       0.0       0.2
 3 N  dx2y2           0.1       0.0       0.2       0.1       0.4       0.0
 3 N  dxy             0.0       0.0       0.2       0.2       0.0       0.0
 4 C  s               0.1       0.0       0.0       0.1       0.0       0.0
 4 C  pz              0.0      28.6       0.0       0.0       0.0       7.3
 4 C  px              4.3       0.0       3.2       9.4       0.1       0.0
 4 C  py              5.8       0.0      34.5       0.7       5.8       0.0
 4 C  dz2             0.1       0.0       0.4       0.0       0.1       0.0
 4 C  dyz             0.0       0.3       0.0       0.0       0.0       0.2
 4 C  dxy             0.1       0.0       0.4       0.2       0.1       0.0
 5 H  s               4.7       9.6       1.7       0.7       1.4       6.5
 6 H  s               5.0       9.1       2.0       0.9       1.6       6.1
 7 H  s               1.4       0.0       4.9      19.7       2.4       0.0
 8 H  s               1.2       0.0       2.2       0.5       2.8       0.0
 9 H  s               1.9       8.8       5.9       0.0       1.1       3.1
10 H  s               0.0       0.0      17.3       4.8       2.6       0.0
11 H  s               1.7       8.7       6.3       0.0       1.2       3.1

                     18        19        20        21        22        23   
                  -0.21125  -0.19404   0.00432   0.02261   0.06473   0.07346
                   2.00000   2.00000   0.00000   0.00000   0.00000   0.00000
                  --------  --------  --------  --------  --------  --------
 0 C  s               0.0       1.4       0.0       5.0      10.0       8.2
 0 C  pz              0.2       0.0       1.0       0.0       0.0       0.0
 0 C  px              0.0       4.1       0.0       0.9       1.2       0.6
 0 C  py              0.0       3.9       0.0       1.5       1.0       1.3
 0 C  dz2             0.0       0.0       0.0       0.0       0.0       0.1
 0 C  dxz             0.0       0.0       0.6       0.0       0.0       0.0
 0 C  dyz             0.0       0.0       1.3       0.0       0.0       0.0
 0 C  dxy             0.0       0.0       0.0       0.1       0.1       0.3
 1 C  s               0.0       0.2       0.0       0.2       0.0       2.3
 1 C  pz              0.0       0.0      44.3       0.0       0.0       0.0
 1 C  px              0.0       0.7       0.0       0.2       0.1       0.6
 1 C  py              0.0       0.2       0.0       1.2       0.1       0.2
 1 C  dz2             0.0       0.0       0.0       0.2       0.0       0.7
 1 C  dxz             0.6       0.0       0.4       0.0       0.0       0.0
 1 C  dyz             1.9       0.0       0.8       0.0       0.0       0.0
 1 C  dx2y2           0.0       0.0       0.0       0.5       0.1       0.0
 1 C  dxy             0.0       5.1       0.0       0.0       0.0       0.1
 2 O  s               0.0       0.0       0.0       0.4       0.0       0.4
 2 O  pz             29.0       0.0      25.8       0.0       0.0       0.0
 2 O  px              0.0      76.0       0.0       0.4       0.8       0.3
 2 O  py              0.0       0.0       0.0       0.3       0.0       0.0
 2 O  dyz             0.0       0.0       0.5       0.0       0.0       0.0
 3 N  s               0.0       1.8       0.0       8.3       0.3       1.5
 3 N  pz             55.6       0.0      10.7       0.0       0.0       0.0
 3 N  px              0.0       2.0       0.0       0.1       0.2       0.4
 3 N  py              0.0       1.4       0.0       6.7       0.1       2.8
 3 N  dz2             0.0       0.1       0.0       0.0       0.0       0.3
 3 N  dxz             0.0       0.0       0.6       0.0       0.0       0.0
 3 N  dyz             0.0       0.0       0.3       0.0       0.0       0.0
 3 N  dx2y2           0.0       0.0       0.0       0.2       0.1       0.2
 3 N  dxy             0.0       0.0       0.0       0.0       0.1       0.3
 4 C  s               0.0       0.1       0.0       2.4      16.7       7.6
 4 C  pz              2.7       0.0       0.3       0.0       0.0       0.0
 4 C  px              0.0       0.6       0.0       3.7       2.5       0.4
 4 C  py              0.0       0.2       0.0       0.6       0.1       5.8
 4 C  dz2             0.0       0.0       0.0       0.0       0.0       0.2
 4 C  dxz             0.6       0.0       0.2       0.0       0.0       0.0
 4 C  dyz             0.6       0.0       0.4       0.0       0.0       0.0
 4 C  dxy             0.0       0.0       0.0       0.7       0.0       0.5
 5 H  s               0.1       0.5       5.2       6.6       9.1       9.9
 6 H  s               0.1       0.5       5.0       6.7       9.1       9.0
 7 H  s               0.0       0.3       0.0       1.9       7.2       1.9
 8 H  s               0.0       0.6       0.0      40.2       0.0      12.2
 9 H  s               4.3       0.1       1.3       0.5       9.3      15.7
10 H  s               0.0       0.0       0.0       9.8      22.5       1.0
11 H  s               4.2       0.1       1.3       0.5       9.3      15.3

                     24        25        26        27        28        29   
                   0.10770   0.10855   0.12032   0.13655   0.15512   0.21267
                   0.00000   0.00000   0.00000   0.00000   0.00000   0.00000
                  --------  --------  --------  --------  --------  --------
 0 C  s               0.0       0.2       2.4       0.0       0.8       0.8
 0 C  pz             14.2       2.1       0.0      10.8       0.0       0.0
 0 C  px              0.6       3.8       5.9       0.0       9.3      16.5
 0 C  py              2.0      12.2       0.8       0.0       0.8       8.6
 0 C  dz2             0.1       0.9       0.0       0.0       0.2       1.7
 0 C  dxz             0.0       0.0       0.0       0.2       0.0       0.0
 0 C  dyz             0.6       0.1       0.0       0.1       0.0       0.0
 0 C  dx2y2           0.0       0.2       0.0       0.0       0.7       1.2
 0 C  dxy             0.1       0.7       0.1       0.0       1.4       4.7
 1 C  s               0.0       0.1       1.0       0.0       3.1      20.8
 1 C  pz              1.3       0.2       0.0       4.9       0.0       0.0
 1 C  px              0.0       0.3       0.4       0.0       2.7       4.1
 1 C  py              0.1       0.7       0.1       0.0       1.8       2.2
 1 C  dz2             0.0       0.0       0.3       0.0       0.5       4.1
 1 C  dxz             0.5       0.1       0.0       0.0       0.0       0.0
 1 C  dx2y2           0.2       1.5       0.1       0.0       1.2       0.1
 1 C  dxy             0.0       0.2       0.0       0.0       0.3       0.0
 2 O  s               0.0       0.0       0.0       0.0       0.0       0.7
 2 O  pz              0.6       0.1       0.0       0.9       0.0       0.0
 2 O  px              0.0       0.1       0.4       0.0       0.2       0.6
 2 O  py              0.1       0.6       0.2       0.0       0.1       1.6
 2 O  dyz             0.0       0.0       0.0       0.1       0.0       0.0
 2 O  dx2y2           0.0       0.0       0.0       0.0       0.0       0.2
 2 O  dxy             0.0       0.0       0.0       0.0       0.0       0.1
 3 N  s               0.4       2.9       4.9       0.0       4.7       0.3
 3 N  pz              0.2       0.0       0.0       4.1       0.0       0.0
 3 N  px              0.1       0.5       0.7       0.0       6.7       7.8
 3 N  py              0.1       0.4       1.1       0.0       6.7       0.4
 3 N  dz2             0.0       0.1       0.0       0.0       0.2       0.0
 3 N  dxz             0.4       0.1       0.0       0.0       0.0       0.0
 3 N  dyz             0.0       0.0       0.0       0.1       0.0       0.0
 3 N  dx2y2           0.1       0.5       0.2       0.0       0.9       0.0
 3 N  dxy             0.0       0.0       0.1       0.0       0.4       1.1
 4 C  s               0.0       0.0       0.8       0.0       2.2       0.2
 4 C  pz             10.1       1.4       0.0      16.2       0.0       0.0
 4 C  px              0.4       2.9       2.9       0.0      28.8       7.6
 4 C  py              0.6       5.4      12.9       0.0       3.7       1.6
 4 C  dz2             0.1       0.7       1.2       0.0       1.1       0.5
 4 C  dyz             0.7       0.1       0.0       0.5       0.0       0.0
 4 C  dx2y2           0.1       0.4       0.2       0.0       3.0       0.3
 4 C  dxy             0.0       0.1       0.0       0.0       2.3       1.5
 5 H  s              10.5      15.4       0.2      12.1       0.6       1.6
 6 H  s              25.6       1.0       0.2      11.9       0.7       1.6
 7 H  s               4.7      32.0      18.2       0.0       1.9       2.2
 8 H  s               0.1       0.6      10.2       0.0       4.1       3.0
 9 H  s              16.3       0.1       4.0      19.2       1.6       0.6
10 H  s               0.2       2.2      27.2       0.0       5.4       0.8
11 H  s               9.0       9.0       3.1      18.8       1.7       0.7

                     30        31        32        33        34        35   
                   0.25094   0.33067   0.38767   0.41876   0.43437   0.43650
                   0.00000   0.00000   0.00000   0.00000   0.00000   0.00000
                  --------  --------  --------  --------  --------  --------
 0 C  s               1.6       0.0       1.8       0.0       1.1       0.0
 0 C  pz              0.0       0.0       0.0       7.6       0.3      24.8
 0 C  px              3.9       1.3      10.4       0.0       1.6       0.0
 0 C  py              8.7       4.0       2.2       0.0       0.3       0.0
 0 C  dz2             1.0       1.0       0.9       0.0       0.1       0.0
 0 C  dyz             0.0       0.0       0.0       2.7       0.1       6.6
 0 C  dx2y2           0.9       2.4       0.3       0.0       0.6       0.0
 0 C  dxy             0.0       2.2       0.9       0.0       0.0       0.0
 1 C  s              23.9       3.1       7.5       0.0      18.2       0.3
 1 C  pz              0.0       0.0       0.0      18.8       0.1      11.9
 1 C  px              3.5      17.3       3.6       0.0      14.8       0.2
 1 C  py             13.9      18.0       0.9       0.0       6.6       0.1
 1 C  dz2             4.0       2.1       0.7       0.0       0.2       0.0
 1 C  dxz             0.0       0.0       0.0       0.5       0.0       0.6
 1 C  dyz             0.0       0.0       0.0       0.0       0.0       0.3
 1 C  dx2y2           2.0       2.9       1.5       0.0       0.3       0.0
 1 C  dxy             0.1       2.3       0.1       0.0       0.1       0.0
 2 O  s               9.4       2.2       0.1       0.0       0.9       0.0
 2 O  pz              0.0       0.0       0.0       0.6       0.0       0.2
 2 O  px              0.6       3.5       0.5       0.0       0.4       0.0
 2 O  py              1.7       0.1       0.4       0.0       0.9       0.0
 2 O  dz2             0.0       0.1       0.1       0.0       0.1       0.0
 2 O  dyz             0.0       0.0       0.0       0.1       0.0       0.2
 2 O  dx2y2           0.0       0.0       0.1       0.0       0.3       0.0
 2 O  dxy             0.1       0.7       0.0       0.0       0.1       0.0
 3 N  s               1.2       4.8       0.6       0.0       1.8       0.0
 3 N  pz              0.0       0.0       0.0       5.1       0.0       1.8
 3 N  px              0.4       7.9       4.7       0.0       0.3       0.0
 3 N  py              1.9       3.4       0.2       0.0       1.3       0.0
 3 N  dz2             0.0       0.0       0.1       0.0       5.4       0.1
 3 N  dxz             0.0       0.0       0.0       0.6       0.0       0.1
 3 N  dyz             0.0       0.0       0.0       0.0       0.0       0.3
 3 N  dx2y2           1.2       0.7       0.2       0.0       0.1       0.0
 3 N  dxy             0.4       2.3       3.2       0.0       0.7       0.0
 4 C  s               0.5       0.1       4.5       0.0       4.8       0.1
 4 C  pz              0.0       0.0       0.0      29.2       0.2      17.2
 4 C  px              7.2       1.4       9.0       0.0      17.0       0.2
 4 C  py              0.6       1.6      20.9       0.0       5.2       0.1
 4 C  dz2             0.1       0.0       3.1       0.0       0.1       0.0
 4 C  dyz             0.0       0.0       0.0       6.8       0.1       3.8
 4 C  dx2y2           0.1       0.3       0.5       0.0       0.2       0.0
 4 C  dxy             0.7       1.7       0.8       0.0       0.3       0.0
 5 H  s               1.7       0.1       0.9       4.1       0.6      10.8
 6 H  s               1.7       0.2       1.1       4.1       2.2       8.9
 7 H  s               1.7       4.6       4.9       0.0       0.2       0.0
 8 H  s               2.6       2.1       0.3       0.0       9.8       0.3
 9 H  s               0.3       0.6       4.3      10.0       0.2       5.6
10 H  s               1.9       4.3       4.5       0.0       2.2       0.0
11 H  s               0.3       0.7       4.5       9.9       0.0       5.4

                     36        37        38        39        40        41   
                   0.44304   0.49242   0.54517   0.55623   0.59701   0.63276
                   0.00000   0.00000   0.00000   0.00000   0.00000   0.00000
                  --------  --------  --------  --------  --------  --------
 0 C  s               3.2       0.2       0.0       7.1       2.6       0.4
 0 C  pz              0.0       0.0      16.0       0.0       0.0       0.0
 0 C  px             17.6       9.0       0.0      12.3       0.5       0.4
 0 C  py              7.3      29.8       0.0       5.5       1.4       0.3
 0 C  dz2             0.1       8.0       0.0       0.0       0.1       0.0
 0 C  dxz             0.0       0.0       0.9       0.0       0.0       0.0
 0 C  dyz             0.0       0.0       3.4       0.0       0.0       0.0
 0 C  dx2y2           0.9       0.5       0.0       0.0       0.0       0.0
 0 C  dxy             0.1       2.3       0.0       0.1       0.2       0.1
 1 C  s               4.1       0.6       0.0      21.1       1.3       1.7
 1 C  pz              0.0       0.0      61.7       0.0       0.0       0.0
 1 C  px              8.9       2.2       0.0       7.3       2.2       0.3
 1 C  py              0.3       9.8       0.0       1.2      20.4       8.7
 1 C  dz2             0.6       0.0       0.0       0.0       1.3       0.2
 1 C  dxz             0.0       0.0       0.3       0.0       0.0       0.0
 1 C  dx2y2           0.3       0.0       0.0       0.0       1.8       0.6
 1 C  dxy             2.9       0.2       0.0       0.6       0.0       0.0
 2 O  s               0.1       2.0       0.0       0.1       0.1       0.3
 2 O  pz              0.0       0.0       2.6       0.0       0.0       0.0
 2 O  px              9.3       0.2       0.0       1.2       0.4       0.3
 2 O  py              0.1       0.3       0.0       1.1       6.9       3.0
 2 O  dz2             0.0       0.0       0.0       0.3       0.5       0.4
 2 O  dx2y2           0.0       0.0       0.0       0.1       2.4       1.5
 2 O  dxy             0.4       0.0       0.0       0.2       0.0       0.0
 3 N  s               1.6       0.9       0.0       1.1       3.0       1.4
 3 N  pz              0.0       0.0       2.9       0.0       0.0       0.0
 3 N  px              2.0       3.4       0.0       4.0       1.4       0.7
 3 N  py              0.2       1.5       0.0       0.1       2.4       0.2
 3 N  dz2             0.8       0.0       0.0       0.0       0.0       0.0
 3 N  dx2y2           1.9       0.1       0.0       0.0       2.4       0.0
 3 N  dxy             0.6       0.6       0.0       0.5       1.1       0.1
 4 C  s               0.8       1.2       0.0       3.3       2.0      46.1
 4 C  pz              0.0       0.0       4.5       0.0       0.0       0.0
 4 C  px              4.7       2.6       0.0       8.4       8.9      15.1
 4 C  py              6.2       2.6       0.0       1.4      18.0       0.2
 4 C  dz2             1.5       0.3       0.0       0.7       1.4       0.0
 4 C  dyz             0.0       0.0       1.0       0.0       0.0       0.0
 4 C  dx2y2           0.1       0.0       0.0       0.2       1.1       0.0
 4 C  dxy             1.8       0.5       0.0       0.4       0.3       0.2
 5 H  s               1.3       2.5       2.7       4.7       0.1       0.1
 6 H  s               0.9       2.9       2.6       4.6       0.1       0.2
 7 H  s               0.0      10.4       0.0       5.4       2.4       0.7
 8 H  s              10.1       2.7       0.0       0.1      10.4       0.1
 9 H  s               0.3       0.6       0.6       0.5       0.2       3.6
10 H  s               8.5       0.9       0.0       5.7       2.4       9.4
11 H  s               0.4       0.8       0.6       0.5       0.2       3.6

                     42        43        44        45        46        47   
                   0.63758   0.64243   0.64274   0.65108   0.66502   0.67695
                   0.00000   0.00000   0.00000   0.00000   0.00000   0.00000
                  --------  --------  --------  --------  --------  --------
 0 C  s              42.7       0.1       0.0       0.0       0.6       0.2
 0 C  pz              0.0       0.0       2.3      55.6       0.0       0.0
 0 C  px             10.5       0.2       0.0       0.0       1.7       8.1
 0 C  py              6.8       1.4       0.0       0.0      18.6      15.1
 0 C  dz2             0.3       0.0       0.0       0.0       0.7       0.9
 0 C  dxz             0.0       0.0       0.0       0.3       0.0       0.0
 0 C  dyz             0.0       0.0       0.0       2.2       0.0       0.0
 0 C  dx2y2           0.0       0.0       0.0       0.0       0.3       0.0
 0 C  dxy             0.1       0.0       0.0       0.0       0.5       0.5
 1 C  s               4.1       0.6       0.0       0.0       1.8       1.5
 1 C  pz              0.0       0.0       0.1       1.4       0.0       0.0
 1 C  px              0.6       0.4       0.0       0.0       4.9       4.5
 1 C  py              3.0      15.5       0.0       0.0       0.3       4.1
 1 C  dz2             0.1       0.2       0.0       0.0       0.0       0.3
 1 C  dx2y2           0.4       1.5       0.0       0.0       0.0       0.2
 1 C  dxy             0.0       0.1       0.0       0.0       0.1       0.1
 2 O  s               0.3       0.7       0.0       0.0       0.3       1.1
 2 O  pz              0.0       0.0       0.4       0.6       0.0       0.0
 2 O  px              0.2       0.6       0.0       0.0       1.8       1.9
 2 O  py              2.0       3.5       0.0       0.0       0.4       0.0
 2 O  dz2             0.3       0.6       0.0       0.0       0.1       0.0
 2 O  dx2y2           1.0       1.0       0.0       0.0       0.2       0.0
 3 N  s               0.3       0.2       0.0       0.0       1.1       0.9
 3 N  pz              0.0       0.0       0.9       1.4       0.0       0.0
 3 N  px              0.2       0.9       0.0       0.0       3.1      10.2
 3 N  py              1.7       0.1       0.0       0.0       6.7       0.8
 3 N  dz2             0.0       0.3       0.0       0.0       0.4       0.0
 3 N  dx2y2           0.0       0.0       0.0       0.0       0.7       0.0
 3 N  dxy             0.0       0.0       0.0       0.0       0.1       0.0
 4 C  s               0.2       4.0       0.0       0.0       5.9      10.1
 4 C  pz              0.0       0.0      52.5       2.2       0.0       0.0
 4 C  px              2.0       0.1       0.0       0.0       1.9       1.1
 4 C  py              0.3      37.9       0.0       0.0       1.8       0.8
 4 C  dz2             0.0       0.5       0.0       0.0       0.6       0.0
 4 C  dxz             0.0       0.0       0.7       0.0       0.0       0.0
 4 C  dyz             0.0       0.0       2.7       0.0       0.0       0.0
 4 C  dx2y2           0.0       1.0       0.0       0.0       0.0       0.0
 4 C  dxy             0.2       0.4       0.0       0.0       0.0       0.0
 5 H  s               8.1       0.1       0.4      17.1       6.9       1.0
 6 H  s               7.8       0.2       0.3      17.6       6.8       0.9
 7 H  s               3.2       0.2       0.0       0.0       6.4      19.4
 8 H  s               0.7       1.7       0.0       0.0      11.9       0.1
 9 H  s               0.0       9.7      20.6       0.7       6.3       3.7
10 H  s               2.6       4.9       0.0       0.0       0.6       8.1
11 H  s               0.1      11.1      18.8       0.6       6.5       3.8

                     48        49        50        51        52        53   
                   0.68675   0.78345   0.80440   0.85780   0.89206   0.98868
                   0.00000   0.00000   0.00000   0.00000   0.00000   0.00000
                  --------  --------  --------  --------  --------  --------
 0 C  s               4.3      15.4       0.0       0.5      10.5       7.8
 0 C  pz              0.0       0.0       2.3       0.0       0.0       0.0
 0 C  px             13.5       2.3       0.0       0.0       0.4       2.1
 0 C  py              1.5       1.9       0.0       0.1       1.5       0.9
 0 C  dz2             0.0       0.0       0.0       0.0       0.7       0.0
 0 C  dxz             0.0       0.0       0.1       0.0       0.0       0.0
 0 C  dx2y2           0.1       0.0       0.0       0.2       2.1       0.0
 0 C  dxy             0.2       0.0       0.0       0.1       0.1       0.1
 1 C  s               1.0       5.6       0.0       3.5       2.0       0.8
 1 C  pz              0.0       0.0       2.3       0.0       0.0       0.0
 1 C  px             12.5       8.2       0.0       1.6       5.2       0.6
 1 C  py              3.0       4.6       0.0       1.7       1.2       0.3
 1 C  dz2             0.2       0.2       0.0       0.3       0.6       0.0
 1 C  dyz             0.0       0.0       0.2       0.0       0.0       0.0
 1 C  dx2y2           0.1       0.1       0.0       1.5       1.1       0.2
 1 C  dxy             0.1       0.0       0.0       0.9       0.9       1.8
 2 O  s               0.3       0.5       0.0       2.7       6.0       2.6
 2 O  pz              0.0       0.0       6.5       0.0       0.0       0.0
 2 O  px              0.8       0.2       0.0       0.2       2.5      21.1
 2 O  py              1.3       3.0       0.0      35.7      28.7       3.2
 2 O  dz2             0.3       0.6       0.0       0.4       0.2       0.1
 2 O  dx2y2           0.8       0.0       0.0       1.7       0.5       0.0
 2 O  dxy             0.0       0.0       0.0       0.4       0.3       0.3
 3 N  s               3.5       6.7       0.0       1.7       6.6      24.9
 3 N  pz              0.0       0.0      81.8       0.0       0.0       0.0
 3 N  px              0.0       2.6       0.0       2.4       8.7      12.4
 3 N  py              7.7       0.3       0.0      33.2       5.7       2.9
 3 N  dz2             0.1       0.0       0.0       0.0       0.4       3.6
 3 N  dyz             0.0       0.0       0.9       0.0       0.0       0.0
 3 N  dx2y2           1.1       0.0       0.0       0.9       0.0       0.1
 3 N  dxy             0.3       0.0       0.0       0.8       1.4       1.9
 4 C  s               1.8       8.2       0.0       0.7       0.1       0.0
 4 C  pz              0.0       0.0       2.5       0.0       0.0       0.0
 4 C  px              3.6       5.5       0.0       0.4       1.3       1.7
 4 C  py              2.6       0.8       0.0       1.3       2.0       1.5
 4 C  dz2             1.3       0.3       0.0       1.5       1.2       0.3
 4 C  dxz             0.0       0.0       1.1       0.0       0.0       0.0
 4 C  dyz             0.0       0.0       0.4       0.0       0.0       0.0
 4 C  dx2y2           0.7       0.0       0.0       2.5       2.9       1.3
 4 C  dxy             0.6       0.0       0.0       0.4       0.0       0.6
 5 H  s               0.1       6.3       0.7       0.0       0.4       2.4
 6 H  s               0.1       6.4       0.7       0.0       0.4       2.4
 7 H  s               3.6       8.2       0.0       0.1       1.9       1.4
 8 H  s              17.3       0.5       0.0       2.0       0.8       0.2
 9 H  s               0.1       4.7       0.1       0.2       0.7       0.0
10 H  s              15.5       1.8       0.0       0.5       0.3       0.2
11 H  s               0.1       4.8       0.1       0.2       0.8       0.0

                     54        55        56        57        58        59   
                   1.03447   1.07244   1.21045   1.26550   1.36044   1.41409
                   0.00000   0.00000   0.00000   0.00000   0.00000   0.00000
                  --------  --------  --------  --------  --------  --------
 0 C  s               0.0      14.8       2.0       1.4       0.0       0.0
 0 C  pz              0.2       0.0       0.0       0.0       0.8       0.1
 0 C  px              0.0       0.3       1.2       0.8       0.0       0.0
 0 C  py              0.0       0.2       0.8       0.3       0.0       0.0
 0 C  dz2             0.0       0.3       0.0       0.1       0.0       0.0
 0 C  dxz             2.2       0.0       0.0       0.0      40.8       2.3
 0 C  dyz             0.1       0.0       0.0       0.0       0.1       0.3
 0 C  dx2y2           0.0       0.0       1.3       1.2       0.0       0.0
 1 C  s               0.0       2.1       0.5       0.9       0.0       0.0
 1 C  pz              4.6       0.0       0.0       0.0       0.5       0.4
 1 C  px              0.0      16.0       0.3       9.3       0.0       0.0
 1 C  py              0.0       1.3       2.1       4.1       0.0       0.0
 1 C  dz2             0.0       0.8       0.1       0.1       0.0       0.0
 1 C  dxz             0.2       0.0       0.0       0.0      39.7       3.8
 1 C  dyz             0.3       0.0       0.0       0.0       5.3      27.2
 1 C  dx2y2           0.0       0.7       0.0       0.1       0.0       0.0
 1 C  dxy             0.0       0.7       0.3       0.0       0.0       0.0
 2 O  s               0.0       0.0       2.6       3.8       0.0       0.0
 2 O  pz             85.9       0.0       0.0       0.0       1.2       1.6
 2 O  px              0.0       2.4      42.8      13.1       0.0       0.0
 2 O  py              0.0       0.1       2.7       9.8       0.0       0.0
 2 O  dz2             0.0       0.0       0.3       0.4       0.0       0.0
 2 O  dxz             0.0       0.0       0.0       0.0       0.5       0.1
 2 O  dyz             0.7       0.0       0.0       0.0       1.3       4.7
 2 O  dx2y2           0.0       0.0       0.5       0.2       0.0       0.0
 2 O  dxy             0.0       0.9       1.5       1.6       0.0       0.0
 3 N  s               0.0      18.7      11.0       6.6       0.0       0.0
 3 N  pz              4.2       0.0       0.0       0.0       0.2       0.1
 3 N  px              0.0       9.6      10.6      10.5       0.0       0.0
 3 N  py              0.0       1.3       5.9      18.5       0.0       0.0
 3 N  dz2             0.0       2.6       1.2       1.2       0.0       0.0
 3 N  dxz             0.2       0.0       0.0       0.0       3.1      19.5
 3 N  dyz             0.2       0.0       0.0       0.0       4.0       0.7
 3 N  dx2y2           0.0       0.0       1.4       3.5       0.0       0.0
 3 N  dxy             0.0       2.0       0.8       0.5       0.0       0.0
 4 C  s               0.0      16.6       2.4       2.6       0.0       0.0
 4 C  pz              0.2       0.0       0.0       0.0       0.1       0.3
 4 C  px              0.0       0.7       1.3       0.3       0.0       0.0
 4 C  py              0.0       0.0       1.3       0.1       0.0       0.0
 4 C  dz2             0.0       0.0       0.5       3.0       0.0       0.0
 4 C  dxz             0.5       0.0       0.0       0.0       1.3      38.2
 4 C  dyz             0.1       0.0       0.0       0.0       0.1       0.3
 4 C  dx2y2           0.0       0.9       0.1       1.9       0.0       0.0
 4 C  dxy             0.0       0.0       0.9       2.5       0.0       0.0
 5 H  s               0.1       0.8       0.3       0.1       0.4       0.0
 6 H  s               0.1       0.9       0.2       0.1       0.4       0.0
 7 H  s               0.0       0.6       0.0       0.1       0.0       0.0
 8 H  s               0.0       1.2       0.9       1.1       0.0       0.0
 9 H  s               0.2       1.3       0.8       0.0       0.0       0.2
10 H  s               0.0       0.7       0.7       0.0       0.0       0.0
11 H  s               0.2       1.3       0.8       0.0       0.0       0.1

                     60        61        62        63        64        65   
                   1.47292   1.56318   1.68432   1.74583   1.83565   1.91584
                   0.00000   0.00000   0.00000   0.00000   0.00000   0.00000
                  --------  --------  --------  --------  --------  --------
 0 C  s               0.8       0.0       0.5       2.1       0.1       0.1
 0 C  pz              0.0       0.3       0.0       0.0       0.0       0.1
 0 C  px              0.3       0.0       0.1       2.1       0.0       0.1
 0 C  py              0.6       0.0       1.1       0.3       0.2       0.0
 0 C  dz2             0.6       0.0      13.3       1.3       4.6       0.8
 0 C  dxz             0.0       2.1       0.0       0.0       0.0       0.5
 0 C  dyz             0.0       0.0       0.0       0.0       0.0       0.1
 0 C  dx2y2           5.6       0.0      25.0      27.6       0.9       0.6
 0 C  dxy             0.3       0.0       9.7      10.4       1.3       2.2
 1 C  s               0.7       0.0       2.0       1.3       1.4       0.6
 1 C  pz              0.0       0.2       0.0       0.0       0.0       0.0
 1 C  px              1.1       0.0       0.8       3.6       1.1       0.0
 1 C  py              3.5       0.0       4.4       1.4       0.6       0.2
 1 C  dz2             0.0       0.0       7.8       9.4       4.0       8.6
 1 C  dxz             0.0       8.8       0.0       0.0       0.0       0.2
 1 C  dyz             0.0      23.6       0.0       0.0       0.0       0.2
 1 C  dx2y2           3.1       0.0      11.6       0.6       0.3       1.7
 1 C  dxy             0.0       0.0       0.0      23.5       0.0       1.2
 2 O  s              62.4       0.0       1.1       2.3       0.7       0.8
 2 O  pz              0.0       0.7       0.0       0.0       0.0       0.0
 2 O  px              0.0       0.0       0.1       1.9       0.2       0.0
 2 O  py              1.8       0.0       2.8       0.7       0.4       1.2
 2 O  dz2             1.6       0.0       0.1       0.5       0.0       1.2
 2 O  dxz             0.0       0.3       0.0       0.0       0.0       0.0
 2 O  dyz             0.0       4.8       0.0       0.0       0.0       0.1
[...]
 0 C  dxz             1.0       0.0       0.0       0.0       0.0       0.0
 0 C  dyz             4.3       0.0       0.0       0.1       0.0       0.0
 0 C  dx2y2           0.0      13.2       1.2       0.0       0.1       0.0
 0 C  dxy             0.0      12.7      17.9       0.0       1.0       1.8
 1 C  s               0.0       3.9       0.5       0.0       0.6       0.1
 1 C  pz              0.2       0.0       0.0       0.8       0.0       0.0
 1 C  px              0.0       2.8       0.8       0.0       0.1       0.7
 1 C  py              0.0       0.4       0.9       0.0       0.0       0.1
 1 C  dz2             0.0      12.4       2.1       0.0       0.3       5.8
 1 C  dxz            10.5       0.0       0.0       3.3       0.0       0.1
 1 C  dyz             0.1       0.0       0.0       1.9       0.0       0.0
 1 C  dx2y2           0.0       1.7      23.7       0.0       3.0       2.5
 1 C  dxy             0.0       9.2       0.3       0.0       0.0       0.1
 2 O  s               0.0       1.2       5.7       0.0       0.0       0.0
 2 O  pz              0.0       0.0       0.0       0.2       0.0       0.0
 2 O  px              0.0       0.2       0.0       0.0       0.1       0.0
 2 O  py              0.0       1.7       4.1       0.0       0.1       0.0
 2 O  dz2             0.0       1.7       0.3       0.0      21.8      43.0
 2 O  dxz             7.8       0.0       0.0      22.6       0.0       0.6
 2 O  dyz             0.5       0.0       0.0       4.1       0.0       0.0
 2 O  dx2y2           0.0       0.3       2.2       0.0      10.2      14.6
 2 O  dxy             0.0       9.3       0.0       0.0       2.9       0.6
 3 N  s               0.0       0.5       0.2       0.0       3.5       1.2
 3 N  pz              2.0       0.0       0.0       0.0       0.0       0.0
 3 N  px              0.0       0.1       2.2       0.0       0.1       0.7
 3 N  py              0.0       0.3       2.6       0.0       0.1       0.4
 3 N  dz2             0.0       1.7       2.4       0.0      32.0      11.6
 3 N  dxz             4.5       0.0       0.0      52.4       0.0       0.1
 3 N  dyz            53.5       0.0       0.1       1.2       0.0       0.0
 3 N  dx2y2           0.0       0.1      15.4       0.0       7.2       0.5
 3 N  dxy             0.0       1.5       0.0       0.0       1.7       6.3
 4 C  s               0.0       0.2       0.8       0.0       0.4       0.7
 4 C  pz              0.5       0.0       0.0       0.1       0.0       0.0
 4 C  px              0.0       0.4       1.0       0.0       0.6       0.8
 4 C  py              0.0       0.0       0.1       0.0       0.4       0.1
 4 C  dz2             0.0       1.2       0.0       0.0       4.7       1.9
 4 C  dxz            13.7       0.0       0.0       6.9       0.0       0.0
 4 C  dyz             0.6       0.0       0.0       5.9       0.0       0.0
 4 C  dx2y2           0.0       1.6       1.2       0.0       3.8       2.7
 4 C  dxy             0.0       1.2       7.8       0.0       0.7       0.5
 5 H  s               0.3       0.6       0.0       0.0       0.0       0.0
 6 H  s               0.3       0.6       0.0       0.0       0.0       0.0
 7 H  s               0.0       0.0       1.1       0.0       0.0       0.1
 8 H  s               0.0       0.2       3.4       0.0       3.0       0.9
 9 H  s               0.1       0.0       0.0       0.3       0.3       0.0
10 H  s               0.0       0.0       0.6       0.0       0.4       0.0
11 H  s               0.0       0.0       0.0       0.3       0.3       0.0

                     78        79        80        81        82        83   
                   2.68833   2.80362   2.98787   3.09358   3.38135   3.54077
                   0.00000   0.00000   0.00000   0.00000   0.00000   0.00000
                  --------  --------  --------  --------  --------  --------
 0 C  s               0.0       0.3       0.1       0.0       0.2       0.0
 0 C  px              0.0       0.1       0.0       0.0       0.5       0.0
 0 C  dz2             0.0       0.1       0.0       0.0       0.2       0.0
 0 C  dxz             0.6       0.0       0.0       0.4       0.0       0.0
 0 C  dyz             1.4       0.0       0.0       0.0       0.0       0.0
 0 C  dx2y2           0.0       0.9       2.1       0.0       1.5       0.1
 0 C  dxy             0.0       0.3       1.4       0.0       0.6       0.2
 1 C  s               0.0       2.9       2.1       0.0       0.0       6.4
 1 C  pz              0.2       0.0       0.0       0.8       0.0       0.0
 1 C  px              0.0       4.0       0.9       0.0       0.4       0.0
 1 C  py              0.0       1.9       0.0       0.0       0.6       6.7
 1 C  dz2             0.0       4.0       0.3       0.0       0.0       1.2
 1 C  dxz            12.7       0.0       0.0       0.0       0.0       0.0
 1 C  dyz             0.2       0.0       0.0      19.6       0.0       0.0
 1 C  dx2y2           0.0       1.0      16.8       0.0       0.4       6.3
 1 C  dxy             0.0       0.1       1.5       0.0      28.1       0.5
 2 O  s               0.0       0.6       1.6       0.0       0.2       5.6
 2 O  pz              0.0       0.0       0.0       1.2       0.0       0.0
 2 O  px              0.0       0.4       0.0       0.0       1.3       0.1
 2 O  py              0.0       0.6       1.1       0.0       0.2       4.0
 2 O  dz2             0.4       0.1       5.1       0.0       0.8      15.3
 2 O  dxz            66.1       0.0       0.0       0.4       0.0       0.0
 2 O  dyz             2.1       0.0       0.0      74.2       0.0       0.0
 2 O  dx2y2           0.1       0.2       0.6       0.0       4.3      47.6
 2 O  dxy             0.0      15.6       0.3       0.0      47.7       2.9
 3 N  s               0.0       4.4       0.1       0.0       0.5       0.0
 3 N  pz              0.2       0.0       0.0       0.0       0.0       0.0
 3 N  px              0.0       1.4       3.5       0.0       0.7       0.0
 3 N  py              0.0       1.0       0.1       0.0       0.2       0.2
 3 N  dz2             0.1      17.0       0.1       0.0       0.4       0.0
 3 N  dxz             9.3       0.0       0.0       3.1       0.0       0.0
 3 N  dyz             5.1       0.0       0.0       0.0       0.0       0.0
 3 N  dx2y2           0.0      18.9      17.2       0.0       8.1       2.3
 3 N  dxy             0.1      20.0      33.1       0.0       1.8       0.2
 4 C  s               0.0       0.1       1.5       0.0       0.1       0.0
 4 C  px              0.0       0.1       2.0       0.0       0.0       0.0
 4 C  py              0.0       0.1       0.3       0.0       0.0       0.0
 4 C  dz2             0.0       0.1       1.1       0.0       0.0       0.0
 4 C  dxz             0.2       0.0       0.0       0.2       0.0       0.0
 4 C  dyz             0.7       0.0       0.0       0.1       0.0       0.0
 4 C  dx2y2           0.0       0.6       2.5       0.0       0.1       0.0
 4 C  dxy             0.0       2.9       3.6       0.0       0.5       0.2
 8 H  s               0.0       0.3       0.4       0.0       0.3       0.0
10 H  s               0.0       0.0       0.1       0.0       0.0       0.0



                      *****************************
                      * MAYER POPULATION ANALYSIS *
                      *****************************

  NA   - Mulliken gross atomic population
  ZA   - Total nuclear charge
  QA   - Mulliken gross atomic charge
  VA   - Mayer's total valence
  BVA  - Mayer's bonded valence
  FA   - Mayer's free valence

  ATOM       NA         ZA         QA         VA         BVA        FA
  0 C      6.2899     6.0000    -0.2899     3.8552     3.8552    -0.0000
  1 C      5.9580     6.0000     0.0420     4.4463     4.4463    -0.0000
  2 O      8.2169     8.0000    -0.2169     2.3142     2.3142    -0.0000
  3 N      7.2829     7.0000    -0.2829     3.1685     3.1685     0.0000
  4 C      6.1662     6.0000    -0.1662     3.9534     3.9534     0.0000
  5 H      0.8821     1.0000     0.1179     0.9587     0.9587    -0.0000
  6 H      0.8835     1.0000     0.1165     0.9592     0.9592    -0.0000
  7 H      0.8789     1.0000     0.1211     0.9866     0.9866     0.0000
  8 H      0.7840     1.0000     0.2160     0.9229     0.9229     0.0000
  9 H      0.8796     1.0000     0.1204     0.9595     0.9595    -0.0000
 10 H      0.8989     1.0000     0.1011     0.9567     0.9567     0.0000
 11 H      0.8792     1.0000     0.1208     0.9599     0.9599     0.0000

  Mayer bond orders larger than 0.100000
B(  0-C ,  1-C ) :   1.0530 B(  0-C ,  5-H ) :   0.9371 B(  0-C ,  6-H ) :   0.9376 
B(  0-C ,  7-H ) :   0.9419 B(  1-C ,  2-O ) :   2.0920 B(  1-C ,  3-N ) :   1.2071 
B(  3-N ,  4-C ) :   1.0177 B(  3-N ,  8-H ) :   0.8733 B(  4-C ,  9-H ) :   0.9550 
B(  4-C , 10-H ) :   0.9582 B(  4-C , 11-H ) :   0.9548 

-------
TIMINGS
-------

Total SCF time: 0 days 0 hours 0 min 0 sec 

Total time                  ....       0.552 sec
Sum of individual times     ....       0.541 sec  ( 98.0%)

SCF preparation             ....       0.023 sec  (  4.2%)
Fock matrix formation       ....       0.491 sec  ( 89.1%)
  Startup                   ....       0.001 sec  (  0.1% of F)
  Split-RI-J                ....       0.178 sec  ( 36.2% of F)
  XC integration            ....       0.305 sec  ( 62.1% of F)
    Basis function eval.    ....       0.140 sec  ( 46.0% of XC)
    Density eval.           ....       0.056 sec  ( 18.4% of XC)
    XC-Functional eval.     ....       0.034 sec  ( 11.2% of XC)
    XC-Potential eval.      ....       0.057 sec  ( 18.7% of XC)
Diagonalization             ....       0.000 sec  (  0.0%)
Density matrix formation    ....       0.001 sec  (  0.2%)
Total Energy calculation    ....       0.000 sec  (  0.0%)
Population analysis         ....       0.020 sec  (  3.6%)
Orbital Transformation      ....       0.001 sec  (  0.2%)
Orbital Orthonormalization  ....       0.000 sec  (  0.0%)
DIIS solution               ....       0.001 sec  (  0.2%)
  MO trafo                  ....       0.000 sec  (  0.0 % of DIIS)
  Orb grad                  ....       0.000 sec  (  0.0 % of DIIS)
  Energy W gradient         ....       0.000 sec  (  0.0 % of DIIS)
  DIIS error                ....       0.000 sec  (  8.3 % of DIIS)
  DIIS work                 ....       0.001 sec  ( 88.5 % of DIIS)
  Form Q                    ....       0.000 sec  (  0.0 % of DIIS)
  Form QpQm                 ....       0.000 sec  (  0.0 % of DIIS)
  Exp/Cayley                ....       0.000 sec  (  0.0 % of DIIS)
  Orb update                ....       0.000 sec  (  0.0 % of DIIS)
  Wake-sleep                ....       0.000 sec  (  3.2 % of DIIS)
SOSCF solution              ....       0.003 sec  (  0.6%)
  MO trafo                  ....       0.001 sec  ( 48.3 % of SOSCF)
  Orb grad                  ....       0.000 sec  (  2.1 % of SOSCF)
  Rot update                ....       0.000 sec  ( 12.9 % of SOSCF)
  Step                      ....       0.001 sec  ( 35.2 % of SOSCF)
Finished LeanSCF after   0.6 sec

Maximum memory used throughout the entire LEANSCF-calculation: 8.3 MB


-------------------------------------------------------------------------------
                          DFT DISPERSION CORRECTION                            
                                                                               
                                DFTD4 V3.4.0                                   
-------------------------------------------------------------------------------
The PBE functional is recognized
Active option DFTDOPT                   ...         5   

-------------------------   ----------------
Dispersion correction           -0.007342430
-------------------------   ----------------

------------------   -----------------
gCP correction             0.052966644
------------------   -----------------

-------------------------   --------------------
FINAL SINGLE POINT ENERGY      -247.969956793385
-------------------------   --------------------


------------------------------------------------------------------------------
                              ORCA PROPERTY CALCULATIONS
------------------------------------------------------------------------------

GBWName                                 ... sp.gbw
Number of atoms                         ...     12
Number of basis functions               ...     84
Max core memory                         ...   1024 MB

Electric properties:
Dipole moment                           ... YES
Quadrupole moment                       ...  NO
Static polarizability (Dipole/Dipole)   ...  NO
Static polarizability (Dipole/Quad.)    ...  NO
Static polarizability (Quad./Quad.)     ...  NO
Static polarizability (Velocity)        ...  NO

Atomic electric properties:
Dipole moment                           ...  NO
Quadrupole moment                       ...  NO
Static polarizability                   ...  NO

Choice of electric origin               ... Center of mass
Position of electric origin             ...     0.000012     0.000029     0.000000

General magnetic properties:
Magnetizability                         ...  NO

EPR properties:
g-Tensor (aka g-matrix)                 ...  NO
Zero-Field splitting spin-orbit         ...  NO
Zero-field splitting spin-spin          ...  NO
Hyperfine couplings                     ...  NO (   0 nuclei)
Quadrupole couplings                    ...  NO (   0 nuclei)
Contact density                         ...  NO (   0 nuclei)

NMR properties:
Chemical shifts                         ...  NO (   0 nuclei)
Spin-rotation constants                 ...  NO (   0 nuclei)
Spin-spin couplings                     ...  NO (   0 nuclei,    0 pairs)

Choice of magnetic origin               ... GIAO
Position of magnetic origin             ...     0.000000     0.000000     0.000000

Properties with geometric perturbations:
SCF Hessian                             ...  NO
IR spectrum                             ...  NO
VCD spectrum                            ...  NO
X-ray spectroscopy properties:
SCF XES/XAS/RIXS spectra                ...  NO


-------------
DIPOLE MOMENT
-------------

Method             : SCF
Type of density    : Electron Density
Multiplicity       :   1
Irrep              :   0
Energy             :  -248.0155810070571079 Eh
Relativity type    : 
Basis              : AO
                                X                 Y                 Z
Electronic contribution:     -0.732947068      -2.380524564      -0.006948227
Nuclear contribution   :      1.117324766       3.784339457       0.011847767
                        -----------------------------------------
Total Dipole Moment    :      0.384377699       1.403814893       0.004899540
                        -----------------------------------------
Magnitude (a.u.)       :      1.455495268
Magnitude (Debye)      :      3.699574960



--------------------
Rotational spectrum 
--------------------
 
Rotational constants in cm-1:             0.332781             0.131632             0.097767 
Rotational constants in MHz :          9976.512469          3946.226916          2930.989414 

Dipole components along the rotational axes: 
x,y,z [a.u.] :     0.368148     1.408159     0.004736 
x,y,z [Debye]:     0.935759     3.579255     0.012037 

 

Dipole moment calculation done in   0.0 sec 

Maximum memory used throughout the entire PROP-calculation: 5.5 MB

--------------------------------
SUGGESTED CITATIONS FOR THIS RUN
--------------------------------

Below you find a list of papers that are relevant to this ORCA run
We neither can nor want to force you to cite these papers, but we appreciate if you do
You receive ORCA, which is the product of decades of hard work by many enthusiastic individuals, for free
The only thing we kindly ask in return is that you cite our papers,
We deeply appreciate it, if you show your appreciation for ORCA by not just citing the generic ORCA reference.

Please note that relegating all ORCA citations to the supporting information does *not* help us.
SI sections are not indexed - citations you put there will not count into any citation statistics
But we need these citations in order to attract the funding resources that allow us to do what we are doing

Therefore, if you are a happy ORCA user, please consider citing a few of the papers listed below in the main body of your paper

In addition to the list printed below, the program has created the file sp.bibtex that contains the list in bibtex format
You can import this file easily into all common literature databanks and citation aid programs


List of essential papers. We consider these as the minimum necessary citations

  1. Neese,F.
     Software update: the ORCA program system, version 5.0
     WIRES Comput. Molec. Sci., 2022 12(1)e1606
     doi.org/10.1002/wcms.1606

List of papers to cite with high priority. The work reported in these papers was absolutely
necessary for this run to complete.
Our perspective: the developers of density functionals and basis sets usually get cited in chemistry papers
Good! But without the algorithms to do something with them, the functionals or basis sets would not do anything.
Hence, in our opinion, the algorithm design and method developments papers are equally worthy of getting cited

  1. Neese,F.
     An improvement of the resolution of the identity approximation for the formation of the Coulomb matrix
     J. Comp. Chem., 2003 24(14)1740-1747
     doi.org/10.1002/jcc.10318
  2. Neese,F.
     The SHARK Integral Generation and Digestion System
     J. Comp. Chem., 2022  1-16
     doi.org/10.1002/jcc.26942
  3. Caldeweyher,E.; Bannwarth,C.; Grimme,S.
     Extension of the D3 dispersion coefficient model
     J. Chem. Phys., 2017 147 034112
     doi.org/10.1063/1.4993215
  4. Caldeweyher,E.; Ehlert,S.; Hansen,A.; Neugebauer,H.; Spicher,S.; Bannwarth,C.; Grimme,S.
     A generally applicable atomic-charge dependent London dispersion correction
     J. Chem. Phys., 2019 150 154122
     doi.org/10.1063/1.5090222
  5. Caldeweyher,E.; Mewes,J.; Ehlert,S.; Grimme,S.
     Extension and evaluation of the D4 London-dispersion model for periodic systems
     Phys. Chem. Chem. Phys., 2020 22(16)8499-8512
     doi.org/10.1039/D0CP00502A
  6. Wittmann,L.; Gordiy,I.; Friede,M.; Helmich-Paris,B.; Grimme,S.; Hansen,A.; Bursch,M.
     Extension of the D3 and D4 London Dispersion Corrections to the full Actinides Series
     Phys. Chem. Chem. Phys., 2024 26(32)21379-21394
     doi.org/https://doi.org/10.1039/D4CP01514B 

List of suggested additional citations. These are papers that are important in the 'surrounding' of 
of this run, or papers that preceded the highly important papers. If you like your results we are grateful for a citation.

  1. Neese,F.
     The ORCA program system
     WIRES Comput. Molec. Sci., 2012 2(1)73-78
     doi.org/10.1002/wcms.81
  2. Neese,F.
     Software update: the ORCA program system, version 4.0
     WIRES Comput. Molec. Sci., 2018 8(1)1-6
     doi.org/10.1002/wcms.1327
  3. Neese,F.; Wennmohs,F.; Becker,U.; Riplinger,C.
     The ORCA quantum chemistry program package
     J. Chem. Phys., 2020 152 Art. No. L224108
     doi.org/10.1063/5.0004608

List of optional additional citations

  1. Neese,F.
     Approximate second-order SCF convergence for spin unrestricted wavefunctions
     Chem. Phys. Lett., 2000 325(1-3)93-98
     doi.org/10.1016/s0009-2614(00)00662-x

Timings for individual modules:

Sum of individual times          ...        0.772 sec (=   0.013 min)
Startup calculation              ...        0.140 sec (=   0.002 min)  18.1 %
SCF iterations                   ...        0.602 sec (=   0.010 min)  77.9 %
Property calculations            ...        0.031 sec (=   0.001 min)   4.0 %
                             ****ORCA TERMINATED NORMALLY****
TOTAL RUN TIME: 0 days 0 hours 0 minutes 0 seconds 840 msec
