      -----------------------------------------------------------      
     |                   =====================                   |     
     |                           x T B                           |     
     |                   =====================                   |     
     |                         S. Grimme                         |     
     |          Mulliken Center for Theoretical Chemistry        |     
     |                    University of Bonn                     |     
      -----------------------------------------------------------      

   * xtb version 6.7.1 (41059b4) compiled by 'michael@archlinux' on 2025-03-24

   xtb is free software: you can redistribute it and/or modify it under
   the terms of the GNU Lesser General Public License as published by
   the Free Software Foundation, either version 3 of the License, or
   (at your option) any later version.
   
   xtb is distributed in the hope that it will be useful,
   but WITHOUT ANY WARRANTY; without even the implied warranty of
   MERCHANTABILITY or FITNESS FOR A PARTICULAR PURPOSE.  See the
   GNU Lesser General Public License for more details.
   
   Cite this work as:
   * C. Bannwarth, E. Caldeweyher, S. Ehlert, A. Hansen, P. Pracht,
     J. Seibert, S. Spicher, S. Grimme, WIREs Comput. Mol. Sci., 2020, 11,
     e01493. DOI: 10.1002/wcms.1493
   
   for GFN2-xTB:
   * C. Bannwarth, S. Ehlert and S. Grimme., J. Chem. Theory Comput., 2019,
     15, 1652-1671. DOI: 10.1021/acs.jctc.8b01176
   for GFN1-xTB:
   * S. Grimme, C. Bannwarth, P. Shushkov, J. Chem. Theory Comput., 2017,
     13, 1989-2009. DOI: 10.1021/acs.jctc.7b00118
   for GFN0-xTB:
   * P. Pracht, E. Caldeweyher, S. Ehlert, S. Grimme, ChemRxiv, 2019, preprint.
     DOI: 10.26434/chemrxiv.8326202.v1
   for GFN-FF:
   * S. Spicher and S. Grimme, Angew. Chem. Int. Ed., 2020, 59, 15665-15673.
     DOI: 10.1002/anie.202004239
   
   for ALPB and GBSA implicit solvation:
   * S. Ehlert, M. Stahn, S. Spicher, S. Grimme, J. Chem. Theory Comput.,
     2021, 17, 4250-4261. DOI: 10.1021/acs.jctc.1c00471
   
   for ddCOSMO and CPCM-X implicit solvation:
   * M. Stahn, S. Ehlert, S. Grimme, J. Phys. Chem. A,
     2023, XX, XXXX-XXXX. DOI: 10.1021/acs.jpca.3c04382
   
   for DFT-D4:
   * E. Caldeweyher, C. Bannwarth and S. Grimme, J. Chem. Phys., 2017,
     147, 034112. DOI: 10.1063/1.4993215
   * E. Caldeweyher, S. Ehlert, A. Hansen, H. Neugebauer, S. Spicher,
     C. Bannwarth and S. Grimme, J. Chem. Phys., 2019, 150, 154122.
     DOI: 10.1063/1.5090222
   * E. Caldeweyher, J.-M. Mewes, S. Ehlert and S. Grimme, Phys. Chem. Chem. Phys.
     2020, 22, 8499-8512. DOI: 10.1039/D0CP00502A
   
   for sTDA-xTB:
   * S. Grimme and C. Bannwarth, J. Chem. Phys., 2016, 145, 054103.
     DOI: 10.1063/1.4959605
   
   in the mass-spec context:
   * V. Asgeirsson, C. Bauer and S. Grimme, Chem. Sci., 2017, 8, 4879.
     DOI: 10.1039/c7sc00601b
   * J. Koopman and S. Grimme, ACS Omega 2019, 4, 12, 15120-15133.
     DOI: 10.1021/acsomega.9b02011
   
   for metadynamics refer to:
   * S. Grimme, J. Chem. Theory Comput., 2019, 155, 2847-2862
     DOI: 10.1021/acs.jctc.9b00143
   
   for SPH calculations refer to:
   * S. Spicher and S. Grimme, J. Chem. Theory Comput., 2021, 17, 1701-1714
     DOI: 10.1021/acs.jctc.0c01306
   
   for ONIOM refer to:
   * C. Plett, A. Katbashev, S. Ehlert, S. Grimme, M. Bursch,
     Phys. Chem. Chem. Phys., 2023, 25, 17860-17868. DOI: 10.1039/D3CP02178E
   
   for DIPRO refer to:
   * J. Kohn, N. Gildemeister, S. Grimme, D. Fazzi, A. Hansen,
     J. Chem. Phys., 2023, just accepted.
   
   for PTB refer to:
   * S. Grimme, M. Mueller, A. Hansen, J. Chem. Phys., 2023, 158, 124111.
     DOI: 10.1063/5.0137838
   
   with help from (in alphabetical order)
   P. Atkinson, C. Bannwarth, F. Bohle, G. Brandenburg, E. Caldeweyher
   M. Checinski, S. Dohm, S. Ehlert, S. Ehrlich, I. Gerasimov, C. Hölzer
   A. Katbashev, J. Kohn, J. Koopman, C. Lavigne, S. Lehtola, F. März, M. Müller,
   F. Musil, H. Neugebauer, J. Pisarek, C. Plett, P. Pracht, F. Pultar,
   J. Seibert, P. Shushkov, S. Spicher, M. Stahn, M. Steiner, T. Strunk,
   J. Stückrath, T. Rose, and J. Unsleber
   
 * started run on 2025/04/09 at 02:18:53.699     
   ID    Z sym.   atoms
    1    6 C      1, 2, 4, 6, 8
    2    1 H      3, 5, 7, 9, 15-20
    3    8 O      10-14

           -------------------------------------------------
          |                Calculation Setup                |
           -------------------------------------------------

          program call               : /usr/bin/xtb xtb_opt.coord --opt normal --orca -I xtb_opt-xcontrol-inp
          coordinate file            : xtb_opt.coord
          omp threads                :                    16

           -------------------------------------------------
          |                   Orca driver                   |
           -------------------------------------------------
orca executable           : /home/michael/Documents/CHEM4561/orca_avx2/orca
orca input file           : xtb_opt.inp
orca input line           : 
orca parallel             : true
orca number of threads    : 16
                         * ORCA takes the control...
  ------------------------------------------------------------------------

                                 *****************
                                 * O   R   C   A *
                                 *****************

                                            #,                                       
                                            ###                                      
                                            ####                                     
                                            #####                                    
                                            ######                                   
                                           ########,                                 
                                     ,,################,,,,,                         
                               ,,#################################,,                 
                          ,,##########################################,,             
                       ,#########################################, ''#####,          
                    ,#############################################,,   '####,        
                  ,##################################################,,,,####,       
                ,###########''''           ''''###############################       
              ,#####''   ,,,,##########,,,,          '''####'''          '####       
            ,##' ,,,,###########################,,,                        '##       
           ' ,,###''''                  '''############,,,                           
         ,,##''                                '''############,,,,        ,,,,,,###''
      ,#''                                            '''#######################'''  
     '                                                          ''''####''''         
             ,#######,   #######,   ,#######,      ##                                
            ,#'     '#,  ##    ##  ,#'     '#,    #''#        ,####,   ,####,        
            ##       ##  ##   ,#'  ##            #'  '#       #'       #'  '#        
            ##       ##  #######   ##           ,######,      #####,   #    #        
            '#,     ,#'  ##    ##  '#,     ,#' ,#      #,     #,   #   #,  ,#        
             '#######'   ##     ##  '#######'  #'      '#     '####' # '####'        



                #########################################################
                #                        -***-                          #
                #          Department of theory and spectroscopy        #
                #                                                       #
                #                      Frank Neese                      #
                #                                                       #
                #     Directorship, Architecture, Infrastructure        #
                #                    SHARK, DRIVERS                     #
                #        Core code/Algorithms in most modules           #
                #                                                       #
                #        Max Planck Institute fuer Kohlenforschung      #
                #                Kaiser Wilhelm Platz 1                 #
                #                 D-45470 Muelheim/Ruhr                 #
                #                      Germany                          #
                #                                                       #
                #                  All rights reserved                  #
                #                        -***-                          #
                #########################################################


                         Program Version 6.0.1  -  RELEASE   -


 With contributions from (in alphabetic order):
[Max-Planck-Institut fuer Kohlenforschung]                               
  Daniel Aravena         : Magnetic Suceptibility                        
  Michael Atanasov       : Ab Initio Ligand Field Theory (pilot matlab implementation)
  Alexander A. Auer      : GIAO ZORA, VPT2 properties, NMR spectrum      
  Ute Becker             : All parallelization in ORCA, NUMFREQ, NUMCALC 
  Giovanni Bistoni       : ED, misc. LED, open-shell LED, HFLD           
  Martin Brehm           : Molecular dynamics                            
  Dmytro Bykov           : pre 5.0 version of the SCF Hessian            
  Marcos Casanova-Páez   : Triplet and SCS-CIS(D). UHF-(DLPNO)-IP/EA/STEOM-CCSD. UHF-CVS-IP/STEOM-CCSD   
  Vijay G. Chilkuri      : MRCI spin determinant printing, contributions to CSF-ICE 
  Pauline Colinet        : FMM embedding                                 
  Dipayan Datta          : RHF DLPNO-CCSD density                        
  Achintya Kumar Dutta   : EOM-CC, STEOM-CC                              
  Nicolas Foglia         : Exact transition moments, OPA infrastructure, MCD improvements    
  Dmitry Ganyushin       : Spin-Orbit,Spin-Spin,Magnetic field MRCI      
  Miquel Garcia-Rates    : C-PCM and meta-GGA Hessian, CCSD/C-PCM, Gaussian charge scheme 
  Tiago L. C. Gouveia    : GS-ROHF, GS-ROCIS                             
  Yang Guo               : DLPNO-NEVPT2, F12-NEVPT2, CIM, IAO-localization        
  Andreas Hansen         : Spin unrestricted coupled pair/coupled cluster methods 
  Ingolf Harden          : AUTO-CI MPn and infrastructure                
  Benjamin Helmich-Paris : MC-RPA, TRAH-(SCF,CASSCF), AVAS, COSX integrals, SCF dyn. polar. 
  Lee Huntington         : MR-EOM, pCC                                   
  Robert Izsak           : Overlap fitted RIJCOSX, COSX-SCS-MP3, EOM     
  Riya Kayal             : Wick's Theorem for AUTO-CI, AUTO-CI UHF-CCSDT 
  Emily Kempfer          : AUTO-CI, RHF CISDT and CCSDT                  
  Christian Kollmar      : KDIIS, OOCD, Brueckner-CCSD(T), CCSD density, CASPT2, CASPT2-K, improved NEVPT2 
  Axel Koslowski         : Symmetry handling                             
  Simone Kossmann        : meta-GGA functionals, TD-DFT gradient, OOMP2, (MP2 Hessian; deprecated post 5.0) 
  Lucas Lang             : DCDCAS                                        
  Marvin Lechner         : AUTO-CI (C++ implementation), FIC-MRCC        
  Spencer Leger          : CASSCF response                               
  Dagmar Lenk            : GEPOL surface, SMD, ORCA-2-JSON               
  Dimitrios Liakos       : Extrapolation schemes; Compound Job, initial MDCI parallelization 
  Dimitrios Manganas     : Further ROCIS development; embedding schemes. LFT, Crystal Embedding 
  Dimitrios Pantazis     : SARC Basis sets                               
  Anastasios Papadopoulos: AUTO-CI, single reference methods and gradients 
  Taras Petrenko         : pre 6.0 DFT Hessian and TD-DFT gradient, (ASA, deprecated), ECA, 1-Electron XAS/XES, NRVS 
  Peter Pinski           : DLPNO-MP2, DLPNO-MP2 Gradient                 
  Christoph Reimann      : Effective Core Potentials                     
  Marius Retegan         : Local ZFS, SOC                                
  Christoph Riplinger    : Optimizer, TS searches, QM/MM, DLPNO-CCSD(T), (RO)-DLPNO pert. Triples 
  Michael Roemelt        : Original ROCIS implementation                 
  Masaaki Saitow         : Open-shell DLPNO-CCSD energy and density      
  Barbara Sandhoefer     : DKH picture change effects                    
  Kantharuban Sivalingam : CASSCF convergence/infrastructure, NEVPT2 and variants, FIC-MRCI 
  Bernardo de Souza      : ESD, SOC TD-DFT                               
  Georgi L. Stoychev     : AutoAux, RI-MP2 NMR, DLPNO-MP2 response, X2C  
  Van Anh Tran           : RI-MP2 g-tensors                              
  Willem Van den Heuvel  : Paramagnetic NMR                              
  Zikuan Wang            : NOTCH, Electric field optimization            
  Frank Wennmohs         : Technical directorship and infrastructure     
  Hang Xu                : AUTO-CI-Response properties                   
                                                                         
[FACCTs GmbH]                                                            
  Markus Bursch, Miquel Garcia-Rates, Christoph Riplinger, Bernardo de Souza, Georgi L. Stoychev 
                                                                 
  APM, Basis sets (HGBS, AHGBS, def-TZVP (Ac-Lr), def2-XVPD (La-Lu)), CI-OPT, improved COSX, DLPNO-Multilevel,           
  DOCKER, DRACO, updates on ESD, GOAT, IRC, LR-CPCM, MBIS, meta-GGA TD-DFT gradient, ML-optimized integration grids, 
  MM, NACMEs, nearIR, NEB, NEB-TS, NL-DFT gradient (VV10), 2- and 3-layer-ONIOM, interface openCOSMO-RS, QMMM,   
  Crystal-QMMM, SF, symmetry and pop. for TD-DFT, r2SCAN hybrids, SOLVATOR                                   
                                                                         
[Other institutions]                                                     
  V. Asgeirsson          : NEB                                           
  Christoph Bannwarth    : sTDA-DFT, sTD-DFT, PBEh-3c, B97-3c, D3        
  Sebastian Ehlert       : rSCAN, r2SCAN, r2SCAN-3c, D4, dhf basis sets  
  Marvin Friede          : D4 for Fr, Ra, Ac-Lr                          
  Lars Goerigk           : TD-DFT with DH, B97 family of functionals     
  Stefan Grimme          : VdW corrections, initial TS optimization, DFT functionals, gCP, sTDA/sTD-DF 
  Waldemar Hujo          : DFT-NL                                        
  H. Jonsson             : NEB                                           
  Holger Kruse           : gCP                                           
  Marcel Mueller         : wB97X-3c, vDZP basis set                      
  Hagen Neugebauer       : wr2SCAN                                       
  Tobias Risthaus        : range-separated hybrid DFT                    
  Lukas Wittmann         : regularized MP2, r2SCAN double-hybrids, wr2SCAN        
                                                                         
We gratefully acknowledge several colleagues who have allowed us to      
interface, adapt or use parts of their codes:                            
  Ed Valeev, F. Pavosevic, A. Kumar             : LibInt (2-el integral package), F12 methods 
  Garnet Chan, S. Sharma, J. Yang, R. Olivares  : DMRG                   
  Ulf Ekstrom                                   : XCFun DFT Library      
  Mihaly Kallay                                 : mrcc  (arbitrary order and MRCC methods)
  Frank Weinhold                                : gennbo (NPA and NBO analysis)           
  Simon Mueller                                 : openCOSMO-RS                            
  Christopher J. Cramer and Donald G. Truhlar   : smd solvation model                     
  S Lehtola, MJT Oliveira, MAL Marques          : LibXC Library                           
  Liviu Ungur et al                             : ANISO software                          


 Your calculation uses the libint2 library for the computation of 2-el integrals
 For citations please refer to: http://libint.valeyev.net

 Your ORCA version has been built with support for libXC version: 6.2.2
 For citations please refer to: https://libxc.gitlab.io

 This ORCA versions uses:
   CBLAS   interface :  Fast vector & matrix operations
   LAPACKE interface :  Fast linear algebra routines
   SCALAPACK package :  Parallel linear algebra routines
   Shared memory     :  Shared parallel matrices
   BLAS/LAPACK       :  OpenBLAS 0.3.27  USE64BITINT DYNAMIC_ARCH NO_AFFINITY Zen SINGLE_THREADED
        Core in use  :  Zen
   Copyright (c) 2011-2014, The OpenBLAS Project




***************************************
The coordinates will be read from file: xtb_opt.xyz
***************************************


Your calculation utilizes the geometrical counterpoise correction gCP
Please cite in your paper:
H.Kruse, S. Grimme J.Chem.Phys., 136, (2012), 154101 
   

Your calculation utilizes the atom-pairwise dispersion correction
based on EEQ partial charges (D4)


================================================================================

----- Orbital basis set information -----
Your calculation utilizes the basis: def2-mTZVPP
   Stefan Grimme, Andreas Hansen, Sebastian Ehlert, and Jan-Michael Mewes 
   J. Chem. Phys. 154, 064103 (2021). DOI: 10.1063/5.0040021

----- AuxJ basis set information -----
Your calculation utilizes the auxiliary basis: def2/J
   F. Weigend, Phys. Chem. Chem. Phys. 8, 1057 (2006).

================================================================================
                                        WARNINGS
                       Please study these warnings very carefully!
================================================================================

WARNING: Old DensityContainer found on disk!
         Will remove this file - 
         If you want to keep old densities, please start your calculation with a different basename. 



WARNING: SCAN, rSCAN, or r2SCAN functional requested.
  ===> : libXC variant has now been activated.



================================================================================
                                       INPUT FILE
================================================================================
NAME = xtb_opt.inp
|  1> ! r2scan-3c def2/J RI DEFGRID2 scfconv7 ENGRAD tightSCF miniprint
|  2> * xyzfile 0 1 xtb_opt.xyz
|  3> 
|  4>                          ****END OF INPUT****
================================================================================

                     *******************************
                     * Energy+Gradient Calculation *
                     *******************************

---------------------------------
CARTESIAN COORDINATES (ANGSTROEM)
---------------------------------
  C      0.843941    1.384476   -0.567118
  C      1.590040    0.143727   -0.058631
  H      2.534846    0.056751   -0.614063
  C      0.754292   -1.122372   -0.336409
  H      1.194958   -1.969782    0.220637
  C     -0.687591   -0.910343    0.165658
  H     -1.318963   -1.763827   -0.108791
  C     -1.266858    0.376410   -0.465662
  H     -1.277398    0.295456   -1.563943
  O     -0.463564    1.469708   -0.064560
  O     -2.561663    0.596091   -0.057326
  O     -0.739458   -0.811588    1.563915
  O      0.808860   -1.360274   -1.720554
  O      1.829951    0.315448    1.320205
  H      0.834202    1.356482   -1.664883
  H      1.354331    2.282129   -0.216588
  H     -2.572309    0.569038    0.910942
  H     -0.176822   -0.059887    1.818137
  H      0.264961   -2.127323   -1.933053
  H      2.330990   -0.436246    1.656957

----------------------------
CARTESIAN COORDINATES (A.U.)
----------------------------
  NO LB      ZA    FRAG     MASS         X           Y           Z
   0 C     6.0000    0    12.011    1.594818    2.616281   -1.071698
   1 C     6.0000    0    12.011    3.004740    0.271604   -0.110796
   2 H     1.0000    0     1.008    4.790165    0.107244   -1.160411
   3 C     6.0000    0    12.011    1.425406   -2.120976   -0.635721
   4 H     1.0000    0     1.008    2.258144   -3.722348    0.416943
   5 C     6.0000    0    12.011   -1.299358   -1.720300    0.313049
   6 H     1.0000    0     1.008   -2.492478   -3.333149   -0.205586
   7 C     6.0000    0    12.011   -2.394014    0.711312   -0.879974
   8 H     1.0000    0     1.008   -2.413932    0.558331   -2.955425
   9 O     8.0000    0    15.999   -0.876009    2.777347   -0.122000
  10 O     8.0000    0    15.999   -4.840841    1.126449   -0.108330
  11 O     8.0000    0    15.999   -1.397374   -1.533679    2.955372
  12 O     8.0000    0    15.999    1.528524   -2.570545   -3.251375
  13 O     8.0000    0    15.999    3.458107    0.596111    2.494827
  14 H     1.0000    0     1.008    1.576412    2.563380   -3.146173
  15 H     1.0000    0     1.008    2.559315    4.312598   -0.409293
  16 H     1.0000    0     1.008   -4.860960    1.075327    1.721430
  17 H     1.0000    0     1.008   -0.334145   -0.113169    3.435781
  18 H     1.0000    0     1.008    0.500704   -4.020058   -3.652941
  19 H     1.0000    0     1.008    4.404934   -0.824385    3.131194

------------------------------------------------------------------------------
                   ___                                                        
                  /   \      - P O W E R E D   B Y -                         
                 /     \                                                     
                 |  |  |   _    _      __       _____    __    __             
                 |  |  |  | |  | |    /  \     |  _  \  |  |  /  |          
                  \  \/   | |  | |   /    \    | | | |  |  | /  /          
                 / \  \   | |__| |  /  /\  \   | |_| |  |  |/  /          
                |  |  |   |  __  | /  /__\  \  |    /   |      \           
                |  |  |   | |  | | |   __   |  |    \   |  |\   \          
                \     /   | |  | | |  |  |  |  | |\  \  |  | \   \       
                 \___/    |_|  |_| |__|  |__|  |_| \__\ |__|  \__/        
                                                                              
                      - O R C A' S   B I G   F R I E N D -                    
                                      &                                       
                       - I N T E G R A L  F E E D E R -                       
                                                                              
 v1 FN, 2020, v2 2021, v3 2022-2024                                           
------------------------------------------------------------------------------


----------------------
SHARK INTEGRAL PACKAGE
----------------------

Number of atoms                             ...     20
Number of basis functions                   ...    265
Number of shells                            ...    125
Maximum angular momentum                    ...      2
Integral batch strategy                     ... SHARK/LIBINT Hybrid
RI-J (if used) integral strategy            ... SPLIT-RIJ (Revised 2003 algorithm where possible)
Printlevel                                  ...      1
Contraction scheme used                     ... SEGMENTED contraction
Prescreening option                         ... SCHWARTZ
   Thresh                                   ... 3.000e-11
   Tcut                                     ... 1.000e-12
   Tpresel                                  ... 1.000e-12 
Coulomb Range Separation                    ... NOT USED
Exchange Range Separation                   ... NOT USED
Multipole approximations                    ... NOT USED
Finite Nucleus Model                        ... NOT USED
CABS basis                                  ... NOT available
Auxiliary Coulomb fitting basis             ... AVAILABLE
   # of basis functions in Aux-J            ...    600
   # of shells in Aux-J                     ...    200
   Maximum angular momentum in Aux-J        ...      4
Auxiliary J/K fitting basis                 ... NOT available
Auxiliary Correlation fitting basis         ... NOT available
Auxiliary 'external' fitting basis          ... NOT available

Checking pre-screening integrals            ... done (  0.0 sec) Dimension = 125
Check shell pair data                       ... done (  0.0 sec)
Shell pair information
Shell pair cut-off parameter TPreSel        ...   1.0e-12
Total number of shell pairs                 ...      7875
Shell pairs after pre-screening             ...      7247
Total number of primitive shell pairs       ...     27980
Primitive shell pairs kept                  ...     18216
          la=0 lb=0:   2197 shell pairs
          la=1 lb=0:   2581 shell pairs
          la=1 lb=1:    777 shell pairs
          la=2 lb=0:    990 shell pairs
          la=2 lb=1:    584 shell pairs
          la=2 lb=2:    118 shell pairs

Calculating one electron integrals          ... done (  0.0 sec)
Calculating RI/J V-Matrix + Cholesky decomp.... done (  0.0 sec)
Calculating Nuclear repulsion               ... done (  0.0 sec) ENN=    636.715452644663 Eh

Diagonalization of the overlap matrix:
Smallest eigenvalue                        ... 5.785e-05
Time for diagonalization                   ...    0.009 sec
Threshold for overlap eigenvalues          ... 1.000e-07
Number of eigenvalues below threshold      ... 0
Time for construction of square roots      ...    0.003 sec
Total time needed                          ...    0.013 sec

-------------------
DFT GRID GENERATION
-------------------

General Integration Accuracy     IntAcc      ... 4.388
Radial Grid Type                 RadialGrid  ... OptM3 with GC (2021)
Angular Grid (max. ang.)         AngularGrid ... 4 (Lebedev-302)
Angular grid pruning method      GridPruning ... 4 (adaptive)
Weight generation scheme         WeightScheme... mBecke (2022)
Basis function cutoff            BFCut       ... 1.0000e-11
Integration weight cutoff        WCut        ... 1.0000e-14
Partially contracted basis set               ... off
Rotationally invariant grid construction     ... off
Angular grids for H and He will be reduced by one unit
Diffuse basis detected: some atoms will have their outermost
                        angular grid increased by 1.

Total number of grid points                  ...    93363
Total number of batches                      ...     1469
Average number of points per batch           ...       63
Average number of grid points per atom       ...     4668
Initializing property integral containers    ... done (  0.0 sec)

SHARK setup successfully completed in   1.1 seconds

Maximum memory used throughout the entire STARTUP-calculation: 46.3 MB
Occupation numbers will be reassigned to an Aufbau configuration
             **** ENERGY FILE WAS UPDATED (xtb_opt.en.tmp) ****
Finished Guess after   0.1 sec
Maximum memory used throughout the entire GUESS-calculation: 21.1 MB
----------------------------------------D-I-I-S--------------------------------------------
Iteration    Energy (Eh)           Delta-E    RMSDP     MaxDP     DIISErr   Damp  Time(sec)
-------------------------------------------------------------------------------------------
               ***  Starting incremental Fock matrix formation  ***
                              *** Initializing SOSCF ***
---------------------------------------S-O-S-C-F--------------------------------------
Iteration    Energy (Eh)           Delta-E    RMSDP     MaxDP     MaxGrad    Time(sec)
--------------------------------------------------------------------------------------
    1    -572.5721539007995489     0.00e+00  4.72e-06  2.11e-04  7.85e-06     5.0
               *** Restarting incremental Fock matrix formation ***
    2    -572.5721538927684833     8.03e-09  7.19e-06  3.32e-04  2.12e-05     5.1
                  *** Gradient check signals convergence ***

               *****************************************************
               *                     SUCCESS                       *
               *           SCF CONVERGED AFTER   2 CYCLES          *
               *****************************************************

             **** ENERGY FILE WAS UPDATED (xtb_opt.en.tmp) ****

----------------
TOTAL SCF ENERGY
----------------

Total Energy       :       -572.57215389276848 Eh          -15580.48040 eV

Components:
Nuclear Repulsion  :        636.71545264466272 Eh           17325.90830 eV
Electronic Energy  :      -1209.28760653743120 Eh          -32906.38870 eV
One Electron Energy:      -2048.45080648128896 Eh          -55741.18027 eV
Two Electron Energy:        839.16319994385776 Eh           22834.79157 eV

Virial components:
Potential Energy   :      -1142.96363791552540 Eh          -31101.62176 eV
Kinetic Energy     :        570.39148402275703 Eh           15521.14136 eV
Virial Ratio       :          2.00382311084771

DFT components:
N(Alpha)           :       39.999975189895 electrons
N(Beta)            :       39.999975189895 electrons
N(Total)           :       79.999950379791 electrons
E(X)               :      -71.074431900524 Eh       
E(C)               :       -2.663280753147 Eh       
E(XC)              :      -73.737712653671 Eh       

---------------
SCF CONVERGENCE
---------------

  Last Energy change         ...   -8.0311e-09  Tolerance :   1.0000e-07
  Last MAX-Density change    ...    3.3243e-04  Tolerance :   1.0000e-07
  Last RMS-Density change    ...    7.1905e-06  Tolerance :   5.0000e-09
  Last DIIS Error            ...    1.2457e-04  Tolerance :   1.0000e-07
  Last Orbital Gradient      ...    2.1247e-05  Tolerance :   1.0000e-04
  Last Orbital Rotation      ...    4.4309e-05  Tolerance :   1.0000e-04


----------------
ORBITAL ENERGIES
----------------

  NO   OCC          E(Eh)            E(eV) 
   0   2.0000     -18.976454      -516.3756 
   1   2.0000     -18.974977      -516.3354 
   2   2.0000     -18.962929      -516.0075 
   3   2.0000     -18.956967      -515.8453 
   4   2.0000     -18.956477      -515.8320 
   5   2.0000     -10.129764      -275.6449 
   6   2.0000     -10.100871      -274.8587 
   7   2.0000     -10.100611      -274.8516 
   8   2.0000     -10.089860      -274.5590 
   9   2.0000     -10.086454      -274.4664 
  10   2.0000      -1.049615       -28.5615 
  11   2.0000      -1.020476       -27.7686 
  12   2.0000      -1.010625       -27.5005 
  13   2.0000      -0.993342       -27.0302 
  14   2.0000      -0.978147       -26.6167 
  15   2.0000      -0.749105       -20.3842 
  16   2.0000      -0.717835       -19.5333 
  17   2.0000      -0.631790       -17.1919 
  18   2.0000      -0.617081       -16.7916 
  19   2.0000      -0.563558       -15.3352 
  20   2.0000      -0.521653       -14.1949 
  21   2.0000      -0.519698       -14.1417 
  22   2.0000      -0.492820       -13.4103 
  23   2.0000      -0.466287       -12.6883 
  24   2.0000      -0.456530       -12.4228 
  25   2.0000      -0.451500       -12.2859 
  26   2.0000      -0.428856       -11.6698 
  27   2.0000      -0.399586       -10.8733 
  28   2.0000      -0.389982       -10.6120 
  29   2.0000      -0.373246       -10.1565 
  30   2.0000      -0.364125        -9.9083 
  31   2.0000      -0.340348        -9.2613 
  32   2.0000      -0.332018        -9.0347 
  33   2.0000      -0.313466        -8.5298 
  34   2.0000      -0.295682        -8.0459 
  35   2.0000      -0.284456        -7.7404 
  36   2.0000      -0.271912        -7.3991 
  37   2.0000      -0.261004        -7.1023 
  38   2.0000      -0.243263        -6.6195 
  39   2.0000      -0.218010        -5.9324 
  40   0.0000       0.025222         0.6863 
  41   0.0000       0.044357         1.2070 
  42   0.0000       0.071148         1.9360 
  43   0.0000       0.090217         2.4549 
  44   0.0000       0.100335         2.7303 
  45   0.0000       0.105389         2.8678 
  46   0.0000       0.111060         3.0221 
  47   0.0000       0.131733         3.5846 
  48   0.0000       0.137375         3.7382 
  49   0.0000       0.142224         3.8701 
  50   0.0000       0.151716         4.1284 
*Only the first 10 virtual orbitals were printed.
Total SCF time: 0 days 0 hours 0 min 10 sec 
Finished LeanSCF after  10.3 sec

Maximum memory used throughout the entire LEANSCF-calculation: 32.1 MB


-------------------------------------------------------------------------------
                          DFT DISPERSION CORRECTION                            
                                                                               
                                DFTD4 V3.4.0                                   
-------------------------------------------------------------------------------
-------------------------   ----------------
Dispersion correction           -0.006499012
-------------------------   ----------------

------------------   -----------------
gCP correction             0.017071726
------------------   -----------------

-------------------------   --------------------
FINAL SINGLE POINT ENERGY      -572.561581178901
-------------------------   --------------------

------------------------------------------------------------------------------
                         ORCA SCF GRADIENT CALCULATION
------------------------------------------------------------------------------

Nuc. rep. gradient        (SHARK) ... done (  0.0 sec)
HCore & Overlap gradient  (SHARK) ... done (  0.7 sec)
Split-RIJ-J gradient      (SHARK) ... done (  3.6 sec)
XC gradient                       ... done ( 13.7 sec)
Dispersion correction             ... done (  0.1 sec)

-------------------
DISPERSION GRADIENT
-------------------

   1   C   :    0.000016614    0.000053911   -0.000029477
   2   C   :    0.000063036    0.000008592   -0.000002387
   3   H   :    0.000044078    0.000004161   -0.000005016
   4   C   :    0.000026805   -0.000041453   -0.000006528
   5   H   :    0.000019799   -0.000037302    0.000000317
   6   C   :   -0.000038135   -0.000029598    0.000002377
   7   H   :   -0.000030180   -0.000032453    0.000006634
   8   C   :   -0.000028048    0.000026381   -0.000014529
   9   H   :   -0.000037343    0.000013622   -0.000016958
  10   O   :   -0.000031565    0.000068732   -0.000008247
  11   O   :   -0.000113220    0.000023723    0.000019528
  12   O   :   -0.000031455   -0.000020748    0.000085236
  13   O   :    0.000022523   -0.000087588   -0.000083735
  14   O   :    0.000094622    0.000000237    0.000069276
  15   H   :    0.000015548    0.000035884   -0.000028240
  16   H   :    0.000023043    0.000047980   -0.000002736
  17   H   :   -0.000043234    0.000010336   -0.000008285
  18   H   :   -0.000021495   -0.000024017    0.000028234
  19   H   :    0.000016154   -0.000029534   -0.000035053
  20   H   :    0.000032452    0.000009133    0.000029589

Difference to translation invariance:
           :    0.0000000000    0.0000000000    0.0000000000

Difference to rotation invariance:
           :   -0.0000000000   -0.0000000000    0.0000000000

Norm of the Dispersion gradient    ...    0.0003047281
RMS gradient                       ...    0.0000393402
MAX gradient                       ...    0.0001132195
gCP correction                   ... done

------------------
CARTESIAN GRADIENT
------------------

   1   C   :   -0.012614824    0.004724281    0.000097313
   2   C   :    0.002288842    0.000693538    0.016409481
   3   H   :   -0.001081073   -0.000459281    0.001710044
   4   C   :    0.000011378    0.001701302   -0.015981734
   5   H   :   -0.000227619   -0.000834675   -0.001451332
   6   C   :   -0.002328696   -0.005416953    0.010442369
   7   H   :    0.000474414    0.000753485    0.002075306
   8   C   :   -0.000701749    0.013859087    0.003879078
   9   H   :    0.000068483   -0.000606154    0.000386246
  10   O   :    0.008163579   -0.006774930   -0.007895987
  11   O   :    0.009314632   -0.004815421   -0.002283204
  12   O   :    0.003023570   -0.001046673   -0.013011888
  13   O   :   -0.000281644   -0.000748723    0.013175203
  14   O   :   -0.001037958   -0.004510613   -0.012412632
  15   H   :   -0.001282180   -0.000722406    0.002088335
  16   H   :   -0.002982123   -0.001438104    0.001677285
  17   H   :   -0.000959876    0.002209521    0.000378795
  18   H   :   -0.000372320    0.002806457    0.000583644
  19   H   :   -0.000201800   -0.000244196   -0.000754937
  20   H   :    0.000726965    0.000870456    0.000888614

Difference to translation invariance:
           :   -0.0000000000   -0.0000000000    0.0000000000

Difference to rotation invariance:
           :    0.0006357600   -0.0004862672    0.0005865397

Norm of the Cartesian gradient     ...    0.0439959002
RMS gradient                       ...    0.0056798463
MAX gradient                       ...    0.0164094811

-------
TIMINGS
-------

Total SCF gradient time     ....       18.070 sec

Densities                   ....       0.001 sec  (  0.0%)
One electron gradient       ....       0.673 sec  (  3.7%)
RI-J Coulomb gradient       ....       3.587 sec  ( 19.9%)
XC gradient                 ....      13.696 sec  ( 75.8%)

Maximum memory used throughout the entire SCFGRAD-calculation: 41.4 MB

------------------------------------------------------------------------------
                              ORCA PROPERTY CALCULATIONS
------------------------------------------------------------------------------

GBWName                                 ... xtb_opt.gbw
Number of atoms                         ...     20
Number of basis functions               ...    265
Max core memory                         ...   1024 MB

Electric properties:
Dipole moment                           ... YES
Quadrupole moment                       ...  NO
Static polarizability (Dipole/Dipole)   ...  NO
Static polarizability (Dipole/Quad.)    ...  NO
Static polarizability (Quad./Quad.)     ...  NO
Static polarizability (Velocity)        ...  NO

Atomic electric properties:
Dipole moment                           ...  NO
Quadrupole moment                       ...  NO
Static polarizability                   ...  NO

Choice of electric origin               ... Center of mass
Position of electric origin             ...     0.000010    -0.000003    -0.000007

General magnetic properties:
Magnetizability                         ...  NO

EPR properties:
g-Tensor (aka g-matrix)                 ...  NO
Zero-Field splitting spin-orbit         ...  NO
Zero-field splitting spin-spin          ...  NO
Hyperfine couplings                     ...  NO (   0 nuclei)
Quadrupole couplings                    ...  NO (   0 nuclei)
Contact density                         ...  NO (   0 nuclei)

NMR properties:
Chemical shifts                         ...  NO (   0 nuclei)
Spin-rotation constants                 ...  NO (   0 nuclei)
Spin-spin couplings                     ...  NO (   0 nuclei,    0 pairs)

Choice of magnetic origin               ... GIAO
Position of magnetic origin             ...     0.000000     0.000000     0.000000

Properties with geometric perturbations:
SCF Hessian                             ...  NO
IR spectrum                             ...  NO
VCD spectrum                            ...  NO
X-ray spectroscopy properties:
SCF XES/XAS/RIXS spectra                ...  NO


-------------
DIPOLE MOMENT
-------------

Method             : SCF
Type of density    : Electron Density
Multiplicity       :   1
Irrep              :   0
Energy             :  -572.5721538927684833 Eh
Relativity type    : 
Basis              : AO
                                X                 Y                 Z
Electronic contribution:     -2.005158470       0.806091930       1.213802193
Nuclear contribution   :      2.956191422      -1.682983980      -1.386804414
                        -----------------------------------------
Total Dipole Moment    :      0.951032952      -0.876892050      -0.173002221
                        -----------------------------------------
Magnitude (a.u.)       :      1.305118046
Magnitude (Debye)      :      3.317346438



--------------------
Rotational spectrum 
--------------------
 
Rotational constants in cm-1:             0.059028             0.040825             0.038437 
Rotational constants in MHz :          1769.626450          1223.893238          1152.305938 

Dipole components along the rotational axes: 
x,y,z [a.u.] :     1.105896    -0.624927     0.299655 
x,y,z [Debye]:     2.810964    -1.588439     0.761662 

 

Dipole moment calculation done in   0.0 sec 

Maximum memory used throughout the entire PROP-calculation: 20.2 MB

--------------------------------
SUGGESTED CITATIONS FOR THIS RUN
--------------------------------

Below you find a list of papers that are relevant to this ORCA run
We neither can nor want to force you to cite these papers, but we appreciate if you do
You receive ORCA, which is the product of decades of hard work by many enthusiastic individuals, for free
The only thing we kindly ask in return is that you cite our papers,
We deeply appreciate it, if you show your appreciation for ORCA by not just citing the generic ORCA reference.

Please note that relegating all ORCA citations to the supporting information does *not* help us.
SI sections are not indexed - citations you put there will not count into any citation statistics
But we need these citations in order to attract the funding resources that allow us to do what we are doing

Therefore, if you are a happy ORCA user, please consider citing a few of the papers listed below in the main body of your paper

In addition to the list printed below, the program has created the file xtb_opt.bibtex that contains the list in bibtex format
You can import this file easily into all common literature databanks and citation aid programs


List of essential papers. We consider these as the minimum necessary citations

  1. Neese,F.
     Software update: the ORCA program system, version 5.0
     WIRES Comput. Molec. Sci., 2022 12(1)e1606
     doi.org/10.1002/wcms.1606
  2. Grimme,S.; Hansen,A.; Ehlert,S.; Mewes,J.
     r2SCAN-3c: A 'Swiss army knife' composite electronic-structure method
     J. Chem. Phys., 2021 154 064103
     doi.org/10.1063/5.0040021

List of papers to cite with high priority. The work reported in these papers was absolutely
necessary for this run to complete.
Our perspective: the developers of density functionals and basis sets usually get cited in chemistry papers
Good! But without the algorithms to do something with them, the functionals or basis sets would not do anything.
Hence, in our opinion, the algorithm design and method developments papers are equally worthy of getting cited

  1. Neese,F.
     An improvement of the resolution of the identity approximation for the formation of the Coulomb matrix
     J. Comp. Chem., 2003 24(14)1740-1747
     doi.org/10.1002/jcc.10318
  2. Neese,F.
     The SHARK Integral Generation and Digestion System
     J. Comp. Chem., 2022  1-16
     doi.org/10.1002/jcc.26942
  3. Lehtola,S.; Steigemann,C.; Oliveira,M.; Marques,M.
     Recent developments in Libxc - A comprehensive library of functionals for density functional theory
     Software X, 2018 7 
     doi.org/10.1016/j.softx.2017.11.002
  4. Caldeweyher,E.; Bannwarth,C.; Grimme,S.
     Extension of the D3 dispersion coefficient model
     J. Chem. Phys., 2017 147 034112
     doi.org/10.1063/1.4993215
  5. Caldeweyher,E.; Ehlert,S.; Hansen,A.; Neugebauer,H.; Spicher,S.; Bannwarth,C.; Grimme,S.
     A generally applicable atomic-charge dependent London dispersion correction
     J. Chem. Phys., 2019 150 154122
     doi.org/10.1063/1.5090222
  6. Caldeweyher,E.; Mewes,J.; Ehlert,S.; Grimme,S.
     Extension and evaluation of the D4 London-dispersion model for periodic systems
     Phys. Chem. Chem. Phys., 2020 22(16)8499-8512
     doi.org/10.1039/D0CP00502A
  7. Wittmann,L.; Gordiy,I.; Friede,M.; Helmich-Paris,B.; Grimme,S.; Hansen,A.; Bursch,M.
     Extension of the D3 and D4 London Dispersion Corrections to the full Actinides Series
     Phys. Chem. Chem. Phys., 2024 26(32)21379-21394
     doi.org/https://doi.org/10.1039/D4CP01514B 

List of suggested additional citations. These are papers that are important in the 'surrounding' of 
of this run, or papers that preceded the highly important papers. If you like your results we are grateful for a citation.

  1. Neese,F.
     The ORCA program system
     WIRES Comput. Molec. Sci., 2012 2(1)73-78
     doi.org/10.1002/wcms.81
  2. Neese,F.
     Software update: the ORCA program system, version 4.0
     WIRES Comput. Molec. Sci., 2018 8(1)1-6
     doi.org/10.1002/wcms.1327
  3. Neese,F.; Wennmohs,F.; Becker,U.; Riplinger,C.
     The ORCA quantum chemistry program package
     J. Chem. Phys., 2020 152 Art. No. L224108
     doi.org/10.1063/5.0004608

List of optional additional citations

  1. Neese,F.
     Approximate second-order SCF convergence for spin unrestricted wavefunctions
     Chem. Phys. Lett., 2000 325(1-3)93-98
     doi.org/10.1016/s0009-2614(00)00662-x

Timings for individual modules:

Sum of individual times          ...       29.859 sec (=   0.498 min)
Startup calculation              ...        1.114 sec (=   0.019 min)   3.7 %
SCF iterations                   ...       10.401 sec (=   0.173 min)  34.8 %
Property calculations            ...        0.123 sec (=   0.002 min)   0.4 %
SCF Gradient evaluation          ...       18.221 sec (=   0.304 min)  61.0 %
                             ****ORCA TERMINATED NORMALLY****
TOTAL RUN TIME: 0 days 0 hours 0 minutes 29 seconds 995 msec
  ------------------------------------------------------------------------
          * successful ORCA run, taking over control again...

         :::::::::::::::::::::::::::::::::::::::::::::::::::::
         ::                  ORCA SUMMARY                   ::
         :::::::::::::::::::::::::::::::::::::::::::::::::::::
         :: total energy            -572.561581178901 Eh    ::
         :: gradient norm              0.043995900239 Eh/a0 ::
         :: HOMO-LUMO gap              0.000000000000 eV    ::
         :::::::::::::::::::::::::::::::::::::::::::::::::::::

      ----------------------------------------------------------- 
     |                       L-ANC optimizer                     |
      ----------------------------------------------------------- 
          low memory version by Sebastian Ehlert

          ...................................................
          :                      SETUP                      :
          :.................................................:
          :   energy convergence        0.5000000E-05 Eh    :
          :   grad. convergence         0.1000000E-02 Eh/a0 :
          :   optimization log               true           :
          :   writing optlog all                1     steps :
          :   Hessian reset                     8     steps :
          :   maximium step len.        1.0000000     a0    :
          :   LBFGS images                      8           :
          ...................................................
 * calculating model hessian...
Using Lindh-Hessian (1995)
 Shifting diagonal of input Hessian by    1.0000000000000000E-002
 Lowest  eigenvalues of input Hessian
    0.000000    0.000000    0.000000    0.000000    0.000000    0.000000
    0.016052    0.017604    0.020511    0.023417    0.025891    0.027701
    0.030822    0.038001    0.039283    0.048862    0.051400    0.060820
 Highest eigenvalues
    1.369837    1.448848    1.500096    1.507174    1.574547    1.665259


........................................................................
.............................. CYCLE    1 ..............................
........................................................................
                         * ORCA takes the control...
  ------------------------------------------------------------------------

                                 *****************
                                 * O   R   C   A *
                                 *****************

                                            #,                                       
                                            ###                                      
                                            ####                                     
                                            #####                                    
                                            ######                                   
                                           ########,                                 
                                     ,,################,,,,,                         
                               ,,#################################,,                 
                          ,,##########################################,,             
                       ,#########################################, ''#####,          
                    ,#############################################,,   '####,        
                  ,##################################################,,,,####,       
                ,###########''''           ''''###############################       
              ,#####''   ,,,,##########,,,,          '''####'''          '####       
            ,##' ,,,,###########################,,,                        '##       
           ' ,,###''''                  '''############,,,                           
         ,,##''                                '''############,,,,        ,,,,,,###''
      ,#''                                            '''#######################'''  
     '                                                          ''''####''''         
             ,#######,   #######,   ,#######,      ##                                
            ,#'     '#,  ##    ##  ,#'     '#,    #''#        ,####,   ,####,        
            ##       ##  ##   ,#'  ##            #'  '#       #'       #'  '#        
            ##       ##  #######   ##           ,######,      #####,   #    #        
            '#,     ,#'  ##    ##  '#,     ,#' ,#      #,     #,   #   #,  ,#        
             '#######'   ##     ##  '#######'  #'      '#     '####' # '####'        



                #########################################################
                #                        -***-                          #
                #          Department of theory and spectroscopy        #
                #                                                       #
                #                      Frank Neese                      #
                #                                                       #
                #     Directorship, Architecture, Infrastructure        #
                #                    SHARK, DRIVERS                     #
                #        Core code/Algorithms in most modules           #
                #                                                       #
                #        Max Planck Institute fuer Kohlenforschung      #
                #                Kaiser Wilhelm Platz 1                 #
                #                 D-45470 Muelheim/Ruhr                 #
                #                      Germany                          #
                #                                                       #
                #                  All rights reserved                  #
                #                        -***-                          #
                #########################################################


                         Program Version 6.0.1  -  RELEASE   -


 With contributions from (in alphabetic order):
[Max-Planck-Institut fuer Kohlenforschung]                               
  Daniel Aravena         : Magnetic Suceptibility                        
  Michael Atanasov       : Ab Initio Ligand Field Theory (pilot matlab implementation)
  Alexander A. Auer      : GIAO ZORA, VPT2 properties, NMR spectrum      
  Ute Becker             : All parallelization in ORCA, NUMFREQ, NUMCALC 
  Giovanni Bistoni       : ED, misc. LED, open-shell LED, HFLD           
  Martin Brehm           : Molecular dynamics                            
  Dmytro Bykov           : pre 5.0 version of the SCF Hessian            
  Marcos Casanova-Páez   : Triplet and SCS-CIS(D). UHF-(DLPNO)-IP/EA/STEOM-CCSD. UHF-CVS-IP/STEOM-CCSD   
  Vijay G. Chilkuri      : MRCI spin determinant printing, contributions to CSF-ICE 
  Pauline Colinet        : FMM embedding                                 
  Dipayan Datta          : RHF DLPNO-CCSD density                        
  Achintya Kumar Dutta   : EOM-CC, STEOM-CC                              
  Nicolas Foglia         : Exact transition moments, OPA infrastructure, MCD improvements    
  Dmitry Ganyushin       : Spin-Orbit,Spin-Spin,Magnetic field MRCI      
  Miquel Garcia-Rates    : C-PCM and meta-GGA Hessian, CCSD/C-PCM, Gaussian charge scheme 
  Tiago L. C. Gouveia    : GS-ROHF, GS-ROCIS                             
  Yang Guo               : DLPNO-NEVPT2, F12-NEVPT2, CIM, IAO-localization        
  Andreas Hansen         : Spin unrestricted coupled pair/coupled cluster methods 
  Ingolf Harden          : AUTO-CI MPn and infrastructure                
  Benjamin Helmich-Paris : MC-RPA, TRAH-(SCF,CASSCF), AVAS, COSX integrals, SCF dyn. polar. 
  Lee Huntington         : MR-EOM, pCC                                   
  Robert Izsak           : Overlap fitted RIJCOSX, COSX-SCS-MP3, EOM     
  Riya Kayal             : Wick's Theorem for AUTO-CI, AUTO-CI UHF-CCSDT 
  Emily Kempfer          : AUTO-CI, RHF CISDT and CCSDT                  
  Christian Kollmar      : KDIIS, OOCD, Brueckner-CCSD(T), CCSD density, CASPT2, CASPT2-K, improved NEVPT2 
  Axel Koslowski         : Symmetry handling                             
  Simone Kossmann        : meta-GGA functionals, TD-DFT gradient, OOMP2, (MP2 Hessian; deprecated post 5.0) 
  Lucas Lang             : DCDCAS                                        
  Marvin Lechner         : AUTO-CI (C++ implementation), FIC-MRCC        
  Spencer Leger          : CASSCF response                               
  Dagmar Lenk            : GEPOL surface, SMD, ORCA-2-JSON               
  Dimitrios Liakos       : Extrapolation schemes; Compound Job, initial MDCI parallelization 
  Dimitrios Manganas     : Further ROCIS development; embedding schemes. LFT, Crystal Embedding 
  Dimitrios Pantazis     : SARC Basis sets                               
  Anastasios Papadopoulos: AUTO-CI, single reference methods and gradients 
  Taras Petrenko         : pre 6.0 DFT Hessian and TD-DFT gradient, (ASA, deprecated), ECA, 1-Electron XAS/XES, NRVS 
  Peter Pinski           : DLPNO-MP2, DLPNO-MP2 Gradient                 
  Christoph Reimann      : Effective Core Potentials                     
  Marius Retegan         : Local ZFS, SOC                                
  Christoph Riplinger    : Optimizer, TS searches, QM/MM, DLPNO-CCSD(T), (RO)-DLPNO pert. Triples 
  Michael Roemelt        : Original ROCIS implementation                 
  Masaaki Saitow         : Open-shell DLPNO-CCSD energy and density      
  Barbara Sandhoefer     : DKH picture change effects                    
  Kantharuban Sivalingam : CASSCF convergence/infrastructure, NEVPT2 and variants, FIC-MRCI 
  Bernardo de Souza      : ESD, SOC TD-DFT                               
  Georgi L. Stoychev     : AutoAux, RI-MP2 NMR, DLPNO-MP2 response, X2C  
  Van Anh Tran           : RI-MP2 g-tensors                              
  Willem Van den Heuvel  : Paramagnetic NMR                              
  Zikuan Wang            : NOTCH, Electric field optimization            
  Frank Wennmohs         : Technical directorship and infrastructure     
  Hang Xu                : AUTO-CI-Response properties                   
                                                                         
[FACCTs GmbH]                                                            
  Markus Bursch, Miquel Garcia-Rates, Christoph Riplinger, Bernardo de Souza, Georgi L. Stoychev 
                                                                 
  APM, Basis sets (HGBS, AHGBS, def-TZVP (Ac-Lr), def2-XVPD (La-Lu)), CI-OPT, improved COSX, DLPNO-Multilevel,           
  DOCKER, DRACO, updates on ESD, GOAT, IRC, LR-CPCM, MBIS, meta-GGA TD-DFT gradient, ML-optimized integration grids, 
  MM, NACMEs, nearIR, NEB, NEB-TS, NL-DFT gradient (VV10), 2- and 3-layer-ONIOM, interface openCOSMO-RS, QMMM,   
  Crystal-QMMM, SF, symmetry and pop. for TD-DFT, r2SCAN hybrids, SOLVATOR                                   
                                                                         
[Other institutions]                                                     
  V. Asgeirsson          : NEB                                           
  Christoph Bannwarth    : sTDA-DFT, sTD-DFT, PBEh-3c, B97-3c, D3        
  Sebastian Ehlert       : rSCAN, r2SCAN, r2SCAN-3c, D4, dhf basis sets  
  Marvin Friede          : D4 for Fr, Ra, Ac-Lr                          
  Lars Goerigk           : TD-DFT with DH, B97 family of functionals     
  Stefan Grimme          : VdW corrections, initial TS optimization, DFT functionals, gCP, sTDA/sTD-DF 
  Waldemar Hujo          : DFT-NL                                        
  H. Jonsson             : NEB                                           
  Holger Kruse           : gCP                                           
  Marcel Mueller         : wB97X-3c, vDZP basis set                      
  Hagen Neugebauer       : wr2SCAN                                       
  Tobias Risthaus        : range-separated hybrid DFT                    
  Lukas Wittmann         : regularized MP2, r2SCAN double-hybrids, wr2SCAN        
                                                                         
We gratefully acknowledge several colleagues who have allowed us to      
interface, adapt or use parts of their codes:                            
  Ed Valeev, F. Pavosevic, A. Kumar             : LibInt (2-el integral package), F12 methods 
  Garnet Chan, S. Sharma, J. Yang, R. Olivares  : DMRG                   
  Ulf Ekstrom                                   : XCFun DFT Library      
  Mihaly Kallay                                 : mrcc  (arbitrary order and MRCC methods)
  Frank Weinhold                                : gennbo (NPA and NBO analysis)           
  Simon Mueller                                 : openCOSMO-RS                            
  Christopher J. Cramer and Donald G. Truhlar   : smd solvation model                     
  S Lehtola, MJT Oliveira, MAL Marques          : LibXC Library                           
  Liviu Ungur et al                             : ANISO software                          


 Your calculation uses the libint2 library for the computation of 2-el integrals
 For citations please refer to: http://libint.valeyev.net

 Your ORCA version has been built with support for libXC version: 6.2.2
 For citations please refer to: https://libxc.gitlab.io

 This ORCA versions uses:
   CBLAS   interface :  Fast vector & matrix operations
   LAPACKE interface :  Fast linear algebra routines
   SCALAPACK package :  Parallel linear algebra routines
   Shared memory     :  Shared parallel matrices
   BLAS/LAPACK       :  OpenBLAS 0.3.27  USE64BITINT DYNAMIC_ARCH NO_AFFINITY Zen SINGLE_THREADED
        Core in use  :  Zen
   Copyright (c) 2011-2014, The OpenBLAS Project




***************************************
The coordinates will be read from file: xtb_opt.xyz
***************************************


Your calculation utilizes the geometrical counterpoise correction gCP
Please cite in your paper:
H.Kruse, S. Grimme J.Chem.Phys., 136, (2012), 154101 
   

Your calculation utilizes the atom-pairwise dispersion correction
based on EEQ partial charges (D4)


================================================================================

----- Orbital basis set information -----
Your calculation utilizes the basis: def2-mTZVPP
   Stefan Grimme, Andreas Hansen, Sebastian Ehlert, and Jan-Michael Mewes 
   J. Chem. Phys. 154, 064103 (2021). DOI: 10.1063/5.0040021

----- AuxJ basis set information -----
Your calculation utilizes the auxiliary basis: def2/J
   F. Weigend, Phys. Chem. Chem. Phys. 8, 1057 (2006).

================================================================================
                                        WARNINGS
                       Please study these warnings very carefully!
================================================================================

WARNING: Old DensityContainer found on disk!
         Will remove this file - 
         If you want to keep old densities, please start your calculation with a different basename. 



WARNING: SCAN, rSCAN, or r2SCAN functional requested.
  ===> : libXC variant has now been activated.



================================================================================
                                       INPUT FILE
================================================================================
NAME = xtb_opt.inp
|  1> ! r2scan-3c def2/J RI DEFGRID2 scfconv7 ENGRAD tightSCF miniprint
|  2> * xyzfile 0 1 xtb_opt.xyz
|  3> 
|  4>                          ****END OF INPUT****
================================================================================

                     *******************************
                     * Energy+Gradient Calculation *
                     *******************************

---------------------------------
CARTESIAN COORDINATES (ANGSTROEM)
---------------------------------
  C      0.854370    1.382824   -0.573452
  C      1.597891    0.144745   -0.070891
  H      2.540696    0.054706   -0.632554
  C      0.755505   -1.122317   -0.321810
  H      1.197720   -1.964753    0.241254
  C     -0.691346   -0.905563    0.165702
  H     -1.319798   -1.756801   -0.129001
  C     -1.273953    0.375130   -0.465418
  H     -1.283693    0.303745   -1.564696
  O     -0.461874    1.470386   -0.057707
  O     -2.572552    0.607107   -0.052874
  O     -0.765925   -0.821830    1.574313
  O      0.808952   -1.353042   -1.719013
  O      1.837985    0.333281    1.317288
  H      0.842565    1.355850   -1.673404
  H      1.378227    2.280747   -0.236931
  H     -2.580046    0.543732    0.914035
  H     -0.178372   -0.094912    1.841311
  H      0.267756   -2.121789   -1.930564
  H      2.322641   -0.427171    1.659281

----------------------------
CARTESIAN COORDINATES (A.U.)
----------------------------
  NO LB      ZA    FRAG     MASS         X           Y           Z
   0 C     6.0000    0    12.011    1.614526    2.613159   -1.083666
   1 C     6.0000    0    12.011    3.019576    0.273529   -0.133964
   2 H     1.0000    0     1.008    4.801220    0.103379   -1.195354
   3 C     6.0000    0    12.011    1.427697   -2.120872   -0.608133
   4 H     1.0000    0     1.008    2.263363   -3.712845    0.455904
   5 C     6.0000    0    12.011   -1.306454   -1.711266    0.313131
   6 H     1.0000    0     1.008   -2.494057   -3.319873   -0.243776
   7 C     6.0000    0    12.011   -2.407422    0.708893   -0.879513
   8 H     1.0000    0     1.008   -2.425828    0.573995   -2.956846
   9 O     8.0000    0    15.999   -0.872816    2.778626   -0.109050
  10 O     8.0000    0    15.999   -4.861418    1.147266   -0.099918
  11 O     8.0000    0    15.999   -1.447389   -1.553034    2.975020
  12 O     8.0000    0    15.999    1.528698   -2.556878   -3.248463
  13 O     8.0000    0    15.999    3.473288    0.629810    2.489314
  14 H     1.0000    0     1.008    1.592216    2.562185   -3.162274
  15 H     1.0000    0     1.008    2.604472    4.309987   -0.447735
  16 H     1.0000    0     1.008   -4.875580    1.027504    1.727275
  17 H     1.0000    0     1.008   -0.337075   -0.179357    3.479574
  18 H     1.0000    0     1.008    0.505986   -4.009599   -3.648237
  19 H     1.0000    0     1.008    4.389155   -0.807236    3.135586

------------------------------------------------------------------------------
                   ___                                                        
                  /   \      - P O W E R E D   B Y -                         
                 /     \                                                     
                 |  |  |   _    _      __       _____    __    __             
                 |  |  |  | |  | |    /  \     |  _  \  |  |  /  |          
                  \  \/   | |  | |   /    \    | | | |  |  | /  /          
                 / \  \   | |__| |  /  /\  \   | |_| |  |  |/  /          
                |  |  |   |  __  | /  /__\  \  |    /   |      \           
                |  |  |   | |  | | |   __   |  |    \   |  |\   \          
                \     /   | |  | | |  |  |  |  | |\  \  |  | \   \       
                 \___/    |_|  |_| |__|  |__|  |_| \__\ |__|  \__/        
                                                                              
                      - O R C A' S   B I G   F R I E N D -                    
                                      &                                       
                       - I N T E G R A L  F E E D E R -                       
                                                                              
 v1 FN, 2020, v2 2021, v3 2022-2024                                           
------------------------------------------------------------------------------


----------------------
SHARK INTEGRAL PACKAGE
----------------------

Number of atoms                             ...     20
Number of basis functions                   ...    265
Number of shells                            ...    125
Maximum angular momentum                    ...      2
Integral batch strategy                     ... SHARK/LIBINT Hybrid
RI-J (if used) integral strategy            ... SPLIT-RIJ (Revised 2003 algorithm where possible)
Printlevel                                  ...      1
Contraction scheme used                     ... SEGMENTED contraction
Prescreening option                         ... SCHWARTZ
   Thresh                                   ... 3.000e-11
   Tcut                                     ... 1.000e-12
   Tpresel                                  ... 1.000e-12 
Coulomb Range Separation                    ... NOT USED
Exchange Range Separation                   ... NOT USED
Multipole approximations                    ... NOT USED
Finite Nucleus Model                        ... NOT USED
CABS basis                                  ... NOT available
Auxiliary Coulomb fitting basis             ... AVAILABLE
   # of basis functions in Aux-J            ...    600
   # of shells in Aux-J                     ...    200
   Maximum angular momentum in Aux-J        ...      4
Auxiliary J/K fitting basis                 ... NOT available
Auxiliary Correlation fitting basis         ... NOT available
Auxiliary 'external' fitting basis          ... NOT available

Checking pre-screening integrals            ... done (  0.0 sec) Dimension = 125
Check shell pair data                       ... done (  0.0 sec)
Shell pair information
Shell pair cut-off parameter TPreSel        ...   1.0e-12
Total number of shell pairs                 ...      7875
Shell pairs after pre-screening             ...      7241
Total number of primitive shell pairs       ...     27980
Primitive shell pairs kept                  ...     18194
          la=0 lb=0:   2193 shell pairs
          la=1 lb=0:   2580 shell pairs
          la=1 lb=1:    777 shell pairs
          la=2 lb=0:    990 shell pairs
          la=2 lb=1:    583 shell pairs
          la=2 lb=2:    118 shell pairs

Calculating one electron integrals          ... done (  0.0 sec)
Calculating RI/J V-Matrix + Cholesky decomp.... done (  0.0 sec)
Calculating Nuclear repulsion               ... done (  0.0 sec) ENN=    634.783380496536 Eh

Diagonalization of the overlap matrix:
Smallest eigenvalue                        ... 5.781e-05
Time for diagonalization                   ...    0.008 sec
Threshold for overlap eigenvalues          ... 1.000e-07
Number of eigenvalues below threshold      ... 0
Time for construction of square roots      ...    0.004 sec
Total time needed                          ...    0.014 sec

-------------------
DFT GRID GENERATION
-------------------

General Integration Accuracy     IntAcc      ... 4.388
Radial Grid Type                 RadialGrid  ... OptM3 with GC (2021)
Angular Grid (max. ang.)         AngularGrid ... 4 (Lebedev-302)
Angular grid pruning method      GridPruning ... 4 (adaptive)
Weight generation scheme         WeightScheme... mBecke (2022)
Basis function cutoff            BFCut       ... 1.0000e-11
Integration weight cutoff        WCut        ... 1.0000e-14
Partially contracted basis set               ... off
Rotationally invariant grid construction     ... off
Angular grids for H and He will be reduced by one unit
Diffuse basis detected: some atoms will have their outermost
                        angular grid increased by 1.

Total number of grid points                  ...    93377
Total number of batches                      ...     1470
Average number of points per batch           ...       63
Average number of grid points per atom       ...     4669
Initializing property integral containers    ... done (  0.0 sec)

SHARK setup successfully completed in   1.3 seconds

Maximum memory used throughout the entire STARTUP-calculation: 46.3 MB
Occupation numbers will be reassigned to an Aufbau configuration
             **** ENERGY FILE WAS UPDATED (xtb_opt.en.tmp) ****
Finished Guess after   0.1 sec
Maximum memory used throughout the entire GUESS-calculation: 21.1 MB
----------------------------------------D-I-I-S--------------------------------------------
Iteration    Energy (Eh)           Delta-E    RMSDP     MaxDP     DIISErr   Damp  Time(sec)
-------------------------------------------------------------------------------------------
               ***  Starting incremental Fock matrix formation  ***
    1    -572.5726645801601080     0.00e+00  1.34e-04  5.69e-03  9.54e-03  0.700   5.2
    2    -572.5729831519399795    -3.19e-04  1.19e-04  5.27e-03  7.15e-03  0.700   3.2
                               ***Turning on AO-DIIS***
    3    -572.5732187511855500    -2.36e-04  9.25e-05  4.54e-03  5.08e-03  0.700   3.5
    4    -572.5733832048667864    -1.64e-04  2.23e-04  1.06e-02  3.57e-03  0.000   3.7
                              *** Initializing SOSCF ***
---------------------------------------S-O-S-C-F--------------------------------------
Iteration    Energy (Eh)           Delta-E    RMSDP     MaxDP     MaxGrad    Time(sec)
--------------------------------------------------------------------------------------
    5    -572.5737714673721257    -3.88e-04  1.02e-05  3.15e-04  1.57e-04     4.3
               *** Restarting incremental Fock matrix formation ***
    6    -572.5737716117994296    -1.44e-07  7.65e-06  1.85e-04  1.87e-05     4.8
                  *** Gradient check signals convergence ***

               *****************************************************
               *                     SUCCESS                       *
               *           SCF CONVERGED AFTER   6 CYCLES          *
               *****************************************************

             **** ENERGY FILE WAS UPDATED (xtb_opt.en.tmp) ****

----------------
TOTAL SCF ENERGY
----------------

Total Energy       :       -572.57377161179943 Eh          -15580.52442 eV

Components:
Nuclear Repulsion  :        634.78338049653576 Eh           17273.33394 eV
Electronic Energy  :      -1207.35715210833519 Eh          -32853.85837 eV
One Electron Energy:      -2044.61988747643318 Eh          -55636.93567 eV
Two Electron Energy:        837.26273536809799 Eh           22783.07730 eV

Virial components:
Potential Energy   :      -1142.85690127004409 Eh          -31098.71731 eV
Kinetic Energy     :        570.28312965824477 Eh           15518.19289 eV
Virial Ratio       :          2.00401667493641

DFT components:
N(Alpha)           :       39.999943473356 electrons
N(Beta)            :       39.999943473356 electrons
N(Total)           :       79.999886946711 electrons
E(X)               :      -71.043850506693 Eh       
E(C)               :       -2.661064435939 Eh       
E(XC)              :      -73.704914942633 Eh       

---------------
SCF CONVERGENCE
---------------

  Last Energy change         ...    1.4443e-07  Tolerance :   1.0000e-07
  Last MAX-Density change    ...    1.8471e-04  Tolerance :   1.0000e-07
  Last RMS-Density change    ...    7.6462e-06  Tolerance :   5.0000e-09
  Last DIIS Error            ...    1.5717e-04  Tolerance :   1.0000e-07
  Last Orbital Gradient      ...    1.8734e-05  Tolerance :   1.0000e-04
  Last Orbital Rotation      ...    5.0287e-05  Tolerance :   1.0000e-04


----------------
ORBITAL ENERGIES
----------------

  NO   OCC          E(Eh)            E(eV) 
   0   2.0000     -18.976665      -516.3813 
   1   2.0000     -18.976163      -516.3676 
   2   2.0000     -18.961819      -515.9773 
   3   2.0000     -18.958779      -515.8946 
   4   2.0000     -18.957973      -515.8727 
   5   2.0000     -10.131079      -275.6807 
   6   2.0000     -10.103790      -274.9381 
   7   2.0000     -10.102160      -274.8937 
   8   2.0000     -10.092764      -274.6381 
   9   2.0000     -10.087225      -274.4874 
  10   2.0000      -1.045164       -28.4404 
  11   2.0000      -1.017835       -27.6967 
  12   2.0000      -1.008020       -27.4296 
  13   2.0000      -0.991553       -26.9815 
  14   2.0000      -0.974563       -26.5192 
  15   2.0000      -0.750420       -20.4200 
  16   2.0000      -0.718859       -19.5612 
  17   2.0000      -0.632912       -17.2224 
  18   2.0000      -0.615682       -16.7536 
  19   2.0000      -0.561527       -15.2799 
  20   2.0000      -0.520860       -14.1733 
  21   2.0000      -0.517975       -14.0948 
  22   2.0000      -0.490509       -13.3474 
  23   2.0000      -0.464644       -12.6436 
  24   2.0000      -0.454140       -12.3578 
  25   2.0000      -0.451394       -12.2831 
  26   2.0000      -0.429738       -11.6938 
  27   2.0000      -0.398426       -10.8417 
  28   2.0000      -0.388610       -10.5746 
  29   2.0000      -0.371579       -10.1112 
  30   2.0000      -0.365213        -9.9380 
  31   2.0000      -0.340124        -9.2553 
  32   2.0000      -0.332256        -9.0412 
  33   2.0000      -0.315164        -8.5761 
  34   2.0000      -0.296428        -8.0662 
  35   2.0000      -0.284046        -7.7293 
  36   2.0000      -0.272501        -7.4151 
  37   2.0000      -0.261299        -7.1103 
  38   2.0000      -0.245562        -6.6821 
  39   2.0000      -0.220700        -6.0055 
  40   0.0000       0.022730         0.6185 
  41   0.0000       0.043911         1.1949 
  42   0.0000       0.068821         1.8727 
  43   0.0000       0.087660         2.3854 
  44   0.0000       0.100356         2.7308 
  45   0.0000       0.103570         2.8183 
  46   0.0000       0.109519         2.9802 
  47   0.0000       0.130107         3.5404 
  48   0.0000       0.136245         3.7074 
  49   0.0000       0.140787         3.8310 
  50   0.0000       0.150112         4.0847 
*Only the first 10 virtual orbitals were printed.
Total SCF time: 0 days 0 hours 0 min 24 sec 
Finished LeanSCF after  24.9 sec

Maximum memory used throughout the entire LEANSCF-calculation: 32.1 MB


-------------------------------------------------------------------------------
                          DFT DISPERSION CORRECTION                            
                                                                               
                                DFTD4 V3.4.0                                   
-------------------------------------------------------------------------------
-------------------------   ----------------
Dispersion correction           -0.006486559
-------------------------   ----------------

------------------   -----------------
gCP correction             0.016824901
------------------   -----------------

-------------------------   --------------------
FINAL SINGLE POINT ENERGY      -572.563433270023
-------------------------   --------------------

------------------------------------------------------------------------------
                         ORCA SCF GRADIENT CALCULATION
------------------------------------------------------------------------------

Nuc. rep. gradient        (SHARK) ... done (  0.0 sec)
HCore & Overlap gradient  (SHARK) ... done (  0.7 sec)
Split-RIJ-J gradient      (SHARK) ... done (  3.6 sec)
XC gradient                       ... done ( 14.6 sec)
Dispersion correction             ... done (  0.0 sec)

-------------------
DISPERSION GRADIENT
-------------------

   1   C   :    0.000019202    0.000055689   -0.000030089
   2   C   :    0.000064200    0.000008702   -0.000002482
   3   H   :    0.000043754    0.000004106   -0.000005308
   4   C   :    0.000027195   -0.000041701   -0.000006835
   5   H   :    0.000019847   -0.000037310    0.000000756
   6   C   :   -0.000038843   -0.000029941    0.000002988
   7   H   :   -0.000030052   -0.000032246    0.000006319
   8   C   :   -0.000031343    0.000026303   -0.000014748
   9   H   :   -0.000037476    0.000013785   -0.000016353
  10   O   :   -0.000031474    0.000067599   -0.000008917
  11   O   :   -0.000112320    0.000023125    0.000019353
  12   O   :   -0.000032059   -0.000022178    0.000085532
  13   O   :    0.000022549   -0.000086910   -0.000082858
  14   O   :    0.000094678    0.000000676    0.000068389
  15   H   :    0.000015745    0.000035686   -0.000027829
  16   H   :    0.000023161    0.000047446   -0.000002985
  17   H   :   -0.000043038    0.000010848   -0.000008239
  18   H   :   -0.000022602   -0.000023853    0.000028814
  19   H   :    0.000016141   -0.000029439   -0.000034970
  20   H   :    0.000032735    0.000009613    0.000029461

Difference to translation invariance:
           :   -0.0000000000    0.0000000000    0.0000000000

Difference to rotation invariance:
           :    0.0000000000   -0.0000000000    0.0000000000

Norm of the Dispersion gradient    ...    0.0003049454
RMS gradient                       ...    0.0000393683
MAX gradient                       ...    0.0001123205
gCP correction                   ... done

------------------
CARTESIAN GRADIENT
------------------

   1   C   :   -0.006198180    0.003227901    0.001462798
   2   C   :    0.003298806    0.000032452    0.007453309
   3   H   :   -0.000234045    0.000158474   -0.000072645
   4   C   :   -0.000538892   -0.002250574   -0.007564235
   5   H   :    0.000449177   -0.000407127    0.000124205
   6   C   :    0.000171803   -0.001817989    0.006277055
   7   H   :   -0.000453625    0.000729307    0.000476979
   8   C   :   -0.001733177    0.006538156    0.001236677
   9   H   :    0.000242314    0.000032703   -0.000396983
  10   O   :    0.001978476   -0.005453143   -0.003384770
  11   O   :    0.003258577   -0.002000773   -0.001248553
  12   O   :    0.001650732   -0.000601490   -0.005795757
  13   O   :   -0.000020735    0.000703748    0.006024988
  14   O   :   -0.000970237   -0.001838764   -0.006877899
  15   H   :    0.000270211   -0.000491968    0.000596005
  16   H   :   -0.000549822   -0.000369042    0.000580016
  17   H   :   -0.000595366    0.001674211    0.000342061
  18   H   :   -0.000330270    0.001374824    0.000549701
  19   H   :    0.000053115    0.000308116   -0.000347170
  20   H   :    0.000251139    0.000450979    0.000564219

Difference to translation invariance:
           :   -0.0000000000    0.0000000000    0.0000000000

Difference to rotation invariance:
[...]
ORBITAL ENERGIES
----------------

  NO   OCC          E(Eh)            E(eV) 
   0   2.0000     -18.978607      -516.4341 
   1   2.0000     -18.976971      -516.3896 
   2   2.0000     -18.961136      -515.9588 
   3   2.0000     -18.959331      -515.9096 
   4   2.0000     -18.956182      -515.8239 
   5   2.0000     -10.130863      -275.6748 
   6   2.0000     -10.106047      -274.9995 
   7   2.0000     -10.103869      -274.9402 
   8   2.0000     -10.095334      -274.7080 
   9   2.0000     -10.086782      -274.4753 
  10   2.0000      -1.040916       -28.3248 
  11   2.0000      -1.015275       -27.6270 
  12   2.0000      -1.005881       -27.3714 
  13   2.0000      -0.990309       -26.9477 
  14   2.0000      -0.970386       -26.4055 
  15   2.0000      -0.753846       -20.5132 
  16   2.0000      -0.719484       -19.5782 
  17   2.0000      -0.633676       -17.2432 
  18   2.0000      -0.614205       -16.7134 
  19   2.0000      -0.559402       -15.2221 
  20   2.0000      -0.520905       -14.1746 
  21   2.0000      -0.517171       -14.0729 
  22   2.0000      -0.488358       -13.2889 
  23   2.0000      -0.461525       -12.5587 
  24   2.0000      -0.452741       -12.3197 
  25   2.0000      -0.451066       -12.2741 
  26   2.0000      -0.432895       -11.7797 
  27   2.0000      -0.399331       -10.8663 
  28   2.0000      -0.387831       -10.5534 
  29   2.0000      -0.369441       -10.0530 
  30   2.0000      -0.366469        -9.9721 
  31   2.0000      -0.341139        -9.2829 
  32   2.0000      -0.331842        -9.0299 
  33   2.0000      -0.314791        -8.5659 
  34   2.0000      -0.297248        -8.0885 
  35   2.0000      -0.282691        -7.6924 
  36   2.0000      -0.274081        -7.4581 
  37   2.0000      -0.261415        -7.1135 
  38   2.0000      -0.247967        -6.7475 
  39   2.0000      -0.222802        -6.0628 
  40   0.0000       0.018932         0.5152 
  41   0.0000       0.041369         1.1257 
  42   0.0000       0.066099         1.7987 
  43   0.0000       0.087557         2.3825 
  44   0.0000       0.100182         2.7261 
  45   0.0000       0.105169         2.8618 
  46   0.0000       0.109764         2.9868 
  47   0.0000       0.128479         3.4961 
  48   0.0000       0.135282         3.6812 
  49   0.0000       0.139545         3.7972 
  50   0.0000       0.148406         4.0383 
*Only the first 10 virtual orbitals were printed.
Total SCF time: 0 days 0 hours 0 min 8 sec 
Finished LeanSCF after   9.0 sec

Maximum memory used throughout the entire LEANSCF-calculation: 32.1 MB


-------------------------------------------------------------------------------
                          DFT DISPERSION CORRECTION                            
                                                                               
                                DFTD4 V3.4.0                                   
-------------------------------------------------------------------------------
-------------------------   ----------------
Dispersion correction           -0.006480408
-------------------------   ----------------

------------------   -----------------
gCP correction             0.016848438
------------------   -----------------

-------------------------   --------------------
FINAL SINGLE POINT ENERGY      -572.564385521262
-------------------------   --------------------

------------------------------------------------------------------------------
                         ORCA SCF GRADIENT CALCULATION
------------------------------------------------------------------------------

Nuc. rep. gradient        (SHARK) ... done (  0.0 sec)
HCore & Overlap gradient  (SHARK) ... done (  0.7 sec)
Split-RIJ-J gradient      (SHARK) ... done (  3.6 sec)
XC gradient                       ... done ( 14.0 sec)
Dispersion correction             ... done (  0.0 sec)

-------------------
DISPERSION GRADIENT
-------------------

   1   C   :    0.000020493    0.000056667   -0.000031702
   2   C   :    0.000065408    0.000009023   -0.000001330
   3   H   :    0.000043762    0.000004062   -0.000004848
   4   C   :    0.000027468   -0.000041558   -0.000007905
   5   H   :    0.000019718   -0.000037413    0.000001203
   6   C   :   -0.000039704   -0.000029810    0.000003555
   7   H   :   -0.000030022   -0.000032089    0.000005192
   8   C   :   -0.000032914    0.000028178   -0.000014840
   9   H   :   -0.000038011    0.000015058   -0.000015843
  10   O   :   -0.000030428    0.000067610   -0.000010766
  11   O   :   -0.000111243    0.000020483    0.000021094
  12   O   :   -0.000033079   -0.000025013    0.000084611
  13   O   :    0.000023732   -0.000087609   -0.000081540
  14   O   :    0.000094418    0.000001197    0.000068606
  15   H   :    0.000015897    0.000034616   -0.000028142
  16   H   :    0.000023374    0.000047071   -0.000004121
  17   H   :   -0.000043017    0.000012726   -0.000006957
  18   H   :   -0.000024256   -0.000023438    0.000028582
  19   H   :    0.000016026   -0.000029572   -0.000035000
  20   H   :    0.000032378    0.000009810    0.000030147

Difference to translation invariance:
           :    0.0000000000   -0.0000000000    0.0000000000

Difference to rotation invariance:
           :    0.0000000000    0.0000000000    0.0000000000

Norm of the Dispersion gradient    ...    0.0003056647
RMS gradient                       ...    0.0000394611
MAX gradient                       ...    0.0001112426
gCP correction                   ... done

------------------
CARTESIAN GRADIENT
------------------

   1   C   :   -0.000224918    0.000038947    0.000101549
   2   C   :    0.000156285    0.000016585    0.000051183
   3   H   :    0.000012945    0.000047194   -0.000048357
   4   C   :   -0.000028112   -0.000051206   -0.000172360
   5   H   :    0.000018015    0.000014624    0.000046815
   6   C   :   -0.000025901   -0.000137776    0.000143101
   7   H   :   -0.000023961   -0.000028298   -0.000030914
   8   C   :   -0.000061291    0.000128622   -0.000082909
   9   H   :   -0.000005546   -0.000016867   -0.000000659
  10   O   :    0.000038096   -0.000038810   -0.000031723
  11   O   :    0.000104950    0.000037576    0.000131562
  12   O   :   -0.000053639   -0.000124032   -0.000028891
  13   O   :    0.000077713    0.000070963    0.000099958
  14   O   :    0.000044212    0.000058577   -0.000025942
  15   H   :    0.000029519    0.000007266   -0.000034237
  16   H   :    0.000030037   -0.000003341   -0.000025678
  17   H   :   -0.000017587   -0.000080041   -0.000093003
  18   H   :    0.000060576    0.000098472    0.000011486
  19   H   :   -0.000059047   -0.000001026   -0.000022615
  20   H   :   -0.000072342   -0.000037430    0.000011633

Difference to translation invariance:
           :    0.0000000000    0.0000000000    0.0000000000

Difference to rotation invariance:
           :    0.0004399633    0.0001732303    0.0006911331

Norm of the Cartesian gradient     ...    0.0005687648
RMS gradient                       ...    0.0000734272
MAX gradient                       ...    0.0002249181

-------
TIMINGS
-------

Total SCF gradient time     ....       18.303 sec

Densities                   ....       0.002 sec  (  0.0%)
One electron gradient       ....       0.691 sec  (  3.8%)
RI-J Coulomb gradient       ....       3.552 sec  ( 19.4%)
XC gradient                 ....      14.005 sec  ( 76.5%)

Maximum memory used throughout the entire SCFGRAD-calculation: 41.4 MB

------------------------------------------------------------------------------
                              ORCA PROPERTY CALCULATIONS
------------------------------------------------------------------------------

GBWName                                 ... xtb_opt.gbw
Number of atoms                         ...     20
Number of basis functions               ...    265
Max core memory                         ...   1024 MB

Electric properties:
Dipole moment                           ... YES
Quadrupole moment                       ...  NO
Static polarizability (Dipole/Dipole)   ...  NO
Static polarizability (Dipole/Quad.)    ...  NO
Static polarizability (Quad./Quad.)     ...  NO
Static polarizability (Velocity)        ...  NO

Atomic electric properties:
Dipole moment                           ...  NO
Quadrupole moment                       ...  NO
Static polarizability                   ...  NO

Choice of electric origin               ... Center of mass
Position of electric origin             ...    -0.013650     0.027366     0.008556

General magnetic properties:
Magnetizability                         ...  NO

EPR properties:
g-Tensor (aka g-matrix)                 ...  NO
Zero-Field splitting spin-orbit         ...  NO
Zero-field splitting spin-spin          ...  NO
Hyperfine couplings                     ...  NO (   0 nuclei)
Quadrupole couplings                    ...  NO (   0 nuclei)
Contact density                         ...  NO (   0 nuclei)

NMR properties:
Chemical shifts                         ...  NO (   0 nuclei)
Spin-rotation constants                 ...  NO (   0 nuclei)
Spin-spin couplings                     ...  NO (   0 nuclei,    0 pairs)

Choice of magnetic origin               ... GIAO
Position of magnetic origin             ...     0.000000     0.000000     0.000000

Properties with geometric perturbations:
SCF Hessian                             ...  NO
IR spectrum                             ...  NO
VCD spectrum                            ...  NO
X-ray spectroscopy properties:
SCF XES/XAS/RIXS spectra                ...  NO


-------------
DIPOLE MOMENT
-------------

Method             : SCF
Type of density    : Electron Density
Multiplicity       :   1
Irrep              :   0
Energy             :  -572.5747535516122753 Eh
Relativity type    : 
Basis              : AO
                                X                 Y                 Z
Electronic contribution:     -2.015610847       0.911148475       1.249650872
Nuclear contribution   :      3.090695291      -1.971668501      -1.459280258
                        -----------------------------------------
Total Dipole Moment    :      1.075084444      -1.060520026      -0.209629386
                        -----------------------------------------
Magnitude (a.u.)       :      1.524615941
Magnitude (Debye)      :      3.875265749



--------------------
Rotational spectrum 
--------------------
 
Rotational constants in cm-1:             0.058291             0.040469             0.038321 
Rotational constants in MHz :          1747.528900          1213.224496          1148.835989 

Dipole components along the rotational axes: 
x,y,z [a.u.] :    -1.265235    -0.774339     0.352184 
x,y,z [Debye]:    -3.215972    -1.968212     0.895180 

 

Dipole moment calculation done in   0.0 sec 

Maximum memory used throughout the entire PROP-calculation: 20.1 MB

--------------------------------
SUGGESTED CITATIONS FOR THIS RUN
--------------------------------

Below you find a list of papers that are relevant to this ORCA run
We neither can nor want to force you to cite these papers, but we appreciate if you do
You receive ORCA, which is the product of decades of hard work by many enthusiastic individuals, for free
The only thing we kindly ask in return is that you cite our papers,
We deeply appreciate it, if you show your appreciation for ORCA by not just citing the generic ORCA reference.

Please note that relegating all ORCA citations to the supporting information does *not* help us.
SI sections are not indexed - citations you put there will not count into any citation statistics
But we need these citations in order to attract the funding resources that allow us to do what we are doing

Therefore, if you are a happy ORCA user, please consider citing a few of the papers listed below in the main body of your paper

In addition to the list printed below, the program has created the file xtb_opt.bibtex that contains the list in bibtex format
You can import this file easily into all common literature databanks and citation aid programs


List of essential papers. We consider these as the minimum necessary citations

  1. Neese,F.
     Software update: the ORCA program system, version 5.0
     WIRES Comput. Molec. Sci., 2022 12(1)e1606
     doi.org/10.1002/wcms.1606
  2. Grimme,S.; Hansen,A.; Ehlert,S.; Mewes,J.
     r2SCAN-3c: A 'Swiss army knife' composite electronic-structure method
     J. Chem. Phys., 2021 154 064103
     doi.org/10.1063/5.0040021

List of papers to cite with high priority. The work reported in these papers was absolutely
necessary for this run to complete.
Our perspective: the developers of density functionals and basis sets usually get cited in chemistry papers
Good! But without the algorithms to do something with them, the functionals or basis sets would not do anything.
Hence, in our opinion, the algorithm design and method developments papers are equally worthy of getting cited

  1. Neese,F.
     An improvement of the resolution of the identity approximation for the formation of the Coulomb matrix
     J. Comp. Chem., 2003 24(14)1740-1747
     doi.org/10.1002/jcc.10318
  2. Neese,F.
     The SHARK Integral Generation and Digestion System
     J. Comp. Chem., 2022  1-16
     doi.org/10.1002/jcc.26942
  3. Lehtola,S.; Steigemann,C.; Oliveira,M.; Marques,M.
     Recent developments in Libxc - A comprehensive library of functionals for density functional theory
     Software X, 2018 7 
     doi.org/10.1016/j.softx.2017.11.002
  4. Caldeweyher,E.; Bannwarth,C.; Grimme,S.
     Extension of the D3 dispersion coefficient model
     J. Chem. Phys., 2017 147 034112
     doi.org/10.1063/1.4993215
  5. Caldeweyher,E.; Ehlert,S.; Hansen,A.; Neugebauer,H.; Spicher,S.; Bannwarth,C.; Grimme,S.
     A generally applicable atomic-charge dependent London dispersion correction
     J. Chem. Phys., 2019 150 154122
     doi.org/10.1063/1.5090222
  6. Caldeweyher,E.; Mewes,J.; Ehlert,S.; Grimme,S.
     Extension and evaluation of the D4 London-dispersion model for periodic systems
     Phys. Chem. Chem. Phys., 2020 22(16)8499-8512
     doi.org/10.1039/D0CP00502A
  7. Wittmann,L.; Gordiy,I.; Friede,M.; Helmich-Paris,B.; Grimme,S.; Hansen,A.; Bursch,M.
     Extension of the D3 and D4 London Dispersion Corrections to the full Actinides Series
     Phys. Chem. Chem. Phys., 2024 26(32)21379-21394
     doi.org/https://doi.org/10.1039/D4CP01514B 

List of suggested additional citations. These are papers that are important in the 'surrounding' of 
of this run, or papers that preceded the highly important papers. If you like your results we are grateful for a citation.

  1. Neese,F.
     The ORCA program system
     WIRES Comput. Molec. Sci., 2012 2(1)73-78
     doi.org/10.1002/wcms.81
  2. Neese,F.
     Software update: the ORCA program system, version 4.0
     WIRES Comput. Molec. Sci., 2018 8(1)1-6
     doi.org/10.1002/wcms.1327
  3. Neese,F.; Wennmohs,F.; Becker,U.; Riplinger,C.
     The ORCA quantum chemistry program package
     J. Chem. Phys., 2020 152 Art. No. L224108
     doi.org/10.1063/5.0004608

List of optional additional citations

  1. Neese,F.
     Approximate second-order SCF convergence for spin unrestricted wavefunctions
     Chem. Phys. Lett., 2000 325(1-3)93-98
     doi.org/10.1016/s0009-2614(00)00662-x

Timings for individual modules:

Sum of individual times          ...       29.007 sec (=   0.483 min)
Startup calculation              ...        1.321 sec (=   0.022 min)   4.6 %
SCF iterations                   ...        9.182 sec (=   0.153 min)  31.7 %
Property calculations            ...        0.109 sec (=   0.002 min)   0.4 %
SCF Gradient evaluation          ...       18.395 sec (=   0.307 min)  63.4 %
                             ****ORCA TERMINATED NORMALLY****
TOTAL RUN TIME: 0 days 0 hours 0 minutes 29 seconds 159 msec
  ------------------------------------------------------------------------
          * successful ORCA run, taking over control again...

         :::::::::::::::::::::::::::::::::::::::::::::::::::::
         ::                  ORCA SUMMARY                   ::
         :::::::::::::::::::::::::::::::::::::::::::::::::::::
         :: total energy            -572.564385521262 Eh    ::
         :: gradient norm              0.000568764765 Eh/a0 ::
         :: HOMO-LUMO gap              0.000000000000 eV    ::
         :::::::::::::::::::::::::::::::::::::::::::::::::::::

           -------------------------------------------------
          |                Property Printout                |
           -------------------------------------------------
           -------------------------------------------------
          |                Geometry Summary                 |
           -------------------------------------------------

      molecular mass/u    :      150.1301116
   center of mass at/Å    :       -0.0072301       0.0144833       0.0045336
  moments of inertia/u·Å² :        0.2891980E+03   0.4165613E+03   0.4399084E+03
rotational constants/cm⁻¹ :        0.5829097E-01   0.4046855E-01   0.3832078E-01

 * 20 selected distances

     #   Z          #   Z                                           value/Å
     1   6          2   6                                         1.5204745
     2   6          3   1                                         1.1005034
     2   6          4   6                                         1.5352333
     4   6          5   1                                         1.1036671
     4   6          6   6                                         1.5380313 (max)
     6   6          7   1                                         1.0989447
     6   6          8   6                                         1.5364127
     8   6          9   1                                         1.1009126
     1   6         10   8                                         1.4248282
     8   6         10   8                                         1.4340518
     8   6         11   8                                         1.3857062
     6   6         12   8                                         1.4249519
     4   6         13   8                                         1.4290333
     2   6         14   8                                         1.4369412
     1   6         15   1                                         1.1012352
     1   6         16   1                                         1.0932327
    11   8         17   1                                         0.9697236
    12   8         18   1                                         0.9720478
    13   8         19   1                                         0.9638834 (min)
    14   8         20   1                                         0.9646468

 * 4 distinct bonds (by element types)

   Z      Z             #   av. dist./Å        max./Å        min./Å
   1 H    6 C           6     1.0997493     1.1036671     1.0932327
   6 C    6 C           4     1.5325380     1.5380313     1.5204745
   1 H    8 O           4     0.9675754     0.9720478     0.9638834
   6 C    8 O           6     1.4225854     1.4369412     1.3857062


optimized geometry written to: xtbopt.coord


           -------------------------------------------------
          | TOTAL ENERGY             -572.564385521262 Eh   |
          | GRADIENT NORM               0.000568764765 Eh/α |
           -------------------------------------------------

------------------------------------------------------------------------
 * finished run on 2025/04/09 at 02:25:26.700     
------------------------------------------------------------------------
 total:
 * wall-time:     0 d,  0 h,  6 min, 33.000 sec
 *  cpu-time:     0 d,  0 h,  0 min,  0.497 sec
 * ratio c/w:     0.001 speedup
 SCF:
 * wall-time:     0 d,  0 h,  0 min, 30.043 sec
 *  cpu-time:     0 d,  0 h,  0 min,  0.061 sec
 * ratio c/w:     0.002 speedup
 ANC optimizer:
 * wall-time:     0 d,  0 h,  6 min,  2.541 sec
 *  cpu-time:     0 d,  0 h,  0 min,  0.022 sec
 * ratio c/w:     0.000 speedup

