
                                 *****************
                                 * O   R   C   A *
                                 *****************

                                            #,                                       
                                            ###                                      
                                            ####                                     
                                            #####                                    
                                            ######                                   
                                           ########,                                 
                                     ,,################,,,,,                         
                               ,,#################################,,                 
                          ,,##########################################,,             
                       ,#########################################, ''#####,          
                    ,#############################################,,   '####,        
                  ,##################################################,,,,####,       
                ,###########''''           ''''###############################       
              ,#####''   ,,,,##########,,,,          '''####'''          '####       
            ,##' ,,,,###########################,,,                        '##       
           ' ,,###''''                  '''############,,,                           
         ,,##''                                '''############,,,,        ,,,,,,###''
      ,#''                                            '''#######################'''  
     '                                                          ''''####''''         
             ,#######,   #######,   ,#######,      ##                                
            ,#'     '#,  ##    ##  ,#'     '#,    #''#        ,####,   ,####,        
            ##       ##  ##   ,#'  ##            #'  '#       #'       #'  '#        
            ##       ##  #######   ##           ,######,      #####,   #    #        
            '#,     ,#'  ##    ##  '#,     ,#' ,#      #,     #,   #   #,  ,#        
             '#######'   ##     ##  '#######'  #'      '#     '####' # '####'        



                #########################################################
                #                        -***-                          #
                #          Department of theory and spectroscopy        #
                #                                                       #
                #                      Frank Neese                      #
                #                                                       #
                #     Directorship, Architecture, Infrastructure        #
                #                    SHARK, DRIVERS                     #
                #        Core code/Algorithms in most modules           #
                #                                                       #
                #        Max Planck Institute fuer Kohlenforschung      #
                #                Kaiser Wilhelm Platz 1                 #
                #                 D-45470 Muelheim/Ruhr                 #
                #                      Germany                          #
                #                                                       #
                #                  All rights reserved                  #
                #                        -***-                          #
                #########################################################


                         Program Version 6.0.1  -  RELEASE   -


 With contributions from (in alphabetic order):
[Max-Planck-Institut fuer Kohlenforschung]                               
  Daniel Aravena         : Magnetic Suceptibility                        
  Michael Atanasov       : Ab Initio Ligand Field Theory (pilot matlab implementation)
  Alexander A. Auer      : GIAO ZORA, VPT2 properties, NMR spectrum      
  Ute Becker             : All parallelization in ORCA, NUMFREQ, NUMCALC 
  Giovanni Bistoni       : ED, misc. LED, open-shell LED, HFLD           
  Martin Brehm           : Molecular dynamics                            
  Dmytro Bykov           : pre 5.0 version of the SCF Hessian            
  Marcos Casanova-Páez   : Triplet and SCS-CIS(D). UHF-(DLPNO)-IP/EA/STEOM-CCSD. UHF-CVS-IP/STEOM-CCSD   
  Vijay G. Chilkuri      : MRCI spin determinant printing, contributions to CSF-ICE 
  Pauline Colinet        : FMM embedding                                 
  Dipayan Datta          : RHF DLPNO-CCSD density                        
  Achintya Kumar Dutta   : EOM-CC, STEOM-CC                              
  Nicolas Foglia         : Exact transition moments, OPA infrastructure, MCD improvements    
  Dmitry Ganyushin       : Spin-Orbit,Spin-Spin,Magnetic field MRCI      
  Miquel Garcia-Rates    : C-PCM and meta-GGA Hessian, CCSD/C-PCM, Gaussian charge scheme 
  Tiago L. C. Gouveia    : GS-ROHF, GS-ROCIS                             
  Yang Guo               : DLPNO-NEVPT2, F12-NEVPT2, CIM, IAO-localization        
  Andreas Hansen         : Spin unrestricted coupled pair/coupled cluster methods 
  Ingolf Harden          : AUTO-CI MPn and infrastructure                
  Benjamin Helmich-Paris : MC-RPA, TRAH-(SCF,CASSCF), AVAS, COSX integrals, SCF dyn. polar. 
  Lee Huntington         : MR-EOM, pCC                                   
  Robert Izsak           : Overlap fitted RIJCOSX, COSX-SCS-MP3, EOM     
  Riya Kayal             : Wick's Theorem for AUTO-CI, AUTO-CI UHF-CCSDT 
  Emily Kempfer          : AUTO-CI, RHF CISDT and CCSDT                  
  Christian Kollmar      : KDIIS, OOCD, Brueckner-CCSD(T), CCSD density, CASPT2, CASPT2-K, improved NEVPT2 
  Axel Koslowski         : Symmetry handling                             
  Simone Kossmann        : meta-GGA functionals, TD-DFT gradient, OOMP2, (MP2 Hessian; deprecated post 5.0) 
  Lucas Lang             : DCDCAS                                        
  Marvin Lechner         : AUTO-CI (C++ implementation), FIC-MRCC        
  Spencer Leger          : CASSCF response                               
  Dagmar Lenk            : GEPOL surface, SMD, ORCA-2-JSON               
  Dimitrios Liakos       : Extrapolation schemes; Compound Job, initial MDCI parallelization 
  Dimitrios Manganas     : Further ROCIS development; embedding schemes. LFT, Crystal Embedding 
  Dimitrios Pantazis     : SARC Basis sets                               
  Anastasios Papadopoulos: AUTO-CI, single reference methods and gradients 
  Taras Petrenko         : pre 6.0 DFT Hessian and TD-DFT gradient, (ASA, deprecated), ECA, 1-Electron XAS/XES, NRVS 
  Peter Pinski           : DLPNO-MP2, DLPNO-MP2 Gradient                 
  Christoph Reimann      : Effective Core Potentials                     
  Marius Retegan         : Local ZFS, SOC                                
  Christoph Riplinger    : Optimizer, TS searches, QM/MM, DLPNO-CCSD(T), (RO)-DLPNO pert. Triples 
  Michael Roemelt        : Original ROCIS implementation                 
  Masaaki Saitow         : Open-shell DLPNO-CCSD energy and density      
  Barbara Sandhoefer     : DKH picture change effects                    
  Kantharuban Sivalingam : CASSCF convergence/infrastructure, NEVPT2 and variants, FIC-MRCI 
  Bernardo de Souza      : ESD, SOC TD-DFT                               
  Georgi L. Stoychev     : AutoAux, RI-MP2 NMR, DLPNO-MP2 response, X2C  
  Van Anh Tran           : RI-MP2 g-tensors                              
  Willem Van den Heuvel  : Paramagnetic NMR                              
  Zikuan Wang            : NOTCH, Electric field optimization            
  Frank Wennmohs         : Technical directorship and infrastructure     
  Hang Xu                : AUTO-CI-Response properties                   
                                                                         
[FACCTs GmbH]                                                            
  Markus Bursch, Miquel Garcia-Rates, Christoph Riplinger, Bernardo de Souza, Georgi L. Stoychev 
                                                                 
  APM, Basis sets (HGBS, AHGBS, def-TZVP (Ac-Lr), def2-XVPD (La-Lu)), CI-OPT, improved COSX, DLPNO-Multilevel,           
  DOCKER, DRACO, updates on ESD, GOAT, IRC, LR-CPCM, MBIS, meta-GGA TD-DFT gradient, ML-optimized integration grids, 
  MM, NACMEs, nearIR, NEB, NEB-TS, NL-DFT gradient (VV10), 2- and 3-layer-ONIOM, interface openCOSMO-RS, QMMM,   
  Crystal-QMMM, SF, symmetry and pop. for TD-DFT, r2SCAN hybrids, SOLVATOR                                   
                                                                         
[Other institutions]                                                     
  V. Asgeirsson          : NEB                                           
  Christoph Bannwarth    : sTDA-DFT, sTD-DFT, PBEh-3c, B97-3c, D3        
  Sebastian Ehlert       : rSCAN, r2SCAN, r2SCAN-3c, D4, dhf basis sets  
  Marvin Friede          : D4 for Fr, Ra, Ac-Lr                          
  Lars Goerigk           : TD-DFT with DH, B97 family of functionals     
  Stefan Grimme          : VdW corrections, initial TS optimization, DFT functionals, gCP, sTDA/sTD-DF 
  Waldemar Hujo          : DFT-NL                                        
  H. Jonsson             : NEB                                           
  Holger Kruse           : gCP                                           
  Marcel Mueller         : wB97X-3c, vDZP basis set                      
  Hagen Neugebauer       : wr2SCAN                                       
  Tobias Risthaus        : range-separated hybrid DFT                    
  Lukas Wittmann         : regularized MP2, r2SCAN double-hybrids, wr2SCAN        
                                                                         
We gratefully acknowledge several colleagues who have allowed us to      
interface, adapt or use parts of their codes:                            
  Ed Valeev, F. Pavosevic, A. Kumar             : LibInt (2-el integral package), F12 methods 
  Garnet Chan, S. Sharma, J. Yang, R. Olivares  : DMRG                   
  Ulf Ekstrom                                   : XCFun DFT Library      
  Mihaly Kallay                                 : mrcc  (arbitrary order and MRCC methods)
  Frank Weinhold                                : gennbo (NPA and NBO analysis)           
  Simon Mueller                                 : openCOSMO-RS                            
  Christopher J. Cramer and Donald G. Truhlar   : smd solvation model                     
  S Lehtola, MJT Oliveira, MAL Marques          : LibXC Library                           
  Liviu Ungur et al                             : ANISO software                          


 Your calculation uses the libint2 library for the computation of 2-el integrals
 For citations please refer to: http://libint.valeyev.net

 Your ORCA version has been built with support for libXC version: 6.2.2
 For citations please refer to: https://libxc.gitlab.io

 This ORCA versions uses:
   CBLAS   interface :  Fast vector & matrix operations
   LAPACKE interface :  Fast linear algebra routines
   SCALAPACK package :  Parallel linear algebra routines
   Shared memory     :  Shared parallel matrices
   BLAS/LAPACK       :  OpenBLAS 0.3.27  USE64BITINT DYNAMIC_ARCH NO_AFFINITY Zen SINGLE_THREADED
        Core in use  :  Zen
   Copyright (c) 2011-2014, The OpenBLAS Project


Your calculation utilizes the geometrical counterpoise correction gCP
Please cite in your paper:
H.Kruse, S. Grimme J.Chem.Phys., 136, (2012), 154101 
   

Your calculation utilizes the atom-pairwise dispersion correction
based on EEQ partial charges (D4)


================================================================================

----- Orbital basis set information -----
Your calculation utilizes the basis: def2-SV(P)
   F. Weigend and R. Ahlrichs, Phys. Chem. Chem. Phys. 7, 3297 (2005).

----- AuxJ basis set information -----
Your calculation utilizes the auxiliary basis: def2/J
   F. Weigend, Phys. Chem. Chem. Phys. 8, 1057 (2006).

================================================================================
                                        WARNINGS
                       Please study these warnings very carefully!
================================================================================

WARNING: Old DensityContainer found on disk!
         Will remove this file - 
         If you want to keep old densities, please start your calculation with a different basename. 


================================================================================
                                       INPUT FILE
================================================================================
NAME = sp.inp
|  1> ! pbe def2-sv(p) def2/J RI DEFGRID1 loosescf d4 GCP(DFT/SV(P)) printgap
|  2> %output
|  3>     printlevel normal
|  4> end
|  5> * xyz 0 1
|  6> C 2.0168302304 0.7731625864 -6.4635e-05
|  7> C 0.784872883 -0.1000978858 -9.49316e-05
|  8> O 0.8388686169 -1.307264997 0.000314169
|  9> C -0.4979181729 0.6450914059 -0.0005348247
| 10> C -1.6654814029 0.0308712162 -0.7412996085
| 11> C -1.6652372961 0.0320549251 0.7416211283
| 12> H 2.0123370594 1.4104993924 -0.8821056935
| 13> H 2.0113901856 1.412046364 0.8807503316
| 14> H 2.9125116845 0.1581219715 0.0008804059
| 15> H -0.4119730257 1.7234578427 -0.0012795549
| 16> H -2.3286877017 0.69783864 -1.2704742861
| 17> H -1.4730710759 -0.9052514668 -1.2430402948
| 18> H -2.3282498683 0.6998766969 1.2699383172
| 19> H -1.4726312784 -0.903230263 1.2447871121
| 20> *
| 21> 
| 22>                          ****END OF INPUT****
================================================================================

                       ****************************
                       * Single Point Calculation *
                       ****************************

---------------------------------
CARTESIAN COORDINATES (ANGSTROEM)
---------------------------------
  C      2.016830    0.773163   -0.000065
  C      0.784873   -0.100098   -0.000095
  O      0.838869   -1.307265    0.000314
  C     -0.497918    0.645091   -0.000535
  C     -1.665481    0.030871   -0.741300
  C     -1.665237    0.032055    0.741621
  H      2.012337    1.410499   -0.882106
  H      2.011390    1.412046    0.880750
  H      2.912512    0.158122    0.000880
  H     -0.411973    1.723458   -0.001280
  H     -2.328688    0.697839   -1.270474
  H     -1.473071   -0.905251   -1.243040
  H     -2.328250    0.699877    1.269938
  H     -1.472631   -0.903230    1.244787

----------------------------
CARTESIAN COORDINATES (A.U.)
----------------------------
  NO LB      ZA    FRAG     MASS         X           Y           Z
   0 C     6.0000    0    12.011    3.811257    1.461066   -0.000122
   1 C     6.0000    0    12.011    1.483195   -0.189158   -0.000179
   2 O     8.0000    0    15.999    1.585232   -2.470373    0.000594
   3 C     6.0000    0    12.011   -0.940929    1.219046   -0.001011
   4 C     6.0000    0    12.011   -3.147304    0.058338   -1.400853
   5 C     6.0000    0    12.011   -3.146842    0.060575    1.401461
   6 H     1.0000    0     1.008    3.802766    2.665458   -1.666938
   7 H     1.0000    0     1.008    3.800977    2.668381    1.664377
   8 H     1.0000    0     1.008    5.503849    0.298807    0.001664
   9 H     1.0000    0     1.008   -0.778516    3.256863   -0.002418
  10 H     1.0000    0     1.008   -4.400582    1.318724   -2.400848
  11 H     1.0000    0     1.008   -2.783701   -1.710677   -2.349006
  12 H     1.0000    0     1.008   -4.399755    1.322575    2.399836
  13 H     1.0000    0     1.008   -2.782870   -1.706858    2.352307

--------------------------------
INTERNAL COORDINATES (ANGSTROEM)
--------------------------------
 C      0   0   0     0.000000000000     0.00000000     0.00000000
 C      1   0   0     1.510067137262     0.00000000     0.00000000
 O      2   1   0     1.208374172600   122.76943898     0.00000000
 C      2   1   3     1.483529631341   114.51662770   179.99433945
 C      4   2   1     1.513011170614   117.61274276   146.46347708
 C      5   4   2     1.482921229326    60.65631029   107.09813084
 H      1   2   3     1.088216348778   109.59104914   120.66780423
 H      1   2   3     1.088134679511   109.60138179   239.25744314
 H      1   2   3     1.086517886782   110.19310889   359.97113283
 H      4   2   1     1.081786159538   115.59603578     0.02911271
 H      5   4   2     1.079219152254   117.60641083   216.99224457
 H      5   4   2     1.079393870583   116.23783228   358.53981846
 H      6   5   4     1.079208340346   119.33624906   107.08757218
 H      6   5   4     1.079366234596   117.74294400   253.89945366

---------------------------
INTERNAL COORDINATES (A.U.)
---------------------------
 C      0   0   0     0.000000000000     0.00000000     0.00000000
 C      1   0   0     2.853613333259     0.00000000     0.00000000
 O      2   1   0     2.283496253517   122.76943898     0.00000000
 C      2   1   3     2.803464714792   114.51662770   179.99433945
 C      4   2   1     2.859176750023   117.61274276   146.46347708
 C      5   4   2     2.802315001604    60.65631029   107.09813084
 H      1   2   3     2.056430873646   109.59104914   120.66780423
 H      1   2   3     2.056276541098   109.60138179   239.25744314
 H      1   2   3     2.053221245625   110.19310889   359.97113283
 H      4   2   1     2.044279576992   115.59603578     0.02911271
 H      5   4   2     2.039428636242   117.60641083   216.99224457
 H      5   4   2     2.039758806035   116.23783228   358.53981846
 H      6   5   4     2.039408204698   119.33624906   107.08757218
 H      6   5   4     2.039706581589   117.74294400   253.89945366

---------------------
BASIS SET INFORMATION
---------------------
There are 3 groups of distinct atoms

 Group   1 Type C   : 7s4p1d contracted to 3s2p1d pattern {511/31/1}
 Group   2 Type O   : 7s4p1d contracted to 3s2p1d pattern {511/31/1}
 Group   3 Type H   : 4s contracted to 2s pattern {31}

Atom   0C    basis set group =>   1
Atom   1C    basis set group =>   1
Atom   2O    basis set group =>   2
Atom   3C    basis set group =>   1
Atom   4C    basis set group =>   1
Atom   5C    basis set group =>   1
Atom   6H    basis set group =>   3
Atom   7H    basis set group =>   3
Atom   8H    basis set group =>   3
Atom   9H    basis set group =>   3
Atom  10H    basis set group =>   3
Atom  11H    basis set group =>   3
Atom  12H    basis set group =>   3
Atom  13H    basis set group =>   3
---------------------------------
AUXILIARY/J BASIS SET INFORMATION
---------------------------------
There are 3 groups of distinct atoms

 Group   1 Type C   : 12s5p4d2f1g contracted to 6s4p3d1f1g pattern {711111/2111/211/2/1}
 Group   2 Type O   : 12s5p4d2f1g contracted to 6s4p3d1f1g pattern {711111/2111/211/2/1}
 Group   3 Type H   : 5s2p1d contracted to 3s1p1d pattern {311/2/1}

Atom   0C    basis set group =>   1
Atom   1C    basis set group =>   1
Atom   2O    basis set group =>   2
Atom   3C    basis set group =>   1
Atom   4C    basis set group =>   1
Atom   5C    basis set group =>   1
Atom   6H    basis set group =>   3
Atom   7H    basis set group =>   3
Atom   8H    basis set group =>   3
Atom   9H    basis set group =>   3
Atom  10H    basis set group =>   3
Atom  11H    basis set group =>   3
Atom  12H    basis set group =>   3
Atom  13H    basis set group =>   3

Checking for AutoStart:
The File: sp.gbw exists
Trying to determine its content:
     ... Fine, the file contains calculation information
     ... Fine, the calculation information was read
     ... Fine, the file contains a basis set
     ... Fine, the basis set was read
     ... Fine, the file contains a geometry
     ... Fine, the geometry was read
     ... Fine, the file contains a set of orbitals
     ... Fine, the orbitals can be read
     => possible old guess file was deleted
     => GBW file was renamed to GES file
     => GES file is set as startup file
     => Guess is set to MORead
     ... now leaving AutoStart

------------------------------------------------------------------------------
                             ORCA STARTUP CALCULATIONS
                           -- RI-GTO INTEGRALS CHOSEN --
------------------------------------------------------------------------------
------------------------------------------------------------------------------
                   ___                                                        
                  /   \      - P O W E R E D   B Y -                         
                 /     \                                                     
                 |  |  |   _    _      __       _____    __    __             
                 |  |  |  | |  | |    /  \     |  _  \  |  |  /  |          
                  \  \/   | |  | |   /    \    | | | |  |  | /  /          
                 / \  \   | |__| |  /  /\  \   | |_| |  |  |/  /          
                |  |  |   |  __  | /  /__\  \  |    /   |      \           
                |  |  |   | |  | | |   __   |  |    \   |  |\   \          
                \     /   | |  | | |  |  |  |  | |\  \  |  | \   \       
                 \___/    |_|  |_| |__|  |__|  |_| \__\ |__|  \__/        
                                                                              
                      - O R C A' S   B I G   F R I E N D -                    
                                      &                                       
                       - I N T E G R A L  F E E D E R -                       
                                                                              
 v1 FN, 2020, v2 2021, v3 2022-2024                                           
------------------------------------------------------------------------------


----------------------
SHARK INTEGRAL PACKAGE
----------------------

Number of atoms                             ...     14
Number of basis functions                   ...    100
Number of shells                            ...     52
Maximum angular momentum                    ...      2
Integral batch strategy                     ... SHARK/LIBINT Hybrid
RI-J (if used) integral strategy            ... SPLIT-RIJ (Revised 2003 algorithm where possible)
Printlevel                                  ...      1
Contraction scheme used                     ... SEGMENTED contraction
Prescreening option                         ... SCHWARTZ
   Thresh                                   ... 1.000e-09
   Tcut                                     ... 1.000e-10
   Tpresel                                  ... 1.000e-10 
Coulomb Range Separation                    ... NOT USED
Exchange Range Separation                   ... NOT USED
Multipole approximations                    ... NOT USED
Finite Nucleus Model                        ... NOT USED
CABS basis                                  ... NOT available
Auxiliary Coulomb fitting basis             ... AVAILABLE
   # of basis functions in Aux-J            ...    382
   # of shells in Aux-J                     ...    130
   Maximum angular momentum in Aux-J        ...      4
Auxiliary J/K fitting basis                 ... NOT available
Auxiliary Correlation fitting basis         ... NOT available
Auxiliary 'external' fitting basis          ... NOT available

Checking pre-screening integrals            ... done (  0.0 sec) Dimension = 52
Check shell pair data                       ... done (  0.0 sec)
Shell pair information
Shell pair cut-off parameter TPreSel        ...   1.0e-10
Total number of shell pairs                 ...      1378
Shell pairs after pre-screening             ...      1343
Total number of primitive shell pairs       ...      5562
Primitive shell pairs kept                  ...      4011
          la=0 lb=0:    572 shell pairs
          la=1 lb=0:    402 shell pairs
          la=1 lb=1:     78 shell pairs
          la=2 lb=0:    198 shell pairs
          la=2 lb=1:     72 shell pairs
          la=2 lb=2:     21 shell pairs

Calculating one electron integrals          ... done (  0.0 sec)
Calculating RI/J V-Matrix + Cholesky decomp.... done (  0.0 sec)
Calculating Nuclear repulsion               ... done (  0.0 sec) ENN=    231.228548328752 Eh

Diagonalization of the overlap matrix:
Smallest eigenvalue                        ... 1.581e-03
Time for diagonalization                   ...    0.001 sec
Threshold for overlap eigenvalues          ... 1.000e-07
Number of eigenvalues below threshold      ... 0
Time for construction of square roots      ...    0.000 sec
Total time needed                          ...    0.002 sec

-------------------
DFT GRID GENERATION
-------------------

General Integration Accuracy     IntAcc      ... 4.159
Radial Grid Type                 RadialGrid  ... OptM3 with GC (2021)
Angular Grid (max. ang.)         AngularGrid ... 3 (Lebedev-194)
Angular grid pruning method      GridPruning ... 4 (adaptive)
Weight generation scheme         WeightScheme... mBecke (2022)
Basis function cutoff            BFCut       ... 1.0000e-10
Integration weight cutoff        WCut        ... 1.0000e-14
Partially contracted basis set               ... off
Rotationally invariant grid construction     ... off
Angular grids for H and He will be reduced by one unit

Total number of grid points                  ...    31013
Total number of batches                      ...      492
Average number of points per batch           ...       63
Average number of grid points per atom       ...     2215
Initializing property integral containers    ... done (  0.0 sec)

SHARK setup successfully completed in   0.2 seconds

Maximum memory used throughout the entire STARTUP-calculation: 15.8 MB
-------------------------------------------------------------------------------
                                 ORCA GUESS
                   Start orbitals & Density for SCF / CASSCF
-------------------------------------------------------------------------------

------------
SCF SETTINGS
------------
Hamiltonian:
 Density Functional     Method          .... DFT(GTOs)
 Exchange Functional    Exchange        .... PBE
   PBE kappa parameter   XKappa         ....  0.804000
   PBE mue parameter    XMuePBE         ....  0.219520
 Correlation Functional Correlation     .... PBE
   PBE beta parameter  CBetaPBE         ....  0.066725
 LDA part of GGA corr.  LDAOpt          .... PW91-LDA
 Gradients option       PostSCFGGA      .... off
   NL short-range parameter             ....  6.400000
 RI-approximation to the Coulomb term is turned on
   Number of AuxJ basis functions       .... 382


General Settings:
 Integral files         IntName         .... sp
 Hartree-Fock type      HFTyp           .... RHF
 Total Charge           Charge          ....    0
 Multiplicity           Mult            ....    1
 Number of Electrons    NEL             ....   46
 Basis Dimension        Dim             ....  100
 Nuclear Repulsion      ENuc            ....    231.2285483288 Eh

Convergence Acceleration:
 AO-DIIS                CNVDIIS         .... on
   Start iteration      DIISMaxIt       ....    12
   Startup error        DIISStart       ....  0.200000
   # of expansion vecs  DIISMaxEq       ....     5
   Bias factor          DIISBfac        ....   1.050
   Max. coefficient     DIISMaxC        ....  10.000
 MO-DIIS                CNVKDIIS        .... off
 Trust-Rad. Augm. Hess. CNVTRAH         .... auto
   Auto Start mean grad. ratio tolernc. ....  1.125000
   Auto Start start iteration           ....     1
   Auto Start num. interpolation iter.  ....    10
   Max. Number of Micro iterations      ....    24
   Max. Number of Macro iterations      .... Maxiter - #DIIS iter
   Number of Davidson start vectors     ....     2
   Converg. threshold    (grad. norm)   ....   1.000e-04
   Grad. Scal. Fac. for Micro threshold ....   0.100
   Minimum threshold for Micro iter.    ....   1.000e-02
   NR start threshold (gradient norm)   ....   1.000e-04
   Initial trust radius                 ....   0.400
   Minimum AH scaling param. (alpha)    ....   1.000
   Maximum AH scaling param. (alpha)    .... 1000.000
   Quad. conv. algorithm                .... NR
   White noise on init. David. guess    .... on
   Maximum white noise                  ....   0.010
   Pseudo random numbers                .... off
   Inactive MOs                         .... canonical
   Orbital update algorithm             .... Taylor
   Preconditioner                       .... Diag
   Full preconditioner red. dimension   ....   250
 SOSCF                  CNVSOSCF        .... on
   Start iteration      SOSCFMaxIt      ....   150
   Startup grad/error   SOSCFStart      ....  0.003300
   Hessian update       SOSCFHessUp     .... L-BFGS
 Level Shifting         CNVShift        .... on
   Level shift para.    LevelShift      ....    0.2500
   Turn off err/grad.   ShiftErr        ....    0.0010
 Zerner damping         CNVZerner       .... off
 Static damping         CNVDamp         .... on
   Fraction old density DampFac         ....    0.7000
   Max. Damping (<1)    DampMax         ....    0.9800
   Min. Damping (>=0)   DampMin         ....    0.0000
   Turn off err/grad.   DampErr         ....    0.1000

SCF Procedure:
 Maximum # iterations   MaxIter         ....   125
 SCF integral mode      SCFMode         .... Direct
   Integral package                     .... SHARK and LIBINT hybrid scheme
 Reset frequency        DirectResetFreq ....    20
 Integral Threshold     Thresh          ....  1.000e-09 Eh
 Primitive CutOff       TCut            ....  1.000e-10 Eh

Convergence Tolerance:
 Convergence Check Mode ConvCheckMode   .... Total+1el-Energy
 Convergence forced     ConvForced      .... 0
 Energy Change          TolE            ....  1.000e-05 Eh
 1-El. energy change                    ....  1.000e-02 Eh
 Orbital Gradient       TolG            ....  1.000e-04
 Orbital Rotation angle TolX            ....  1.000e-04
 DIIS Error             TolErr          ....  5.000e-04

---------------------
INITIAL GUESS: MOREAD
---------------------
Guess MOs are being read from file: sp.ges
Input Geometry matches current geometry (good)
Input basis set matches current basis set (good)
Occupation numbers will be reassigned to an Aufbau configuration
MOs were renormalized
MOs were reorthogonalized (Cholesky)
                      ------------------
                      INITIAL GUESS DONE (   0.1 sec)
                      ------------------
             **** ENERGY FILE WAS UPDATED (sp.en.tmp) ****
Finished Guess after   0.1 sec
Maximum memory used throughout the entire GUESS-calculation: 8.1 MB

-------------------------------------------------------------------------------------------
                                      ORCA LEAN-SCF
                              memory conserving SCF solver
-------------------------------------------------------------------------------------------

----------------------------------------D-I-I-S--------------------------------------------
Iteration    Energy (Eh)           Delta-E    RMSDP     MaxDP     DIISErr   Damp  Time(sec)
-------------------------------------------------------------------------------------------
               ***  Starting incremental Fock matrix formation  ***
                              *** Initializing SOSCF ***
---------------------------------------S-O-S-C-F--------------------------------------
Iteration    Energy (Eh)           Delta-E    RMSDP     MaxDP     MaxGrad    Time(sec)
--------------------------------------------------------------------------------------
    1    -269.9823881709396005     0.00e+00  6.30e-05  1.34e-03  1.30e-04     0.2
               *** Restarting incremental Fock matrix formation ***
    2    -269.9823869088629635     1.26e-06  1.63e-04  3.84e-03  4.05e-04     0.2
    3    -269.9823685909413484     1.83e-05  1.30e-04  3.22e-03  1.29e-03     0.1
    4    -269.9823893214871759    -2.07e-05  1.55e-05  3.19e-04  3.82e-05     0.1
    5    -269.9823892608710594     6.06e-08  8.04e-06  1.49e-04  5.29e-05     0.1
                 **** Energy Check signals convergence ****

               *****************************************************
               *                     SUCCESS                       *
               *           SCF CONVERGED AFTER   5 CYCLES          *
               *****************************************************

             **** ENERGY FILE WAS UPDATED (sp.en.tmp) ****

----------------
TOTAL SCF ENERGY
----------------

Total Energy       :       -269.98238926087106 Eh           -7346.59431 eV

Components:
Nuclear Repulsion  :        231.22854832875197 Eh            6292.04868 eV
Electronic Energy  :       -501.21093758962303 Eh          -13638.64299 eV
One Electron Energy:       -822.91094055967540 Eh          -22392.54511 eV
Two Electron Energy:        321.70000297005237 Eh            8753.90212 eV

Virial components:
Potential Energy   :       -537.69410750146517 Eh          -14631.40051 eV
Kinetic Energy     :        267.71171824059411 Eh            7284.80621 eV
Virial Ratio       :          2.00848177672311

DFT components:
N(Alpha)           :       23.000133158342 electrons
N(Beta)            :       23.000133158342 electrons
N(Total)           :       46.000266316684 electrons
E(X)               :      -36.817489382011 Eh       
E(C)               :       -1.525214671553 Eh       
E(XC)              :      -38.342704053564 Eh       

---------------
SCF CONVERGENCE
---------------

  Last Energy change         ...   -6.0616e-08  Tolerance :   1.0000e-05
  Last MAX-Density change    ...    1.4921e-04  Tolerance :   1.0000e-03
  Last RMS-Density change    ...    8.0403e-06  Tolerance :   1.0000e-04
  Last DIIS Error            ...    9.3820e-04  Tolerance :   5.0000e-04
  Last Orbital Gradient      ...    5.2879e-05  Tolerance :   1.0000e-04
  Last Orbital Rotation      ...    3.4291e-05  Tolerance :   1.0000e-04


----------------
ORBITAL ENERGIES
----------------

  NO   OCC          E(Eh)            E(eV) 
   0   2.0000     -18.737240      -509.8662 
   1   2.0000      -9.971247      -271.3314 
   2   2.0000      -9.907953      -269.6091 
   3   2.0000      -9.902688      -269.4659 
   4   2.0000      -9.902638      -269.4645 
   5   2.0000      -9.887238      -269.0454 
   6   2.0000      -0.938267       -25.5315 
   7   2.0000      -0.791666       -21.5423 
   8   2.0000      -0.676612       -18.4115 
   9   2.0000      -0.573379       -15.6024 
  10   2.0000      -0.543459       -14.7883 
  11   2.0000      -0.478560       -13.0223 
  12   2.0000      -0.453141       -12.3306 
  13   2.0000      -0.422210       -11.4889 
  14   2.0000      -0.399840       -10.8802 
  15   2.0000      -0.373471       -10.1627 
  16   2.0000      -0.365908        -9.9569 
  17   2.0000      -0.335926        -9.1410 
  18   2.0000      -0.334241        -9.0952 
  19   2.0000      -0.317146        -8.6300 
  20   2.0000      -0.276501        -7.5240 
  21   2.0000      -0.264271        -7.1912 
  22   2.0000      -0.199385        -5.4255 
  23   0.0000      -0.046561        -1.2670 
  24   0.0000       0.035219         0.9584 
  25   0.0000       0.059736         1.6255 
  26   0.0000       0.073522         2.0006 
  27   0.0000       0.086606         2.3567 
  28   0.0000       0.097083         2.6418 
  29   0.0000       0.108689         2.9576 
  30   0.0000       0.126711         3.4480 
  31   0.0000       0.137440         3.7399 
  32   0.0000       0.160717         4.3733 
  33   0.0000       0.175915         4.7869 
*Only the first 10 virtual orbitals were printed.

                    ********************************
                    * MULLIKEN POPULATION ANALYSIS *
                    ********************************

-----------------------
MULLIKEN ATOMIC CHARGES
-----------------------
   0 C :   -0.271216
   1 C :    0.040190
   2 O :   -0.171007
   3 C :   -0.179221
   4 C :   -0.178270
   5 C :   -0.178293
   6 H :    0.126116
   7 H :    0.126095
   8 H :    0.114428
   9 H :    0.082278
  10 H :    0.116315
  11 H :    0.128135
  12 H :    0.116321
  13 H :    0.128129
Sum of atomic charges:    0.0000000

--------------------------------
MULLIKEN REDUCED ORBITAL CHARGES
--------------------------------
  0 C s       :     3.054679  s :     3.054679
      pz      :     1.060326  p :     3.190897
      px      :     1.057700
      py      :     1.072872
      dz2     :     0.004920  d :     0.025639
      dxz     :     0.001219
      dyz     :     0.008205
      dx2y2   :     0.004302
      dxy     :     0.006994

  1 C s       :     3.117112  s :     3.117112
      pz      :     0.794518  p :     2.748150
      px      :     1.004573
      py      :     0.949060
      dz2     :     0.004581  d :     0.094547
      dxz     :     0.005616
      dyz     :     0.019115
      dx2y2   :     0.022079
      dxy     :     0.043156

  2 O s       :     3.740611  s :     3.740611
      pz      :     1.314942  p :     4.412699
      px      :     1.766074
      py      :     1.331684
      dz2     :     0.001907  d :     0.017697
      dxz     :     0.000049
      dyz     :     0.005600
      dx2y2   :     0.005931
      dxy     :     0.004209

  3 C s       :     3.167388  s :     3.167388
      pz      :     1.102113  p :     2.971418
      px      :     0.921859
      py      :     0.947446
      dz2     :     0.007785  d :     0.040414
      dxz     :     0.007131
      dyz     :     0.004064
      dx2y2   :     0.012220
      dxy     :     0.009213

  4 C s       :     3.119649  s :     3.119649
      pz      :     0.981763  p :     3.020943
      px      :     1.000961
      py      :     1.038219
      dz2     :     0.008205  d :     0.037678
      dxz     :     0.009197
      dyz     :     0.009322
      dx2y2   :     0.004841
      dxy     :     0.006114

  5 C s       :     3.119671  s :     3.119671
      pz      :     0.981688  p :     3.020942
      px      :     1.000970
      py      :     1.038284
      dz2     :     0.008206  d :     0.037680
      dxz     :     0.009195
      dyz     :     0.009331
      dx2y2   :     0.004833
      dxy     :     0.006115

  6 H s       :     0.873884  s :     0.873884

  7 H s       :     0.873905  s :     0.873905

  8 H s       :     0.885572  s :     0.885572

  9 H s       :     0.917722  s :     0.917722

 10 H s       :     0.883685  s :     0.883685

 11 H s       :     0.871865  s :     0.871865

 12 H s       :     0.883679  s :     0.883679

 13 H s       :     0.871871  s :     0.871871


------------------------
MULLIKEN OVERLAP CHARGES
------------------------
B(  0-C ,  1-C ) :   0.8087 B(  0-C ,  2-O ) :  -0.1939 B(  0-C ,  3-C ) :  -0.5319 
B(  0-C ,  6-H ) :   0.6730 B(  0-C ,  7-H ) :   0.6730 B(  0-C ,  8-H ) :   0.6202 
B(  1-C ,  2-O ) :   1.5280 B(  1-C ,  3-C ) :   0.2517 B(  2-O ,  3-C ) :  -0.3119 
B(  3-C ,  4-C ) :   0.3813 B(  3-C ,  5-C ) :   0.3817 B(  3-C ,  9-H ) :   0.6779 
B(  3-C , 11-H ) :  -0.0658 B(  3-C , 13-H ) :  -0.0658 B(  4-C ,  5-C ) :   0.7346 
B(  4-C , 10-H ) :   0.7266 B(  4-C , 11-H ) :   0.7287 B(  5-C , 12-H ) :   0.7266 
B(  5-C , 13-H ) :   0.7288 B( 10-H , 11-H ) :  -0.0594 B( 12-H , 13-H ) :  -0.0594 



                     *******************************
                     * LOEWDIN POPULATION ANALYSIS *
                     *******************************

----------------------
LOEWDIN ATOMIC CHARGES
----------------------
   0 C :   -0.361193
   1 C :    0.044881
   2 O :   -0.139683
   3 C :   -0.184844
   4 C :   -0.213582
   5 C :   -0.213559
   6 H :    0.140762
   7 H :    0.140735
   8 H :    0.132421
   9 H :    0.126729
  10 H :    0.129322
  11 H :    0.134349
  12 H :    0.129322
  13 H :    0.134342

-------------------------------
LOEWDIN REDUCED ORBITAL CHARGES
-------------------------------
  0 C s       :     2.959178  s :     2.959178
      pz      :     1.116963  p :     3.335936
      px      :     1.099126
      py      :     1.119847
      dz2     :     0.013554  d :     0.066079
      dxz     :     0.002348
      dyz     :     0.020114
      dx2y2   :     0.010267
      dxy     :     0.019795

  1 C s       :     2.873680  s :     2.873680
      pz      :     0.778108  p :     2.858004
      px      :     1.043496
      py      :     1.036400
      dz2     :     0.012002  d :     0.223436
      dxz     :     0.010538
      dyz     :     0.035220
      dx2y2   :     0.055755
      dxy     :     0.109920

  2 O s       :     3.545025  s :     3.545025
      pz      :     1.317606  p :     4.563437
      px      :     1.775709
      py      :     1.470123
      dz2     :     0.004252  d :     0.031221
      dxz     :     0.000052
      dyz     :     0.006918
      dx2y2   :     0.012741
      dxy     :     0.007259

  3 C s       :     2.878670  s :     2.878670
      pz      :     1.136704  p :     3.203767
      px      :     0.998337
      py      :     1.068726
      dz2     :     0.017845  d :     0.102407
      dxz     :     0.017077
      dyz     :     0.007806
      dx2y2   :     0.032815
      dxy     :     0.026864

  4 C s       :     2.897797  s :     2.897797
      pz      :     1.047781  p :     3.224210
      px      :     1.065053
      py      :     1.111375
      dz2     :     0.021140  d :     0.091575
      dxz     :     0.021510
      dyz     :     0.022746
      dx2y2   :     0.011847
      dxy     :     0.014333

  5 C s       :     2.897799  s :     2.897799
      pz      :     1.047685  p :     3.224183
      px      :     1.065059
      py      :     1.111439
      dz2     :     0.021143  d :     0.091578
      dxz     :     0.021510
      dyz     :     0.022770
      dx2y2   :     0.011823
      dxy     :     0.014332

  6 H s       :     0.859238  s :     0.859238

  7 H s       :     0.859265  s :     0.859265

  8 H s       :     0.867579  s :     0.867579

  9 H s       :     0.873271  s :     0.873271

 10 H s       :     0.870678  s :     0.870678

 11 H s       :     0.865651  s :     0.865651

 12 H s       :     0.870678  s :     0.870678

 13 H s       :     0.865658  s :     0.865658


---------------------------------
LOEWDIN BOND ORDERS (THRESH 0.050000)
---------------------------------
B(  0-C ,  1-C ) :   1.1037 B(  0-C ,  2-O ) :   0.1070 B(  0-C ,  3-C ) :   0.0754 
B(  0-C ,  6-H ) :   0.9168 B(  0-C ,  7-H ) :   0.9168 B(  0-C ,  8-H ) :   0.9300 
B(  1-C ,  2-O ) :   2.2421 B(  1-C ,  3-C ) :   1.0781 B(  1-C ,  4-C ) :   0.0668 
B(  1-C ,  5-C ) :   0.0668 B(  2-O ,  3-C ) :   0.1219 B(  3-C ,  4-C ) :   1.0250 
B(  3-C ,  5-C ) :   1.0249 B(  3-C ,  9-H ) :   0.8800 B(  4-C ,  5-C ) :   1.1266 
B(  4-C , 10-H ) :   0.9138 B(  4-C , 11-H ) :   0.9074 B(  5-C , 12-H ) :   0.9138 
B(  5-C , 13-H ) :   0.9075 

------------------------------------------
LOEWDIN REDUCED ORBITAL POPULATIONS PER MO
-------------------------------------------
THRESHOLD FOR PRINTING IS 0.1%%
                      0         1         2         3         4         5   
                 -18.73724  -9.97125  -9.90795  -9.90269  -9.90264  -9.88724
                   2.00000   2.00000   2.00000   2.00000   2.00000   2.00000
                  --------  --------  --------  --------  --------  --------
 0 C  s               0.0       0.0       0.0       0.0       0.0      99.7
 1 C  s               0.0      99.4       0.0       0.0       0.0       0.0
 2 O  s              99.9       0.0       0.0       0.0       0.0       0.0
 2 O  py              0.0       0.3       0.0       0.0       0.0       0.0
 3 C  s               0.0       0.0      99.5       0.0       0.0       0.0
 3 C  px              0.0       0.1       0.0       0.1       0.0       0.0
 4 C  s               0.0       0.0       0.0      40.0      59.7       0.0
 5 C  s               0.0       0.0       0.0      59.5      40.1       0.0

                      6         7         8         9        10        11   
                  -0.93827  -0.79167  -0.67661  -0.57338  -0.54346  -0.47856
                   2.00000   2.00000   2.00000   2.00000   2.00000   2.00000
                  --------  --------  --------  --------  --------  --------
 0 C  s               1.1       0.1      34.6       9.0       0.0       0.2
 0 C  px              0.8       0.1       1.0       3.8       0.0       1.5
 0 C  py              0.9       0.0       0.0       0.1       0.0       0.3
 1 C  s              19.7       0.5       8.7       4.1       0.0       3.4
 1 C  pz              0.0       0.0       0.0       0.0       0.7       0.0
 1 C  px              0.0       2.6       3.3      13.3       0.0       1.7
 1 C  py             12.8       2.7      13.7       3.1       0.0       0.9
 1 C  dz2             0.5       0.0       0.0       0.0       0.0       0.0
 1 C  dx2y2           1.2       0.2       0.2       0.0       0.0       0.1
 1 C  dxy             0.0       0.0       0.1       0.3       0.0       0.0
 2 O  s              50.2       2.0       3.4       1.0       0.0       3.2
 2 O  pz              0.0       0.0       0.0       0.0       0.1       0.0
 2 O  px              0.0       0.0       0.1       1.0       0.0       1.2
 2 O  py              6.7       0.1       0.6       0.6       0.0       2.4
 2 O  dx2y2           0.2       0.0       0.0       0.0       0.0       0.0
 3 C  s               1.6      19.8       1.4      13.6       0.0       3.0
 3 C  pz              0.0       0.0       0.0       0.0       9.0       0.0
 3 C  px              0.8       5.3       5.7      10.4       0.0       6.1
 3 C  py              1.1       1.5       0.2       0.3       0.0      18.9
 3 C  dxz             0.0       0.0       0.0       0.0       0.3       0.0
 3 C  dyz             0.0       0.0       0.0       0.0       0.1       0.0
 3 C  dx2y2           0.0       0.1       0.0       0.0       0.0       0.0
 3 C  dxy             0.0       0.2       0.1       0.2       0.0       0.0
 4 C  s               0.2      18.7       0.9       4.7      17.1       1.0
 4 C  pz              0.1       5.3       0.2       0.1      10.2       0.8
 4 C  px              0.2       1.5       0.1       3.6       0.0       0.0
 4 C  py              0.0       0.5       0.0       0.3       0.0      14.5
 4 C  dz2             0.0       0.2       0.0       0.1       0.2       0.0
 4 C  dxz             0.0       0.2       0.0       0.0       0.0       0.0
 4 C  dxy             0.0       0.0       0.0       0.1       0.0       0.1
 5 C  s               0.2      18.7       0.9       4.7      17.1       1.0
 5 C  pz              0.1       5.3       0.2       0.1      10.2       0.8
 5 C  px              0.2       1.5       0.1       3.6       0.0       0.0
 5 C  py              0.0       0.5       0.0       0.3       0.0      14.5
 5 C  dz2             0.0       0.2       0.0       0.1       0.2       0.0
 5 C  dxz             0.0       0.2       0.0       0.0       0.0       0.0
 5 C  dxy             0.0       0.0       0.0       0.1       0.0       0.1
 6 H  s               0.1       0.0       8.1       2.6       0.0       0.2
 7 H  s               0.1       0.0       8.1       2.6       0.0       0.2
 8 H  s               0.2       0.0       6.5       4.6       0.0       0.5
 9 H  s               0.2       2.7       0.8       5.0       0.0      10.3
10 H  s               0.0       2.4       0.2       1.9       8.9       0.1
11 H  s               0.1       2.3       0.2       1.2       8.3       6.2
12 H  s               0.0       2.4       0.2       1.9       8.9       0.1
13 H  s               0.1       2.3       0.2       1.2       8.3       6.2

                     12        13        14        15        16        17   
                  -0.45314  -0.42221  -0.39984  -0.37347  -0.36591  -0.33593
                   2.00000   2.00000   2.00000   2.00000   2.00000   2.00000
                  --------  --------  --------  --------  --------  --------
 0 C  s               1.2       0.2       0.0       0.0       0.0       0.0
 0 C  pz              0.0       0.0      37.9       0.0       0.0      10.6
 0 C  px              7.4       1.4       0.0       2.6      27.1       0.0
 0 C  py              2.5      18.9       0.0       9.1       9.9       0.0
 0 C  dz2             0.1       0.2       0.0       0.1       0.1       0.0
 0 C  dyz             0.0       0.0       0.3       0.0       0.0       0.4
 0 C  dxy             0.2       0.1       0.0       0.0       0.4       0.0
 1 C  s               2.6       3.5       0.0       0.7       0.3       0.0
 1 C  pz              0.0       0.0      21.7       0.0       0.0       6.3
 1 C  px              2.3       9.9       0.0      10.3       1.0       0.0
 1 C  py              1.6       0.2       0.0       4.3       3.9       0.0
 1 C  dxz             0.0       0.0       0.1       0.0       0.0       0.1
 1 C  dyz             0.0       0.0       0.0       0.0       0.0       0.4
 1 C  dx2y2           0.0       0.2       0.0       0.0       0.1       0.0
 1 C  dxy             0.0       0.0       0.0       0.0       0.2       0.0
 2 O  s               0.3       6.7       0.0       4.5       2.5       0.0
 2 O  pz              0.0       0.0      10.7       0.0       0.0      13.7
 2 O  px              1.2       4.4       0.0       8.5       0.2       0.0
 2 O  py              1.1      14.2       0.0      17.7       6.6       0.0
 2 O  dyz             0.0       0.0       0.1       0.0       0.0       0.1
 2 O  dx2y2           0.0       0.1       0.0       0.1       0.0       0.0
 2 O  dxy             0.0       0.1       0.0       0.1       0.0       0.0
 3 C  s               0.6       0.6       0.0       0.3       1.5       0.0
 3 C  pz              0.0       0.0       2.8       0.0       0.0       2.0
 3 C  px              3.3       3.7       0.0       0.2       0.3       0.0
 3 C  py              7.2       2.3       0.0       4.4       2.2       0.0
 3 C  dyz             0.0       0.0       0.0       0.0       0.0       0.2
 3 C  dx2y2           0.0       0.2       0.0       0.1       0.5       0.0
 3 C  dxy             0.2       0.0       0.0       0.4       0.0       0.0
 4 C  s               1.7       0.3       0.2       0.0       0.1       0.0
 4 C  pz              6.3       5.1       0.2       0.0       4.8       0.1
 4 C  px             10.6       0.3       0.8       1.8       0.8       6.0
 4 C  py              1.3       1.4       0.0       6.4       0.5       8.0
 4 C  dz2             0.0       0.1       0.0       0.0       0.1       0.0
 4 C  dxz             0.1       0.0       0.0       0.0       0.0       0.2
 4 C  dyz             0.0       0.0       0.0       0.0       0.0       0.4
 4 C  dxy             0.1       0.0       0.0       0.0       0.0       0.0
 5 C  s               1.7       0.3       0.2       0.0       0.1       0.0
 5 C  pz              6.3       5.1       0.2       0.0       4.8       0.1
 5 C  px             10.6       0.3       0.7       1.8       0.8       6.0
 5 C  py              1.3       1.4       0.0       6.4       0.5       8.0
 5 C  dz2             0.0       0.1       0.0       0.0       0.1       0.0
 5 C  dxz             0.1       0.0       0.0       0.0       0.0       0.2
 5 C  dyz             0.0       0.0       0.0       0.0       0.0       0.4
 5 C  dxy             0.1       0.0       0.0       0.0       0.0       0.0
 6 H  s               1.5       4.0      11.4       2.0       1.6       4.9
 7 H  s               1.5       4.0      11.3       2.0       1.6       4.9
 8 H  s               2.0       0.2       0.0       0.1      19.9       0.0
 9 H  s               2.1       3.5       0.0       3.5       4.1       0.0
10 H  s               9.7       0.6       0.6       3.0       0.0       8.3
11 H  s               0.5       2.8       0.0       2.9       1.6       5.2
12 H  s               9.7       0.6       0.6       3.0       0.0       8.3
13 H  s               0.5       2.8       0.0       2.9       1.6       5.2

                     18        19        20        21        22        23   
                  -0.33424  -0.31715  -0.27650  -0.26427  -0.19938  -0.04656
                   2.00000   2.00000   2.00000   2.00000   2.00000   0.00000
                  --------  --------  --------  --------  --------  --------
 0 C  s               0.1       0.0       0.1       0.0       1.6       0.0
 0 C  pz              0.0       7.2       0.0       0.0       0.0       0.1
 0 C  px              2.7       0.0       1.6       0.0       4.7       0.0
 0 C  py              9.6       0.0       0.2       0.0       4.4       0.0
 0 C  dz2             0.1       0.0       0.0       0.0       0.0       0.0
 0 C  dxz             0.0       0.0       0.0       0.0       0.0       0.6
 0 C  dyz             0.0       0.3       0.0       0.0       0.0       1.0
 0 C  dx2y2           0.3       0.0       0.0       0.0       0.0       0.0
 0 C  dxy             0.1       0.0       0.1       0.0       0.0       0.0
 1 C  s               0.7       0.0       0.1       0.0       0.0       0.0
 1 C  pz              0.0       9.4       0.0       0.9       0.0      45.8
 1 C  px              3.5       0.0       1.7       0.0       2.5       0.0
 1 C  py              8.2       0.0       0.1       0.0       0.0       0.0
 1 C  dxz             0.0       0.1       0.0       0.3       0.0       0.0
 1 C  dyz             0.0       0.4       0.0       0.9       0.0       1.5
 1 C  dx2y2           0.6       0.0       0.1       0.0       0.0       0.0
 1 C  dxy             0.0       0.0       0.0       0.0       4.9       0.0
 2 O  s               3.6       0.0       0.0       0.0       0.0       0.0
 2 O  pz              0.0      19.2       0.0      22.1       0.0      28.8
 2 O  px              1.1       0.0       3.1       0.0      68.0       0.0
 2 O  py             23.0       0.0       0.1       0.0       0.1       0.0
 2 O  dyz             0.0       0.1       0.0       0.0       0.0       0.5
 2 O  dx2y2           0.1       0.0       0.0       0.0       0.0       0.0
 3 C  s               0.1       0.0       0.2       0.0       1.7       0.0
 3 C  pz              0.0       5.6       0.0      37.3       0.0       0.4
 3 C  px              2.5       0.0       5.9       0.0       5.4       0.0
 3 C  py              9.0       0.0       4.2       0.0       2.1       0.0
 3 C  dz2             0.0       0.0       0.6       0.0       0.0       0.0
 3 C  dxz             0.0       0.0       0.0       0.5       0.0       2.3
 3 C  dx2y2           0.5       0.0       0.0       0.0       0.0       0.0
 3 C  dxy             0.2       0.0       0.0       0.0       0.0       0.0
 4 C  s               0.0       0.1       0.0       0.1       0.1       0.5
 4 C  pz              0.0       0.2      18.3       0.4       0.1       0.0
 4 C  px              0.6       0.1      14.0      12.4       0.6       4.3
 4 C  py              3.4      12.3       4.0       2.5       0.2       1.4
 4 C  dz2             0.0       0.0       0.2       0.2       0.0       0.0
 4 C  dxz             0.0       0.0       0.3       0.1       0.0       0.1
 4 C  dyz             0.0       0.5       0.1       0.0       0.0       0.0
 4 C  dx2y2           0.1       0.1       0.0       0.1       0.1       0.0
 4 C  dxy             0.0       0.0       0.0       0.2       0.0       0.0
 5 C  s               0.0       0.1       0.0       0.1       0.1       0.5
 5 C  pz              0.0       0.2      18.3       0.4       0.1       0.0
 5 C  px              0.6       0.1      14.0      12.4       0.6       4.3
 5 C  py              3.5      12.3       4.1       2.5       0.2       1.4
 5 C  dz2             0.0       0.0       0.2       0.2       0.0       0.0
 5 C  dxz             0.0       0.1       0.3       0.1       0.0       0.1
 5 C  dyz             0.0       0.5       0.1       0.0       0.0       0.0
 5 C  dx2y2           0.1       0.1       0.0       0.1       0.1       0.0
 5 C  dxy             0.0       0.0       0.0       0.2       0.0       0.0
 6 H  s               2.0       3.9       0.2       0.1       0.4       2.9
 7 H  s               2.0       3.9       0.2       0.1       0.4       2.9
 8 H  s               7.4       0.0       1.5       0.0       0.4       0.0
 9 H  s               7.1       0.0       3.9       0.0       0.5       0.0
10 H  s               1.8       3.3       0.7       1.9       0.0       0.2
11 H  s               1.7       8.3       0.4       1.0       0.4       0.0
12 H  s               1.8       3.3       0.7       1.9       0.0       0.2
13 H  s               1.7       8.3       0.4       1.0       0.4       0.0

                     24        25        26        27        28        29   
                   0.03522   0.05974   0.07352   0.08661   0.09708   0.10869
                   0.00000   0.00000   0.00000   0.00000   0.00000   0.00000
                  --------  --------  --------  --------  --------  --------
 0 C  s               3.8      18.5       0.2       0.0       0.0       0.5
 0 C  pz              0.0       0.0       0.0      11.8       4.2       0.0
 0 C  px              0.9       0.7       0.8       0.0       0.0      11.3
 0 C  py              2.3       1.7       0.2       0.0       0.0      12.7
 0 C  dz2             0.0       0.0       0.0       0.0       0.0       0.9
 0 C  dyz             0.0       0.0       0.0       0.8       0.4       0.0
 0 C  dx2y2           0.1       0.0       0.0       0.0       0.0       0.2
 0 C  dxy             0.1       0.0       0.2       0.0       0.0       1.0
 1 C  s               0.3       0.5       2.4       0.0       0.0       0.6
 1 C  pz              0.0       0.0       0.0       0.5       0.7       0.0
 1 C  px              0.0       0.1       0.1       0.0       0.0       0.3
 1 C  py              2.0       0.2       1.0       0.0       0.0       0.5
 1 C  dz2             0.0       0.5       0.4       0.0       0.0       0.2
 1 C  dxz             0.0       0.0       0.0       0.7       0.4       0.0
 1 C  dx2y2           0.5       0.0       0.0       0.0       0.0       1.6
 1 C  dxy             0.0       0.0       0.1       0.0       0.0       0.1
 2 O  s               0.3       0.2       0.9       0.0       0.0       0.1
 2 O  pz              0.0       0.0       0.0       0.0       0.7       0.0
 2 O  px              0.0       0.5       1.0       0.0       0.0       0.0
 2 O  py              0.1       0.0       0.0       0.0       0.0       0.8
 3 C  s               4.4       0.5       0.4       0.0       0.0       1.1
 3 C  pz              0.0       0.0       0.0       5.6      10.1       0.0
 3 C  px              0.2       0.1       0.8       0.0       0.0       0.3
 3 C  py              6.7       0.5       0.7       0.0       0.0       0.3
 3 C  dz2             0.1       0.1       0.1       0.0       0.0       0.1
 3 C  dxz             0.0       0.0       0.0       1.2       0.2       0.0
 3 C  dyz             0.0       0.0       0.0       0.5       0.2       0.0
 3 C  dx2y2           0.7       0.6       0.3       0.0       0.0       0.2
 3 C  dxy             0.2       0.0       0.9       0.0       0.0       0.1
 4 C  s               1.7       1.6       8.7       8.3       5.7       0.0
 4 C  pz              0.8       0.3       2.2       1.1       2.6       0.1
 4 C  px              1.4       0.9       0.2       0.5      11.7       0.4
 4 C  py              1.4       1.8       2.6       0.3       2.4       0.1
 4 C  dz2             0.0       0.1       0.2       0.1       1.5       0.0
 4 C  dxz             0.2       0.3       0.0       0.1       0.3       0.0
 4 C  dyz             0.5       0.2       0.8       0.0       0.1       0.0
 4 C  dx2y2           0.0       0.0       0.3       0.0       0.1       0.1
 4 C  dxy             0.5       0.0       0.0       0.0       0.3       0.1
 5 C  s               1.7       1.6       8.7       8.3       5.7       0.0
 5 C  pz              0.8       0.3       2.2       1.1       2.5       0.1
 5 C  px              1.4       0.9       0.2       0.5      11.7       0.4
 5 C  py              1.4       1.8       2.6       0.3       2.4       0.1
 5 C  dz2             0.0       0.1       0.2       0.1       1.5       0.0
 5 C  dxz             0.2       0.3       0.0       0.1       0.3       0.0
 5 C  dyz             0.5       0.2       0.8       0.0       0.1       0.0
 5 C  dx2y2           0.0       0.0       0.3       0.0       0.1       0.1
 5 C  dxy             0.5       0.0       0.0       0.0       0.3       0.1
 6 H  s               6.5      17.2       0.1      14.5       5.1       6.5
 7 H  s               6.5      17.2       0.1      14.5       5.1       6.5
 8 H  s               1.3       9.5       0.2       0.0       0.0      51.8
 9 H  s              25.1       0.7       2.1       0.0       0.0       0.3
10 H  s              12.2       9.7       2.4       8.8       7.5       0.1
11 H  s               0.4       0.5      26.2       5.7       4.4       0.1
12 H  s              12.2       9.7       2.4       8.8       7.5       0.1
13 H  s               0.4       0.5      26.2       5.8       4.4       0.1

                     30        31        32        33        34        35   
                   0.12671   0.13744   0.16072   0.17591   0.20450   0.23177
                   0.00000   0.00000   0.00000   0.00000   0.00000   0.00000
                  --------  --------  --------  --------  --------  --------
 0 C  s               3.0       0.0       0.0       1.1       0.8       0.0
 0 C  pz              0.0      11.1       0.1       0.0       0.0       1.1
 0 C  px              1.3       0.0       0.0      12.9      10.0       0.0
 0 C  py              0.6       0.0       0.0       5.1       3.1       0.0
 0 C  dz2             0.1       0.0       0.0       0.8       0.4       0.0
 0 C  dxz             0.0       0.2       0.0       0.0       0.0       0.0
 0 C  dyz             0.0       0.1       0.0       0.0       0.0       0.0
 0 C  dx2y2           0.1       0.0       0.0       1.3       0.3       0.0
 0 C  dxy             0.0       0.0       0.0       2.9       3.1       0.0
 1 C  s               0.6       0.0       0.0      10.0      14.1       0.0
 1 C  pz              0.0       5.1       0.2       0.0       0.0       2.2
 1 C  px              1.4       0.0       0.0       2.6       0.2       0.0
 1 C  py              0.5       0.0       0.0       4.0       2.0       0.0
 1 C  dz2             0.1       0.0       0.0       2.0       1.5       0.0
 1 C  dyz             0.0       0.1       0.0       0.0       0.0       0.1
 1 C  dx2y2           0.1       0.0       0.0       1.3       0.3       0.0
 1 C  dxy             0.1       0.0       0.0       0.3       0.2       0.0
 2 O  s               0.1       0.0       0.0       0.0       0.0       0.0
 2 O  pz              0.0       1.4       0.3       0.0       0.0       2.0
 2 O  px              1.3       0.0       0.0       0.2       0.2       0.0
 2 O  py              0.1       0.0       0.0       0.1       1.8       0.0
 2 O  dyz             0.0       0.1       0.0       0.0       0.0       0.1
 2 O  dx2y2           0.0       0.0       0.0       0.0       0.2       0.0
 3 C  s              12.0       0.0       0.0       9.4       1.2       0.0
 3 C  pz              0.0      14.7       0.2       0.0       0.0       9.4
 3 C  px              0.3       0.0       0.0       1.7      18.5       0.0
 3 C  py              5.4       0.0       0.0       6.4       1.6       0.0
 3 C  dz2             0.3       0.0       0.0       0.1       0.1       0.0
 3 C  dxz             0.0       0.1       0.0       0.0       0.0       2.6
 3 C  dyz             0.0       0.5       0.7       0.0       0.0       1.9
 3 C  dx2y2           0.1       0.0       0.0       1.5       0.0       0.0
 3 C  dxy             0.1       0.0       0.0       0.2       3.7       0.0
 4 C  s               0.5       0.5       0.3       0.6       0.3       4.2
 4 C  pz              0.0       7.4       0.0       0.8       1.6      21.5
 4 C  px              1.1       4.3       3.0       6.5       6.2       2.0
 4 C  py              3.0       1.3       9.6       2.4       1.6       0.9
 4 C  dz2             0.1       1.3       0.0       0.3       0.2       4.6
 4 C  dxz             0.4       0.2       0.0       0.8       0.7       0.1
 4 C  dyz             0.1       0.1       0.0       0.2       0.4       0.0
 4 C  dx2y2           0.0       0.0       0.1       1.2       0.1       0.3
 4 C  dxy             0.4       0.1       0.1       0.6       1.5       0.9
 5 C  s               0.5       0.5       0.3       0.6       0.3       4.2
 5 C  pz              0.0       7.4       0.0       0.8       1.6      21.5
 5 C  px              1.1       4.3       3.0       6.5       6.2       2.0
 5 C  py              3.0       1.3       9.6       2.4       1.6       0.9
 5 C  dz2             0.1       1.3       0.0       0.3       0.2       4.6
 5 C  dxz             0.4       0.2       0.0       0.8       0.7       0.1
 5 C  dyz             0.1       0.1       0.0       0.2       0.4       0.0
 5 C  dx2y2           0.0       0.0       0.1       1.2       0.1       0.3
 5 C  dxy             0.4       0.1       0.1       0.6       1.5       0.9
 6 H  s               2.4      12.4       0.1       0.8       0.3       1.1
 7 H  s               2.4      12.4       0.1       0.8       0.3       1.1
 8 H  s               3.5       0.0       0.0       0.6       2.4       0.0
 9 H  s              33.1       0.0       0.0       1.0       3.8       0.0
10 H  s               7.6       4.0      14.3       1.4       0.9       2.2
11 H  s               2.1       1.6      21.8       1.4       1.4       2.5
12 H  s               7.7       4.0      14.3       1.4       0.9       2.2
13 H  s               2.1       1.6      21.8       1.4       1.4       2.5

                     36        37        38        39        40        41   
                   0.23828   0.27672   0.35755   0.42329   0.42985   0.43726
                   0.00000   0.00000   0.00000   0.00000   0.00000   0.00000
                  --------  --------  --------  --------  --------  --------
 0 C  s               1.1       0.1       0.1       0.0       1.7       0.4
 0 C  pz              0.0       0.0       0.0      31.7       0.0       0.0
 0 C  px              2.5       1.6       6.0       0.0      13.9       1.1
 0 C  py             10.2       4.9       3.0       0.0       4.1       1.5
 0 C  dz2             1.6       1.3       0.0       0.0       2.6       0.4
 0 C  dxz             0.0       0.0       0.0       0.3       0.0       0.0
 0 C  dyz             0.0       0.0       0.0       8.9       0.0       0.0
 0 C  dx2y2           0.6       1.2       0.0       0.0       0.1       1.0
 0 C  dxy             0.1       1.7       1.0       0.0       1.4       0.5
 1 C  s              14.2       4.3       7.5       0.0       1.7       2.1
 1 C  pz              0.0       0.0       0.0      23.9       0.0       0.0
 1 C  px              5.6      16.2       2.3       0.0       0.3       3.8
 1 C  py             12.6      10.9       0.8       0.0       0.5       1.1
 1 C  dz2             2.9       0.4       2.5       0.0       0.7       0.7
 1 C  dxz             0.0       0.0       0.0       1.0       0.0       0.0
 1 C  dyz             0.0       0.0       0.0       0.1       0.0       0.0
 1 C  dx2y2           1.7       2.2       0.6       0.0       0.7       0.6
 1 C  dxy             0.6       0.5       0.0       0.0       0.0       1.1
 2 O  s               6.7       4.9       0.1       0.0       0.4       0.1
 2 O  pz              0.0       0.0       0.0       0.3       0.0       0.0
 2 O  px              0.9       2.2       0.7       0.0       0.0       2.9
 2 O  py              1.5       0.6       0.0       0.0       0.1       0.0
 2 O  dyz             0.0       0.0       0.0       0.2       0.0       0.0
 2 O  dxy             0.3       0.6       0.0       0.0       0.0       0.3
 3 C  s               1.8       3.5       4.7       0.0       2.0       2.6
 3 C  pz              0.0       0.0       0.0       1.9       0.0       0.0
 3 C  px              3.6       9.4       4.1       0.0      10.5      12.0
 3 C  py              2.0       2.8       0.9       0.0       0.3       1.4
 3 C  dz2             0.4       0.9       0.5       0.0       0.4       3.1
 3 C  dyz             0.0       0.0       0.0       0.4       0.0       0.0
 3 C  dx2y2           1.0       1.5       0.8       0.0       0.5       0.3
 3 C  dxy             2.5       2.5       0.0       0.0       0.0       0.1
 4 C  s               0.6       0.4       1.4       0.0       1.8       2.2
 4 C  pz              1.7       0.2      17.2       0.2      13.5       0.8
 4 C  px              2.6       0.2       0.6       0.4       2.8       0.4
 4 C  py              1.0       0.8       0.1       1.1       0.0       5.0
 4 C  dz2             0.2       0.0       1.5       0.1       2.2       0.3
 4 C  dxz             0.1       0.0       0.2       0.0       0.1       2.9
 4 C  dyz             0.0       0.7       0.1       0.0       0.2       0.9
 4 C  dx2y2           0.2       1.5       0.3       0.0       0.0       0.1
 4 C  dxy             0.2       0.0       1.8       0.0       0.0       0.1
 5 C  s               0.6       0.4       1.4       0.0       1.8       2.2
 5 C  pz              1.7       0.2      17.3       0.2      13.5       0.8
 5 C  px              2.6       0.2       0.6       0.5       2.7       0.4
 5 C  py              1.0       0.8       0.1       1.0       0.0       5.0
 5 C  dz2             0.2       0.0       1.5       0.1       2.2       0.3
 5 C  dxz             0.1       0.0       0.2       0.0       0.1       2.9
 5 C  dyz             0.0       0.7       0.1       0.0       0.2       0.9
 5 C  dx2y2           0.2       1.5       0.3       0.0       0.0       0.1
 5 C  dxy             0.2       0.0       1.8       0.0       0.0       0.1
 6 H  s               1.8       1.1       0.2      13.6       1.3       0.6
 7 H  s               1.8       1.1       0.2      13.6       1.3       0.6
 8 H  s               2.2       2.8       1.4       0.0       8.1       4.1
 9 H  s               3.5       1.3       1.9       0.0       3.7      12.0
10 H  s               0.1       1.5       5.4       0.0       0.2       8.5
11 H  s               1.5       4.4       1.5       0.1       0.9       1.5
12 H  s               0.1       1.5       5.4       0.0       0.2       8.5
13 H  s               1.6       4.5       1.5       0.1       0.9       1.5

                     42        43        44        45        46        47   
                   0.46161   0.46572   0.50045   0.51798   0.52142   0.54865
                   0.00000   0.00000   0.00000   0.00000   0.00000   0.00000
                  --------  --------  --------  --------  --------  --------
 0 C  s               0.0       5.7       2.3       0.0       0.2       0.0
 0 C  pz              7.2       0.0       0.0       4.8       0.0       1.6
 0 C  px              0.0      14.7       2.2       0.0       1.1       0.0
 0 C  py              0.0       3.8      30.7       0.0       2.0       0.0
 0 C  dz2             0.0       0.2       3.7       0.0       0.1       0.0
 0 C  dxz             0.0       0.0       0.0       0.3       0.0       0.1
 0 C  dyz             1.3       0.0       0.0       1.1       0.0       0.0
 0 C  dx2y2           0.0       1.6       1.3       0.0       0.3       0.0
 0 C  dxy             0.0       0.0       0.2       0.0       0.2       0.0
 1 C  s               0.0       5.3       5.0       0.0       4.7       0.0
 1 C  pz              4.8       0.0       0.0      37.7       0.0       5.2
 1 C  px              0.0       9.1       5.2       0.0       3.5       0.0
 1 C  py              0.0       1.6      10.7       0.0       0.8       0.0
 1 C  dz2             0.0       0.2       0.4       0.0       0.1       0.0
 1 C  dxz             0.8       0.0       0.0       0.2       0.0       0.3
 1 C  dx2y2           0.0       0.2       2.4       0.0       0.4       0.0
 1 C  dxy             0.0       2.0       0.9       0.0       0.4       0.0
 2 O  s               0.0       0.5       1.8       0.0       0.3       0.0
 2 O  pz              0.4       0.0       0.0       2.5       0.0       1.0
 2 O  px              0.0       5.5       0.8       0.0       0.3       0.0
 2 O  py              0.0       0.5       1.0       0.0       0.3       0.0
 2 O  dz2             0.0       0.1       0.1       0.0       0.2       0.0
 2 O  dx2y2           0.0       0.2       0.4       0.0       0.1       0.0
 2 O  dxy             0.0       0.1       0.2       0.0       0.1       0.0
 3 C  s               0.0       3.8       0.9       0.0      10.6       0.0
 3 C  pz             11.2       0.0       0.0       2.4       0.0      44.6
 3 C  px              0.0       0.9       2.1       0.0       4.6       0.0
 3 C  py              0.0       0.0       1.3       0.0       1.9       0.0
 3 C  dz2             0.0       1.3       0.1       0.0       0.1       0.0
 3 C  dxz             1.7       0.0       0.0       0.1       0.0       0.8
 3 C  dyz             0.5       0.0       0.0       2.9       0.0       0.9
 3 C  dx2y2           0.0       1.1       0.1       0.0       0.1       0.0
 3 C  dxy             0.0       0.5       0.5       0.0       0.0       0.0
 4 C  s               1.9       8.2       0.3       1.6       2.3       4.0
 4 C  pz              3.2       0.0       1.8       8.7       1.3       5.5
 4 C  px             16.8       3.3       1.3       1.2      14.2       0.3
 4 C  py              5.4       0.3       2.3       2.4       4.1       2.2
 4 C  dz2             0.0       0.4       0.3       0.1       0.0       0.5
 4 C  dxz             0.2       0.3       0.3       0.0       1.7       0.5
 4 C  dyz             0.1       1.2       1.2       0.1       0.5       0.0
 4 C  dx2y2           0.4       0.1       0.0       1.6       0.0       0.2
 4 C  dxy             1.2       0.0       0.0       0.0       0.0       0.5
 5 C  s               1.9       8.3       0.4       1.6       2.3       4.0
 5 C  pz              3.2       0.0       1.8       8.7       1.3       5.5
 5 C  px             16.7       3.5       1.3       1.2      14.2       0.3
 5 C  py              5.4       0.3       2.3       2.4       4.1       2.2
 5 C  dz2             0.0       0.4       0.3       0.1       0.0       0.5
 5 C  dxz             0.2       0.4       0.3       0.0       1.7       0.5
 5 C  dyz             0.1       1.2       1.2       0.1       0.5       0.0
 5 C  dx2y2           0.4       0.1       0.0       1.6       0.0       0.2
 5 C  dxy             1.2       0.0       0.0       0.0       0.0       0.5
 6 H  s               2.0       2.9       1.3       1.2       0.3       0.1
 7 H  s               2.1       2.8       1.3       1.2       0.3       0.1
 8 H  s               0.0       0.5       0.3       0.0       1.5       0.0
 9 H  s               0.0       0.5       0.9       0.0       4.6       0.0
10 H  s               2.5       0.1       1.3       0.5       3.1       7.6
11 H  s               2.2       3.1       2.1       6.6       3.2       1.3
12 H  s               2.5       0.1       1.3       0.5       3.1       7.6
13 H  s               2.2       3.1       2.1       6.6       3.2       1.3

                     48        49        50        51        52        53   
                   0.58088   0.61204   0.61622   0.63143   0.64181   0.65355
                   0.00000   0.00000   0.00000   0.00000   0.00000   0.00000
                  --------  --------  --------  --------  --------  --------
 0 C  s               3.9       0.0       8.2      25.3       3.4       0.0
 0 C  pz              0.0       4.3       0.0       0.0       0.0      52.8
 0 C  px              5.2       0.0       6.3       1.2       9.3       0.0
 0 C  py              0.5       0.0       0.0       9.9       0.5       0.0
 0 C  dz2             0.1       0.0       0.2       0.0       0.0       0.0
 0 C  dxz             0.0       0.7       0.0       0.0       0.0       0.1
 0 C  dyz             0.0       0.3       0.0       0.0       0.0       2.5
 0 C  dx2y2           0.2       0.0       0.5       0.1       0.3       0.0
 0 C  dxy             0.1       0.0       0.0       0.0       0.8       0.0
 1 C  s              28.8       0.0       2.0       1.7       1.9       0.0
 1 C  pz              0.0      12.0       0.0       0.0       0.0       0.9
 1 C  px             10.9       0.0       2.5       1.2       0.1       0.0
 1 C  py              2.9       0.0       9.0      14.9       7.5       0.0
 1 C  dz2             0.0       0.0       0.6       0.9       0.6       0.0
 1 C  dyz             0.0       0.2       0.0       0.0       0.0       0.0
 1 C  dx2y2           1.9       0.0       0.2       0.7       0.1       0.0
 1 C  dxy             0.1       0.0       0.2       0.3       0.0       0.0
 2 O  s               0.3       0.0       0.3       0.3       0.6       0.0
 2 O  pz              0.0       0.0       0.0       0.0       0.0       0.4
 2 O  px              1.2       0.0       0.0       0.1       0.7       0.0
 2 O  py              5.3       0.0       2.3       4.7       1.9       0.0
 2 O  dz2             1.3       0.0       0.0       0.8       0.2       0.0
 2 O  dx2y2           1.8       0.0       0.3       2.1       0.9       0.0
 3 C  s               1.8       0.0       2.1       0.0       0.6       0.0
 3 C  pz              0.0      22.1       0.0       0.0       0.0       1.5
 3 C  px              0.8       0.0       4.4       0.9       0.8       0.0
 3 C  py              0.5       0.0       7.7       4.8       0.4       0.0
 3 C  dz2             0.1       0.0       0.2       0.3       0.1       0.0
 3 C  dyz             0.0       0.0       0.0       0.0       0.0       0.2
 3 C  dx2y2           0.6       0.0       1.6       0.1       0.1       0.0
 3 C  dxy             0.8       0.0       1.4       0.2       0.1       0.0
 4 C  s               3.1       0.8       0.7       0.3      14.1       0.1
 4 C  pz              0.4       7.4       1.0       0.2       4.2       0.6
 4 C  px              2.3      17.7       1.5       2.7       0.2       0.2
 4 C  py              0.3       3.4       2.0       1.1       2.4       0.2
 4 C  dxz             0.2       0.0       0.1       0.0       0.0       0.1
 4 C  dyz             0.5       0.0       2.8       0.0       0.0       0.0
 4 C  dx2y2           0.0       0.1       0.1       0.0       0.3       0.0
 4 C  dxy             0.0       0.0       0.5       0.5       0.1       0.1
 5 C  s               3.1       0.8       0.7       0.3      14.1       0.1
 5 C  pz              0.4       7.4       1.0       0.2       4.3       0.7
 5 C  px              2.2      17.6       1.5       2.8       0.2       0.1
 5 C  py              0.3       3.4       2.0       1.1       2.4       0.3
 5 C  dxz             0.2       0.0       0.1       0.0       0.0       0.1
 5 C  dyz             0.5       0.0       2.8       0.0       0.0       0.0
 5 C  dx2y2           0.0       0.1       0.1       0.0       0.3       0.0
 5 C  dxy             0.0       0.0       0.5       0.5       0.1       0.1
 6 H  s               4.7       0.0       0.1       6.4       0.0      18.4
 7 H  s               4.7       0.0       0.1       6.4       0.0      17.5
 8 H  s               6.6       0.0       0.9       1.7      10.6       0.0
 9 H  s               0.3       0.0      14.9       0.8       0.1       0.0
10 H  s               0.0       0.7       0.0       1.7       2.6       1.1
11 H  s               0.4       0.1       8.3       0.3       5.3       0.0
12 H  s               0.0       0.7       0.0       1.7       2.6       1.6
13 H  s               0.4       0.1       8.3       0.3       5.3       0.0

[...]
 0 C  px              0.0       0.0       0.8       0.0       0.0       0.0
 0 C  py              0.0       0.0       0.1       0.0       0.0       0.0
 0 C  dz2             0.0       0.0       0.2       0.4       0.0       0.0
 0 C  dxz             0.0       0.0       0.0       0.0       0.7       0.0
 0 C  dyz             0.0       1.3       0.0       0.0       0.9       0.4
 0 C  dx2y2           0.0       0.0       0.0       2.7       0.0       0.0
 0 C  dxy             0.0       0.0       4.4       0.7       0.0       0.0
 1 C  s               0.0       0.0       0.7       0.0       0.0       0.0
 1 C  pz              0.0       0.3       0.0       0.0       0.0       0.1
 1 C  px              0.0       0.0       6.5       0.0       0.0       0.0
 1 C  py              0.0       0.0       0.4       0.1       0.0       0.0
 1 C  dz2             0.0       0.0       0.8       5.7       0.0       0.0
 1 C  dxz             0.1       5.8       0.0       0.0       5.1       2.6
 1 C  dyz             0.0       0.1       0.0       0.0       0.0       0.0
 1 C  dx2y2           0.0       0.0       0.0       9.4       0.0       0.0
 1 C  dxy             0.0       0.0       8.6       0.1       0.0       0.0
 2 O  s               0.0       0.0       0.1       1.8       0.0       0.0
 2 O  px              0.0       0.0       0.7       0.0       0.0       0.0
 2 O  py              0.0       0.0       0.1       1.6       0.0       0.0
 2 O  dz2             0.0       0.0       2.3      34.0       0.0       0.0
 2 O  dxz             0.0       1.7       0.0       0.0      70.2      17.5
 2 O  dyz             0.3       0.5       0.0       0.0       0.9       1.8
 2 O  dx2y2           0.0       0.0       0.0      24.3       0.0       0.0
 2 O  dxy             0.0       0.0      15.3       0.1       0.0       0.0
 3 C  s               0.0       0.0       0.2       0.6       0.0       0.0
 3 C  pz              0.2       0.4       0.0       0.0       0.9       1.7
 3 C  px              0.0       0.0       3.3       0.3       0.0       0.0
 3 C  py              0.0       0.0       0.1       0.4       0.0       0.0
 3 C  dz2             0.0       0.0       3.1       0.7       0.0       0.0
 3 C  dxz             3.6       6.3       0.0       0.0       1.9      22.4
 3 C  dyz             2.5       2.7       0.0       0.0       4.1       2.3
 3 C  dx2y2           0.0       0.0      10.8       8.2       0.0       0.0
 3 C  dxy             0.0       0.0      25.2       2.9       0.0       0.0
 4 C  s               3.0       1.1       0.2       0.0       0.0       0.0
 4 C  pz              3.1       1.4       0.1       0.1       0.2       0.8
 4 C  px              0.3       0.5       0.2       0.1       0.6       1.2
 4 C  py              0.6       0.4       0.0       0.0       0.0       0.5
 4 C  dz2            16.2       6.2       0.1       0.1       3.7      13.5
 4 C  dxz            12.6       0.5       1.2       0.4       1.5       4.1
 4 C  dyz             3.6      20.9       0.7       0.7       0.4       1.2
 4 C  dx2y2           4.5       2.5       4.3       0.0       0.6       1.1
 4 C  dxy             0.6       3.4       0.1       1.1       0.6       3.2
 5 C  s               3.0       1.1       0.2       0.0       0.0       0.0
 5 C  pz              3.1       1.4       0.1       0.1       0.2       0.7
 5 C  px              0.3       0.5       0.2       0.1       0.6       1.2
 5 C  py              0.6       0.4       0.0       0.0       0.0       0.5
 5 C  dz2            16.2       6.3       0.1       0.1       3.7      13.5
 5 C  dxz            12.6       0.5       1.2       0.4       1.5       4.1
 5 C  dyz             3.7      20.9       0.7       0.7       0.4       1.2
 5 C  dx2y2           4.5       2.4       4.3       0.0       0.6       1.1
 5 C  dxy             0.6       3.4       0.1       1.1       0.6       3.2
 8 H  s               0.0       0.0       0.3       0.1       0.0       0.0
 9 H  s               0.0       0.0       0.4       0.1       0.0       0.0
10 H  s               0.4       2.1       0.1       0.1       0.0       0.0
11 H  s               1.7       1.4       0.3       0.0       0.0       0.0
12 H  s               0.4       2.1       0.1       0.1       0.0       0.0
13 H  s               1.7       1.4       0.3       0.0       0.0       0.0

                     96        97        98        99   
                   2.75513   3.06847   3.29097   3.51930
                   0.00000   0.00000   0.00000   0.00000
                  --------  --------  --------  --------
 0 C  s               0.2       0.0       0.2       0.0
 0 C  px              0.1       0.0       0.5       0.0
 0 C  py              0.3       0.0       0.1       0.0
 0 C  dz2             0.0       0.0       0.3       0.0
 0 C  dxz             0.0       0.4       0.0       0.0
 0 C  dx2y2           3.5       0.0       1.9       0.1
 0 C  dxy             3.7       0.0       0.7       0.1
 1 C  s               0.8       0.0       0.0       7.1
 1 C  pz              0.0       1.0       0.0       0.0
 1 C  px              0.1       0.0       0.6       0.0
 1 C  py              0.1       0.0       0.1       7.2
 1 C  dz2             1.2       0.0       0.0       1.1
 1 C  dyz             0.0      19.0       0.0       0.0
 1 C  dx2y2          24.9       0.0       0.2       4.6
 1 C  dxy             0.1       0.0      28.2       0.3
 2 O  s               2.0       0.0       0.0       6.5
 2 O  pz              0.0       1.3       0.0       0.0
 2 O  px              0.0       0.0       1.5       0.0
 2 O  py              1.7       0.0       0.0       4.2
 2 O  dz2            29.8       0.0       0.0      16.4
 2 O  dyz             0.0      75.2       0.0       0.0
 2 O  dx2y2           2.5       0.0       0.0      51.4
 2 O  dxy             0.1       0.0      60.3       0.1
 3 C  s               0.9       0.0       0.3       0.1
 3 C  px              1.7       0.0       0.5       0.0
 3 C  py              0.4       0.0       0.1       0.2
 3 C  dz2             0.1       0.0       0.1       0.0
 3 C  dxz             0.0       2.0       0.0       0.0
 3 C  dx2y2           8.2       0.0       3.3       0.5
 3 C  dxy            12.3       0.0       0.5       0.1
 4 C  s               0.5       0.0       0.0       0.0
 4 C  pz              0.1       0.0       0.0       0.0
 4 C  px              0.2       0.0       0.0       0.0
 4 C  dxz             0.6       0.1       0.0       0.0
 4 C  dyz             0.2       0.0       0.1       0.0
 4 C  dxy             0.5       0.1       0.0       0.0
 5 C  s               0.5       0.0       0.0       0.0
 5 C  pz              0.1       0.0       0.0       0.0
 5 C  px              0.2       0.0       0.0       0.0
 5 C  dxz             0.6       0.1       0.0       0.0
 5 C  dyz             0.2       0.0       0.1       0.0
 5 C  dxy             0.5       0.1       0.0       0.0
 8 H  s               0.3       0.0       0.0       0.0
 9 H  s               0.4       0.0       0.1       0.0


                      *****************************
                      * MAYER POPULATION ANALYSIS *
                      *****************************

  NA   - Mulliken gross atomic population
  ZA   - Total nuclear charge
  QA   - Mulliken gross atomic charge
  VA   - Mayer's total valence
  BVA  - Mayer's bonded valence
  FA   - Mayer's free valence

  ATOM       NA         ZA         QA         VA         BVA        FA
  0 C      6.2712     6.0000    -0.2712     3.8461     3.8461     0.0000
  1 C      5.9598     6.0000     0.0402     4.3468     4.3468     0.0000
  2 O      8.1710     8.0000    -0.1710     2.3334     2.3334     0.0000
  3 C      6.1792     6.0000    -0.1792     3.8029     3.8029     0.0000
  4 C      6.1783     6.0000    -0.1783     3.9818     3.9818     0.0000
  5 C      6.1783     6.0000    -0.1783     3.9818     3.9818     0.0000
  6 H      0.8739     1.0000     0.1261     0.9551     0.9551    -0.0000
  7 H      0.8739     1.0000     0.1261     0.9551     0.9551    -0.0000
  8 H      0.8856     1.0000     0.1144     0.9837     0.9837     0.0000
  9 H      0.9177     1.0000     0.0823     0.9587     0.9587     0.0000
 10 H      0.8837     1.0000     0.1163     0.9458     0.9458     0.0000
 11 H      0.8719     1.0000     0.1281     0.9638     0.9638     0.0000
 12 H      0.8837     1.0000     0.1163     0.9458     0.9458     0.0000
 13 H      0.8719     1.0000     0.1281     0.9638     0.9638     0.0000

  Mayer bond orders larger than 0.100000
B(  0-C ,  1-C ) :   1.0770 B(  0-C ,  6-H ) :   0.9292 B(  0-C ,  7-H ) :   0.9292 
B(  0-C ,  8-H ) :   0.9356 B(  1-C ,  2-O ) :   2.1792 B(  1-C ,  3-C ) :   0.9722 
B(  3-C ,  4-C ) :   0.9616 B(  3-C ,  5-C ) :   0.9615 B(  3-C ,  9-H ) :   0.9213 
B(  4-C ,  5-C ) :   1.1002 B(  4-C , 10-H ) :   0.9293 B(  4-C , 11-H ) :   0.9209 
B(  5-C , 12-H ) :   0.9293 B(  5-C , 13-H ) :   0.9210 

-------
TIMINGS
-------

Total SCF time: 0 days 0 hours 0 min 0 sec 

Total time                  ....       0.788 sec
Sum of individual times     ....       0.775 sec  ( 98.4%)

SCF preparation             ....       0.025 sec  (  3.1%)
Fock matrix formation       ....       0.709 sec  ( 90.0%)
  Startup                   ....       0.001 sec  (  0.1% of F)
  Split-RI-J                ....       0.284 sec  ( 40.1% of F)
  XC integration            ....       0.417 sec  ( 58.9% of F)
    Basis function eval.    ....       0.188 sec  ( 44.9% of XC)
    Density eval.           ....       0.084 sec  ( 20.1% of XC)
    XC-Functional eval.     ....       0.041 sec  (  9.9% of XC)
    XC-Potential eval.      ....       0.083 sec  ( 19.8% of XC)
Diagonalization             ....       0.000 sec  (  0.0%)
Density matrix formation    ....       0.002 sec  (  0.2%)
Total Energy calculation    ....       0.000 sec  (  0.0%)
Population analysis         ....       0.027 sec  (  3.5%)
Orbital Transformation      ....       0.001 sec  (  0.1%)
Orbital Orthonormalization  ....       0.000 sec  (  0.0%)
DIIS solution               ....       0.001 sec  (  0.2%)
  MO trafo                  ....       0.000 sec  (  0.1 % of DIIS)
  Orb grad                  ....       0.000 sec  (  0.0 % of DIIS)
  Energy W gradient         ....       0.000 sec  (  0.0 % of DIIS)
  DIIS error                ....       0.000 sec  (  9.0 % of DIIS)
  DIIS work                 ....       0.001 sec  ( 88.9 % of DIIS)
  Form Q                    ....       0.000 sec  (  0.0 % of DIIS)
  Form QpQm                 ....       0.000 sec  (  0.0 % of DIIS)
  Exp/Cayley                ....       0.000 sec  (  0.0 % of DIIS)
  Orb update                ....       0.000 sec  (  0.0 % of DIIS)
  Wake-sleep                ....       0.000 sec  (  2.0 % of DIIS)
SOSCF solution              ....       0.010 sec  (  1.3%)
  MO trafo                  ....       0.008 sec  ( 80.1 % of SOSCF)
  Orb grad                  ....       0.000 sec  (  0.8 % of SOSCF)
  Rot update                ....       0.000 sec  (  3.4 % of SOSCF)
  Step                      ....       0.002 sec  ( 15.2 % of SOSCF)
Finished LeanSCF after   0.8 sec

Maximum memory used throughout the entire LEANSCF-calculation: 9.7 MB


-------------------------------------------------------------------------------
                          DFT DISPERSION CORRECTION                            
                                                                               
                                DFTD4 V3.4.0                                   
-------------------------------------------------------------------------------
The PBE functional is recognized
Active option DFTDOPT                   ...         5   

-------------------------   ----------------
Dispersion correction           -0.009973452
-------------------------   ----------------

------------------   -----------------
gCP correction             0.056648498
------------------   -----------------

-------------------------   --------------------
FINAL SINGLE POINT ENERGY      -269.935714215083
-------------------------   --------------------


------------------------------------------------------------------------------
                              ORCA PROPERTY CALCULATIONS
------------------------------------------------------------------------------

GBWName                                 ... sp.gbw
Number of atoms                         ...     14
Number of basis functions               ...    100
Max core memory                         ...   1024 MB

Electric properties:
Dipole moment                           ... YES
Quadrupole moment                       ...  NO
Static polarizability (Dipole/Dipole)   ...  NO
Static polarizability (Dipole/Quad.)    ...  NO
Static polarizability (Quad./Quad.)     ...  NO
Static polarizability (Velocity)        ...  NO

Atomic electric properties:
Dipole moment                           ...  NO
Quadrupole moment                       ...  NO
Static polarizability                   ...  NO

Choice of electric origin               ... Center of mass
Position of electric origin             ...    -0.000010     0.000021    -0.000000

General magnetic properties:
Magnetizability                         ...  NO

EPR properties:
g-Tensor (aka g-matrix)                 ...  NO
Zero-Field splitting spin-orbit         ...  NO
Zero-field splitting spin-spin          ...  NO
Hyperfine couplings                     ...  NO (   0 nuclei)
Quadrupole couplings                    ...  NO (   0 nuclei)
Contact density                         ...  NO (   0 nuclei)

NMR properties:
Chemical shifts                         ...  NO (   0 nuclei)
Spin-rotation constants                 ...  NO (   0 nuclei)
Spin-spin couplings                     ...  NO (   0 nuclei,    0 pairs)

Choice of magnetic origin               ... GIAO
Position of magnetic origin             ...     0.000000     0.000000     0.000000

Properties with geometric perturbations:
SCF Hessian                             ...  NO
IR spectrum                             ...  NO
VCD spectrum                            ...  NO
X-ray spectroscopy properties:
SCF XES/XAS/RIXS spectra                ...  NO


-------------
DIPOLE MOMENT
-------------

Method             : SCF
Type of density    : Electron Density
Multiplicity       :   1
Irrep              :   0
Energy             :  -269.9823892608710594 Eh
Relativity type    : 
Basis              : AO
                                X                 Y                 Z
Electronic contribution:      0.767166561      -3.002696768       0.000213403
Nuclear contribution   :     -0.999259157       4.008509665      -0.000505389
                        -----------------------------------------
Total Dipole Moment    :     -0.232092596       1.005812897      -0.000291986
                        -----------------------------------------
Magnitude (a.u.)       :      1.032243499
Magnitude (Debye)      :      2.623754462



--------------------
Rotational spectrum 
--------------------
 
Rotational constants in cm-1:             0.239197             0.088517             0.077105 
Rotational constants in MHz :          7170.943452          2653.684347          2311.564080 

Dipole components along the rotational axes: 
x,y,z [a.u.] :    -0.232085     1.005815    -0.000292 
x,y,z [Debye]:    -0.589913     2.556578    -0.000742 

 

Dipole moment calculation done in   0.0 sec 

Maximum memory used throughout the entire PROP-calculation: 6.3 MB

--------------------------------
SUGGESTED CITATIONS FOR THIS RUN
--------------------------------

Below you find a list of papers that are relevant to this ORCA run
We neither can nor want to force you to cite these papers, but we appreciate if you do
You receive ORCA, which is the product of decades of hard work by many enthusiastic individuals, for free
The only thing we kindly ask in return is that you cite our papers,
We deeply appreciate it, if you show your appreciation for ORCA by not just citing the generic ORCA reference.

Please note that relegating all ORCA citations to the supporting information does *not* help us.
SI sections are not indexed - citations you put there will not count into any citation statistics
But we need these citations in order to attract the funding resources that allow us to do what we are doing

Therefore, if you are a happy ORCA user, please consider citing a few of the papers listed below in the main body of your paper

In addition to the list printed below, the program has created the file sp.bibtex that contains the list in bibtex format
You can import this file easily into all common literature databanks and citation aid programs


List of essential papers. We consider these as the minimum necessary citations

  1. Neese,F.
     Software update: the ORCA program system, version 5.0
     WIRES Comput. Molec. Sci., 2022 12(1)e1606
     doi.org/10.1002/wcms.1606

List of papers to cite with high priority. The work reported in these papers was absolutely
necessary for this run to complete.
Our perspective: the developers of density functionals and basis sets usually get cited in chemistry papers
Good! But without the algorithms to do something with them, the functionals or basis sets would not do anything.
Hence, in our opinion, the algorithm design and method developments papers are equally worthy of getting cited

  1. Neese,F.
     An improvement of the resolution of the identity approximation for the formation of the Coulomb matrix
     J. Comp. Chem., 2003 24(14)1740-1747
     doi.org/10.1002/jcc.10318
  2. Neese,F.
     The SHARK Integral Generation and Digestion System
     J. Comp. Chem., 2022  1-16
     doi.org/10.1002/jcc.26942
  3. Caldeweyher,E.; Bannwarth,C.; Grimme,S.
     Extension of the D3 dispersion coefficient model
     J. Chem. Phys., 2017 147 034112
     doi.org/10.1063/1.4993215
  4. Caldeweyher,E.; Ehlert,S.; Hansen,A.; Neugebauer,H.; Spicher,S.; Bannwarth,C.; Grimme,S.
     A generally applicable atomic-charge dependent London dispersion correction
     J. Chem. Phys., 2019 150 154122
     doi.org/10.1063/1.5090222
  5. Caldeweyher,E.; Mewes,J.; Ehlert,S.; Grimme,S.
     Extension and evaluation of the D4 London-dispersion model for periodic systems
     Phys. Chem. Chem. Phys., 2020 22(16)8499-8512
     doi.org/10.1039/D0CP00502A
  6. Wittmann,L.; Gordiy,I.; Friede,M.; Helmich-Paris,B.; Grimme,S.; Hansen,A.; Bursch,M.
     Extension of the D3 and D4 London Dispersion Corrections to the full Actinides Series
     Phys. Chem. Chem. Phys., 2024 26(32)21379-21394
     doi.org/https://doi.org/10.1039/D4CP01514B 

List of suggested additional citations. These are papers that are important in the 'surrounding' of 
of this run, or papers that preceded the highly important papers. If you like your results we are grateful for a citation.

  1. Neese,F.
     The ORCA program system
     WIRES Comput. Molec. Sci., 2012 2(1)73-78
     doi.org/10.1002/wcms.81
  2. Neese,F.
     Software update: the ORCA program system, version 4.0
     WIRES Comput. Molec. Sci., 2018 8(1)1-6
     doi.org/10.1002/wcms.1327
  3. Neese,F.; Wennmohs,F.; Becker,U.; Riplinger,C.
     The ORCA quantum chemistry program package
     J. Chem. Phys., 2020 152 Art. No. L224108
     doi.org/10.1063/5.0004608

List of optional additional citations

  1. Neese,F.
     Approximate second-order SCF convergence for spin unrestricted wavefunctions
     Chem. Phys. Lett., 2000 325(1-3)93-98
     doi.org/10.1016/s0009-2614(00)00662-x

Timings for individual modules:

Sum of individual times          ...        1.100 sec (=   0.018 min)
Startup calculation              ...        0.170 sec (=   0.003 min)  15.4 %
SCF iterations                   ...        0.898 sec (=   0.015 min)  81.7 %
Property calculations            ...        0.032 sec (=   0.001 min)   2.9 %
                             ****ORCA TERMINATED NORMALLY****
TOTAL RUN TIME: 0 days 0 hours 0 minutes 1 seconds 169 msec
