
                                 *****************
                                 * O   R   C   A *
                                 *****************

                                            #,                                       
                                            ###                                      
                                            ####                                     
                                            #####                                    
                                            ######                                   
                                           ########,                                 
                                     ,,################,,,,,                         
                               ,,#################################,,                 
                          ,,##########################################,,             
                       ,#########################################, ''#####,          
                    ,#############################################,,   '####,        
                  ,##################################################,,,,####,       
                ,###########''''           ''''###############################       
              ,#####''   ,,,,##########,,,,          '''####'''          '####       
            ,##' ,,,,###########################,,,                        '##       
           ' ,,###''''                  '''############,,,                           
         ,,##''                                '''############,,,,        ,,,,,,###''
      ,#''                                            '''#######################'''  
     '                                                          ''''####''''         
             ,#######,   #######,   ,#######,      ##                                
            ,#'     '#,  ##    ##  ,#'     '#,    #''#        ,####,   ,####,        
            ##       ##  ##   ,#'  ##            #'  '#       #'       #'  '#        
            ##       ##  #######   ##           ,######,      #####,   #    #        
            '#,     ,#'  ##    ##  '#,     ,#' ,#      #,     #,   #   #,  ,#        
             '#######'   ##     ##  '#######'  #'      '#     '####' # '####'        



                #########################################################
                #                        -***-                          #
                #          Department of theory and spectroscopy        #
                #                                                       #
                #                      Frank Neese                      #
                #                                                       #
                #     Directorship, Architecture, Infrastructure        #
                #                    SHARK, DRIVERS                     #
                #        Core code/Algorithms in most modules           #
                #                                                       #
                #        Max Planck Institute fuer Kohlenforschung      #
                #                Kaiser Wilhelm Platz 1                 #
                #                 D-45470 Muelheim/Ruhr                 #
                #                      Germany                          #
                #                                                       #
                #                  All rights reserved                  #
                #                        -***-                          #
                #########################################################


                         Program Version 6.0.1  -  RELEASE   -


 With contributions from (in alphabetic order):
[Max-Planck-Institut fuer Kohlenforschung]                               
  Daniel Aravena         : Magnetic Suceptibility                        
  Michael Atanasov       : Ab Initio Ligand Field Theory (pilot matlab implementation)
  Alexander A. Auer      : GIAO ZORA, VPT2 properties, NMR spectrum      
  Ute Becker             : All parallelization in ORCA, NUMFREQ, NUMCALC 
  Giovanni Bistoni       : ED, misc. LED, open-shell LED, HFLD           
  Martin Brehm           : Molecular dynamics                            
  Dmytro Bykov           : pre 5.0 version of the SCF Hessian            
  Marcos Casanova-Páez   : Triplet and SCS-CIS(D). UHF-(DLPNO)-IP/EA/STEOM-CCSD. UHF-CVS-IP/STEOM-CCSD   
  Vijay G. Chilkuri      : MRCI spin determinant printing, contributions to CSF-ICE 
  Pauline Colinet        : FMM embedding                                 
  Dipayan Datta          : RHF DLPNO-CCSD density                        
  Achintya Kumar Dutta   : EOM-CC, STEOM-CC                              
  Nicolas Foglia         : Exact transition moments, OPA infrastructure, MCD improvements    
  Dmitry Ganyushin       : Spin-Orbit,Spin-Spin,Magnetic field MRCI      
  Miquel Garcia-Rates    : C-PCM and meta-GGA Hessian, CCSD/C-PCM, Gaussian charge scheme 
  Tiago L. C. Gouveia    : GS-ROHF, GS-ROCIS                             
  Yang Guo               : DLPNO-NEVPT2, F12-NEVPT2, CIM, IAO-localization        
  Andreas Hansen         : Spin unrestricted coupled pair/coupled cluster methods 
  Ingolf Harden          : AUTO-CI MPn and infrastructure                
  Benjamin Helmich-Paris : MC-RPA, TRAH-(SCF,CASSCF), AVAS, COSX integrals, SCF dyn. polar. 
  Lee Huntington         : MR-EOM, pCC                                   
  Robert Izsak           : Overlap fitted RIJCOSX, COSX-SCS-MP3, EOM     
  Riya Kayal             : Wick's Theorem for AUTO-CI, AUTO-CI UHF-CCSDT 
  Emily Kempfer          : AUTO-CI, RHF CISDT and CCSDT                  
  Christian Kollmar      : KDIIS, OOCD, Brueckner-CCSD(T), CCSD density, CASPT2, CASPT2-K, improved NEVPT2 
  Axel Koslowski         : Symmetry handling                             
  Simone Kossmann        : meta-GGA functionals, TD-DFT gradient, OOMP2, (MP2 Hessian; deprecated post 5.0) 
  Lucas Lang             : DCDCAS                                        
  Marvin Lechner         : AUTO-CI (C++ implementation), FIC-MRCC        
  Spencer Leger          : CASSCF response                               
  Dagmar Lenk            : GEPOL surface, SMD, ORCA-2-JSON               
  Dimitrios Liakos       : Extrapolation schemes; Compound Job, initial MDCI parallelization 
  Dimitrios Manganas     : Further ROCIS development; embedding schemes. LFT, Crystal Embedding 
  Dimitrios Pantazis     : SARC Basis sets                               
  Anastasios Papadopoulos: AUTO-CI, single reference methods and gradients 
  Taras Petrenko         : pre 6.0 DFT Hessian and TD-DFT gradient, (ASA, deprecated), ECA, 1-Electron XAS/XES, NRVS 
  Peter Pinski           : DLPNO-MP2, DLPNO-MP2 Gradient                 
  Christoph Reimann      : Effective Core Potentials                     
  Marius Retegan         : Local ZFS, SOC                                
  Christoph Riplinger    : Optimizer, TS searches, QM/MM, DLPNO-CCSD(T), (RO)-DLPNO pert. Triples 
  Michael Roemelt        : Original ROCIS implementation                 
  Masaaki Saitow         : Open-shell DLPNO-CCSD energy and density      
  Barbara Sandhoefer     : DKH picture change effects                    
  Kantharuban Sivalingam : CASSCF convergence/infrastructure, NEVPT2 and variants, FIC-MRCI 
  Bernardo de Souza      : ESD, SOC TD-DFT                               
  Georgi L. Stoychev     : AutoAux, RI-MP2 NMR, DLPNO-MP2 response, X2C  
  Van Anh Tran           : RI-MP2 g-tensors                              
  Willem Van den Heuvel  : Paramagnetic NMR                              
  Zikuan Wang            : NOTCH, Electric field optimization            
  Frank Wennmohs         : Technical directorship and infrastructure     
  Hang Xu                : AUTO-CI-Response properties                   
                                                                         
[FACCTs GmbH]                                                            
  Markus Bursch, Miquel Garcia-Rates, Christoph Riplinger, Bernardo de Souza, Georgi L. Stoychev 
                                                                 
  APM, Basis sets (HGBS, AHGBS, def-TZVP (Ac-Lr), def2-XVPD (La-Lu)), CI-OPT, improved COSX, DLPNO-Multilevel,           
  DOCKER, DRACO, updates on ESD, GOAT, IRC, LR-CPCM, MBIS, meta-GGA TD-DFT gradient, ML-optimized integration grids, 
  MM, NACMEs, nearIR, NEB, NEB-TS, NL-DFT gradient (VV10), 2- and 3-layer-ONIOM, interface openCOSMO-RS, QMMM,   
  Crystal-QMMM, SF, symmetry and pop. for TD-DFT, r2SCAN hybrids, SOLVATOR                                   
                                                                         
[Other institutions]                                                     
  V. Asgeirsson          : NEB                                           
  Christoph Bannwarth    : sTDA-DFT, sTD-DFT, PBEh-3c, B97-3c, D3        
  Sebastian Ehlert       : rSCAN, r2SCAN, r2SCAN-3c, D4, dhf basis sets  
  Marvin Friede          : D4 for Fr, Ra, Ac-Lr                          
  Lars Goerigk           : TD-DFT with DH, B97 family of functionals     
  Stefan Grimme          : VdW corrections, initial TS optimization, DFT functionals, gCP, sTDA/sTD-DF 
  Waldemar Hujo          : DFT-NL                                        
  H. Jonsson             : NEB                                           
  Holger Kruse           : gCP                                           
  Marcel Mueller         : wB97X-3c, vDZP basis set                      
  Hagen Neugebauer       : wr2SCAN                                       
  Tobias Risthaus        : range-separated hybrid DFT                    
  Lukas Wittmann         : regularized MP2, r2SCAN double-hybrids, wr2SCAN        
                                                                         
We gratefully acknowledge several colleagues who have allowed us to      
interface, adapt or use parts of their codes:                            
  Ed Valeev, F. Pavosevic, A. Kumar             : LibInt (2-el integral package), F12 methods 
  Garnet Chan, S. Sharma, J. Yang, R. Olivares  : DMRG                   
  Ulf Ekstrom                                   : XCFun DFT Library      
  Mihaly Kallay                                 : mrcc  (arbitrary order and MRCC methods)
  Frank Weinhold                                : gennbo (NPA and NBO analysis)           
  Simon Mueller                                 : openCOSMO-RS                            
  Christopher J. Cramer and Donald G. Truhlar   : smd solvation model                     
  S Lehtola, MJT Oliveira, MAL Marques          : LibXC Library                           
  Liviu Ungur et al                             : ANISO software                          


 Your calculation uses the libint2 library for the computation of 2-el integrals
 For citations please refer to: http://libint.valeyev.net

 Your ORCA version has been built with support for libXC version: 6.2.2
 For citations please refer to: https://libxc.gitlab.io

 This ORCA versions uses:
   CBLAS   interface :  Fast vector & matrix operations
   LAPACKE interface :  Fast linear algebra routines
   SCALAPACK package :  Parallel linear algebra routines
   Shared memory     :  Shared parallel matrices
   BLAS/LAPACK       :  OpenBLAS 0.3.27  USE64BITINT DYNAMIC_ARCH NO_AFFINITY Zen SINGLE_THREADED
        Core in use  :  Zen
   Copyright (c) 2011-2014, The OpenBLAS Project


Your calculation utilizes the geometrical counterpoise correction gCP
Please cite in your paper:
H.Kruse, S. Grimme J.Chem.Phys., 136, (2012), 154101 
   

Your calculation utilizes the atom-pairwise dispersion correction
based on EEQ partial charges (D4)


================================================================================

----- Orbital basis set information -----
Your calculation utilizes the basis: def2-SV(P)
   F. Weigend and R. Ahlrichs, Phys. Chem. Chem. Phys. 7, 3297 (2005).

----- AuxJ basis set information -----
Your calculation utilizes the auxiliary basis: def2/J
   F. Weigend, Phys. Chem. Chem. Phys. 8, 1057 (2006).

================================================================================
                                        WARNINGS
                       Please study these warnings very carefully!
================================================================================

WARNING: Old DensityContainer found on disk!
         Will remove this file - 
         If you want to keep old densities, please start your calculation with a different basename. 


================================================================================
                                       INPUT FILE
================================================================================
NAME = sp.inp
|  1> ! pbe def2-sv(p) def2/J RI DEFGRID1 loosescf d4 GCP(DFT/SV(P)) printgap
|  2> %output
|  3>     printlevel normal
|  4> end
|  5> * xyz 0 1
|  6> C 0.7867631937 1.4295193799 -0.4931512798
|  7> C 1.5961161787 0.1843983316 -0.0687075334
|  8> H 2.505150451 0.1609453377 -0.6841339995
|  9> C 0.7761813243 -1.1012484003 -0.318736454
| 10> H 1.2516363306 -1.9258236787 0.236083288
| 11> C -0.6584264422 -0.9112960278 0.2128601746
| 12> H -1.2453769587 -1.8125005985 0.0181432041
| 13> C -1.2747131845 0.3103773041 -0.491205861
| 14> H -1.1885870605 0.2197764154 -1.5807622969
| 15> O -0.5413425297 1.4321749292 -0.0167222145
| 16> O -2.6069550218 0.4823741986 -0.1983842154
| 17> O -0.6700443797 -0.6598830921 1.6002974409
| 18> O 0.6722170542 -1.4079640134 -1.6870233912
| 19> O 2.0460042517 0.2491174965 1.2597754463
| 20> H 0.7834905484 1.4891120791 -1.5894399564
| 21> H 1.2525672642 2.3242776432 -0.0769213578
| 22> H -2.7285981696 0.4517052783 0.761049728
| 23> H -0.6533270614 0.3100305939 1.6978924496
| 24> H 1.5434622528 -1.645075445 -2.0245267708
| 25> H 1.3337663115 -0.0418306134 1.8471652731
| 26> *
| 27> 
| 28>                          ****END OF INPUT****
================================================================================

                       ****************************
                       * Single Point Calculation *
                       ****************************

---------------------------------
CARTESIAN COORDINATES (ANGSTROEM)
---------------------------------
  C      0.786763    1.429519   -0.493151
  C      1.596116    0.184398   -0.068708
  H      2.505150    0.160945   -0.684134
  C      0.776181   -1.101248   -0.318736
  H      1.251636   -1.925824    0.236083
  C     -0.658426   -0.911296    0.212860
  H     -1.245377   -1.812501    0.018143
  C     -1.274713    0.310377   -0.491206
  H     -1.188587    0.219776   -1.580762
  O     -0.541343    1.432175   -0.016722
  O     -2.606955    0.482374   -0.198384
  O     -0.670044   -0.659883    1.600297
  O      0.672217   -1.407964   -1.687023
  O      2.046004    0.249117    1.259775
  H      0.783491    1.489112   -1.589440
  H      1.252567    2.324278   -0.076921
  H     -2.728598    0.451705    0.761050
  H     -0.653327    0.310031    1.697892
  H      1.543462   -1.645075   -2.024527
  H      1.333766   -0.041831    1.847165

----------------------------
CARTESIAN COORDINATES (A.U.)
----------------------------
  NO LB      ZA    FRAG     MASS         X           Y           Z
   0 C     6.0000    0    12.011    1.486767    2.701400   -0.931921
   1 C     6.0000    0    12.011    3.016222    0.348462   -0.129838
   2 H     1.0000    0     1.008    4.734048    0.304143   -1.292826
   3 C     6.0000    0    12.011    1.466770   -2.081058   -0.602325
   4 H     1.0000    0     1.008    2.365250   -3.639279    0.446133
   5 C     6.0000    0    12.011   -1.244246   -1.722100    0.402247
   6 H     1.0000    0     1.008   -2.353421   -3.425130    0.034286
   7 C     6.0000    0    12.011   -2.408859    0.586528   -0.928245
   8 H     1.0000    0     1.008   -2.246104    0.415317   -2.987208
   9 O     8.0000    0    15.999   -1.022989    2.706418   -0.031600
  10 O     8.0000    0    15.999   -4.926431    0.911555   -0.374892
  11 O     8.0000    0    15.999   -1.266200   -1.246998    3.024124
  12 O     8.0000    0    15.999    1.270306   -2.660666   -3.188012
  13 O     8.0000    0    15.999    3.866388    0.470764    2.380631
  14 H     1.0000    0     1.008    1.480583    2.814014   -3.003606
  15 H     1.0000    0     1.008    2.367009    4.392248   -0.145360
  16 H     1.0000    0     1.008   -5.156303    0.853599    1.438176
  17 H     1.0000    0     1.008   -1.234609    0.585873    3.208552
  18 H     1.0000    0     1.008    2.916721   -3.108742   -3.825801
  19 H     1.0000    0     1.008    2.520453   -0.079048    3.490636

--------------------------------
INTERNAL COORDINATES (ANGSTROEM)
--------------------------------
 C      0   0   0     0.000000000000     0.00000000     0.00000000
 C      1   0   0     1.544516485217     0.00000000     0.00000000
 H      2   1   0     1.098017798724   107.27868123     0.00000000
 C      2   1   3     1.545216860457   110.37795656   240.97779849
 H      4   2   1     1.101729004282   108.19387948   195.25641089
 C      4   2   1     1.541679708324   109.60092201   313.60061408
 H      6   4   2     1.092975427753   109.67599654   178.84224312
 C      6   4   2     1.538832044473   108.22367887    57.64224593
 H      8   6   4     1.096703905929   110.94762096    52.69360342
 O      1   2   3     1.410977150323   113.70114108   166.21934386
 O      8   6   4     1.374843904195   112.95144725   173.26888174
 O      6   4   2     1.410080000790   111.64870035   299.18287276
 O      4   2   1     1.406091099214   112.22115115    72.42727547
 O      2   1   3     1.404085067183   113.00140974   115.76676668
 H      1   2   3     1.097912046772   108.64594576    43.98438829
 H      1   2   3     1.091243845255   109.42080484   284.19607180
 H     11   8   6     0.967600707848   109.21071239    50.18422787
 H     12   6   4     0.974954774717   106.00542835    92.52849544
 H     13   4   2     0.963949458385   109.11957204    66.97182891
 H     14   2   1     0.967967197142   108.93749045    83.18497424

---------------------------
INTERNAL COORDINATES (A.U.)
---------------------------
 C      0   0   0     0.000000000000     0.00000000     0.00000000
 C      1   0   0     2.918713166386     0.00000000     0.00000000
 H      2   1   0     2.074952929760   107.27868123     0.00000000
 C      2   1   3     2.920036683782   110.37795656   240.97779849
 H      4   2   1     2.081966091892   108.19387948   195.25641089
 C      4   2   1     2.913352434957   109.60092201   313.60061408
 H      6   4   2     2.065424229558   109.67599654   178.84224312
 C      6   4   2     2.907971130155   108.22367887    57.64224593
 H      8   6   4     2.072470032207   110.94762096    52.69360342
 O      1   2   3     2.666360395330   113.70114108   166.21934386
 O      8   6   4     2.598078455820   112.95144725   173.26888174
 O      6   4   2     2.664665028412   111.64870035   299.18287276
 O      4   2   1     2.657127096859   112.22115115    72.42727547
 O      2   1   3     2.653336245704   113.00140974   115.76676668
 H      1   2   3     2.074753087532   108.64594576    43.98438829
 H      1   2   3     2.062152012858   109.42080484   284.19607180
 H     11   8   6     1.828500344820   109.21071239    50.18422787
 H     12   6   4     1.842397517175   106.00542835    92.52849544
 H     13   4   2     1.821600483289   109.11957204    66.97182891
 H     14   2   1     1.829192909218   108.93749045    83.18497424

---------------------
BASIS SET INFORMATION
---------------------
There are 3 groups of distinct atoms

 Group   1 Type C   : 7s4p1d contracted to 3s2p1d pattern {511/31/1}
 Group   2 Type H   : 4s contracted to 2s pattern {31}
 Group   3 Type O   : 7s4p1d contracted to 3s2p1d pattern {511/31/1}

Atom   0C    basis set group =>   1
Atom   1C    basis set group =>   1
Atom   2H    basis set group =>   2
Atom   3C    basis set group =>   1
Atom   4H    basis set group =>   2
Atom   5C    basis set group =>   1
Atom   6H    basis set group =>   2
Atom   7C    basis set group =>   1
Atom   8H    basis set group =>   2
Atom   9O    basis set group =>   3
Atom  10O    basis set group =>   3
Atom  11O    basis set group =>   3
Atom  12O    basis set group =>   3
Atom  13O    basis set group =>   3
Atom  14H    basis set group =>   2
Atom  15H    basis set group =>   2
Atom  16H    basis set group =>   2
Atom  17H    basis set group =>   2
Atom  18H    basis set group =>   2
Atom  19H    basis set group =>   2
---------------------------------
AUXILIARY/J BASIS SET INFORMATION
---------------------------------
There are 3 groups of distinct atoms

 Group   1 Type C   : 12s5p4d2f1g contracted to 6s4p3d1f1g pattern {711111/2111/211/2/1}
 Group   2 Type H   : 5s2p1d contracted to 3s1p1d pattern {311/2/1}
 Group   3 Type O   : 12s5p4d2f1g contracted to 6s4p3d1f1g pattern {711111/2111/211/2/1}

Atom   0C    basis set group =>   1
Atom   1C    basis set group =>   1
Atom   2H    basis set group =>   2
Atom   3C    basis set group =>   1
Atom   4H    basis set group =>   2
Atom   5C    basis set group =>   1
Atom   6H    basis set group =>   2
Atom   7C    basis set group =>   1
Atom   8H    basis set group =>   2
Atom   9O    basis set group =>   3
Atom  10O    basis set group =>   3
Atom  11O    basis set group =>   3
Atom  12O    basis set group =>   3
Atom  13O    basis set group =>   3
Atom  14H    basis set group =>   2
Atom  15H    basis set group =>   2
Atom  16H    basis set group =>   2
Atom  17H    basis set group =>   2
Atom  18H    basis set group =>   2
Atom  19H    basis set group =>   2

Checking for AutoStart:
The File: sp.gbw exists
Trying to determine its content:
     ... Fine, the file contains calculation information
     ... Fine, the calculation information was read
     ... Fine, the file contains a basis set
     ... Fine, the basis set was read
     ... Fine, the file contains a geometry
     ... Fine, the geometry was read
     ... Fine, the file contains a set of orbitals
     ... Fine, the orbitals can be read
     => possible old guess file was deleted
     => GBW file was renamed to GES file
     => GES file is set as startup file
     => Guess is set to MORead
     ... now leaving AutoStart

------------------------------------------------------------------------------
                             ORCA STARTUP CALCULATIONS
                           -- RI-GTO INTEGRALS CHOSEN --
------------------------------------------------------------------------------
------------------------------------------------------------------------------
                   ___                                                        
                  /   \      - P O W E R E D   B Y -                         
                 /     \                                                     
                 |  |  |   _    _      __       _____    __    __             
                 |  |  |  | |  | |    /  \     |  _  \  |  |  /  |          
                  \  \/   | |  | |   /    \    | | | |  |  | /  /          
                 / \  \   | |__| |  /  /\  \   | |_| |  |  |/  /          
                |  |  |   |  __  | /  /__\  \  |    /   |      \           
                |  |  |   | |  | | |   __   |  |    \   |  |\   \          
                \     /   | |  | | |  |  |  |  | |\  \  |  | \   \       
                 \___/    |_|  |_| |__|  |__|  |_| \__\ |__|  \__/        
                                                                              
                      - O R C A' S   B I G   F R I E N D -                    
                                      &                                       
                       - I N T E G R A L  F E E D E R -                       
                                                                              
 v1 FN, 2020, v2 2021, v3 2022-2024                                           
------------------------------------------------------------------------------


----------------------
SHARK INTEGRAL PACKAGE
----------------------

Number of atoms                             ...     20
Number of basis functions                   ...    160
Number of shells                            ...     80
Maximum angular momentum                    ...      2
Integral batch strategy                     ... SHARK/LIBINT Hybrid
RI-J (if used) integral strategy            ... SPLIT-RIJ (Revised 2003 algorithm where possible)
Printlevel                                  ...      1
Contraction scheme used                     ... SEGMENTED contraction
Prescreening option                         ... SCHWARTZ
   Thresh                                   ... 1.000e-09
   Tcut                                     ... 1.000e-10
   Tpresel                                  ... 1.000e-10 
Coulomb Range Separation                    ... NOT USED
Exchange Range Separation                   ... NOT USED
Multipole approximations                    ... NOT USED
Finite Nucleus Model                        ... NOT USED
CABS basis                                  ... NOT available
Auxiliary Coulomb fitting basis             ... AVAILABLE
   # of basis functions in Aux-J            ...    600
   # of shells in Aux-J                     ...    200
   Maximum angular momentum in Aux-J        ...      4
Auxiliary J/K fitting basis                 ... NOT available
Auxiliary Correlation fitting basis         ... NOT available
Auxiliary 'external' fitting basis          ... NOT available

Checking pre-screening integrals            ... done (  0.0 sec) Dimension = 80
Check shell pair data                       ... done (  0.0 sec)
Shell pair information
Shell pair cut-off parameter TPreSel        ...   1.0e-10
Total number of shell pairs                 ...      3240
Shell pairs after pre-screening             ...      3075
Total number of primitive shell pairs       ...     13040
Primitive shell pairs kept                  ...      8647
          la=0 lb=0:   1192 shell pairs
          la=1 lb=0:    966 shell pairs
          la=1 lb=1:    208 shell pairs
          la=2 lb=0:    462 shell pairs
          la=2 lb=1:    195 shell pairs
          la=2 lb=2:     52 shell pairs

Calculating one electron integrals          ... done (  0.0 sec)
Calculating RI/J V-Matrix + Cholesky decomp.... done (  0.0 sec)
Calculating Nuclear repulsion               ... done (  0.0 sec) ENN=    637.037385379495 Eh

Diagonalization of the overlap matrix:
Smallest eigenvalue                        ... 1.079e-03
Time for diagonalization                   ...    0.003 sec
Threshold for overlap eigenvalues          ... 1.000e-07
Number of eigenvalues below threshold      ... 0
Time for construction of square roots      ...    0.001 sec
Total time needed                          ...    0.005 sec

-------------------
DFT GRID GENERATION
-------------------

General Integration Accuracy     IntAcc      ... 4.159
Radial Grid Type                 RadialGrid  ... OptM3 with GC (2021)
Angular Grid (max. ang.)         AngularGrid ... 3 (Lebedev-194)
Angular grid pruning method      GridPruning ... 4 (adaptive)
Weight generation scheme         WeightScheme... mBecke (2022)
Basis function cutoff            BFCut       ... 1.0000e-10
Integration weight cutoff        WCut        ... 1.0000e-14
Partially contracted basis set               ... off
Rotationally invariant grid construction     ... off
Angular grids for H and He will be reduced by one unit

Total number of grid points                  ...    46437
Total number of batches                      ...      738
Average number of points per batch           ...       62
Average number of grid points per atom       ...     2322
Initializing property integral containers    ... done (  0.0 sec)

SHARK setup successfully completed in   0.5 seconds

Maximum memory used throughout the entire STARTUP-calculation: 23.8 MB
-------------------------------------------------------------------------------
                                 ORCA GUESS
                   Start orbitals & Density for SCF / CASSCF
-------------------------------------------------------------------------------

------------
SCF SETTINGS
------------
Hamiltonian:
 Density Functional     Method          .... DFT(GTOs)
 Exchange Functional    Exchange        .... PBE
   PBE kappa parameter   XKappa         ....  0.804000
   PBE mue parameter    XMuePBE         ....  0.219520
 Correlation Functional Correlation     .... PBE
   PBE beta parameter  CBetaPBE         ....  0.066725
 LDA part of GGA corr.  LDAOpt          .... PW91-LDA
 Gradients option       PostSCFGGA      .... off
   NL short-range parameter             ....  6.400000
 RI-approximation to the Coulomb term is turned on
   Number of AuxJ basis functions       .... 600


General Settings:
 Integral files         IntName         .... sp
 Hartree-Fock type      HFTyp           .... RHF
 Total Charge           Charge          ....    0
 Multiplicity           Mult            ....    1
 Number of Electrons    NEL             ....   80
 Basis Dimension        Dim             ....  160
 Nuclear Repulsion      ENuc            ....    637.0373853795 Eh

Convergence Acceleration:
 AO-DIIS                CNVDIIS         .... on
   Start iteration      DIISMaxIt       ....    12
   Startup error        DIISStart       ....  0.200000
   # of expansion vecs  DIISMaxEq       ....     5
   Bias factor          DIISBfac        ....   1.050
   Max. coefficient     DIISMaxC        ....  10.000
 MO-DIIS                CNVKDIIS        .... off
 Trust-Rad. Augm. Hess. CNVTRAH         .... auto
   Auto Start mean grad. ratio tolernc. ....  1.125000
   Auto Start start iteration           ....     1
   Auto Start num. interpolation iter.  ....    10
   Max. Number of Micro iterations      ....    24
   Max. Number of Macro iterations      .... Maxiter - #DIIS iter
   Number of Davidson start vectors     ....     2
   Converg. threshold    (grad. norm)   ....   1.000e-04
   Grad. Scal. Fac. for Micro threshold ....   0.100
   Minimum threshold for Micro iter.    ....   1.000e-02
   NR start threshold (gradient norm)   ....   1.000e-04
   Initial trust radius                 ....   0.400
   Minimum AH scaling param. (alpha)    ....   1.000
   Maximum AH scaling param. (alpha)    .... 1000.000
   Quad. conv. algorithm                .... NR
   White noise on init. David. guess    .... on
   Maximum white noise                  ....   0.010
   Pseudo random numbers                .... off
   Inactive MOs                         .... canonical
   Orbital update algorithm             .... Taylor
   Preconditioner                       .... Diag
   Full preconditioner red. dimension   ....   250
 SOSCF                  CNVSOSCF        .... on
   Start iteration      SOSCFMaxIt      ....   150
   Startup grad/error   SOSCFStart      ....  0.003300
   Hessian update       SOSCFHessUp     .... L-BFGS
 Level Shifting         CNVShift        .... on
   Level shift para.    LevelShift      ....    0.2500
   Turn off err/grad.   ShiftErr        ....    0.0010
 Zerner damping         CNVZerner       .... off
 Static damping         CNVDamp         .... on
   Fraction old density DampFac         ....    0.7000
   Max. Damping (<1)    DampMax         ....    0.9800
   Min. Damping (>=0)   DampMin         ....    0.0000
   Turn off err/grad.   DampErr         ....    0.1000

SCF Procedure:
 Maximum # iterations   MaxIter         ....   125
 SCF integral mode      SCFMode         .... Direct
   Integral package                     .... SHARK and LIBINT hybrid scheme
 Reset frequency        DirectResetFreq ....    20
 Integral Threshold     Thresh          ....  1.000e-09 Eh
 Primitive CutOff       TCut            ....  1.000e-10 Eh

Convergence Tolerance:
 Convergence Check Mode ConvCheckMode   .... Total+1el-Energy
 Convergence forced     ConvForced      .... 0
 Energy Change          TolE            ....  1.000e-05 Eh
 1-El. energy change                    ....  1.000e-02 Eh
 Orbital Gradient       TolG            ....  1.000e-04
 Orbital Rotation angle TolX            ....  1.000e-04
 DIIS Error             TolErr          ....  5.000e-04

---------------------
INITIAL GUESS: MOREAD
---------------------
Guess MOs are being read from file: sp.ges
Input Geometry matches current geometry (good)
Input basis set matches current basis set (good)
Occupation numbers will be reassigned to an Aufbau configuration
MOs were renormalized
MOs were reorthogonalized (Cholesky)
                      ------------------
                      INITIAL GUESS DONE (   0.0 sec)
                      ------------------
             **** ENERGY FILE WAS UPDATED (sp.en.tmp) ****
Finished Guess after   0.1 sec
Maximum memory used throughout the entire GUESS-calculation: 11.9 MB

-------------------------------------------------------------------------------------------
                                      ORCA LEAN-SCF
                              memory conserving SCF solver
-------------------------------------------------------------------------------------------

----------------------------------------D-I-I-S--------------------------------------------
Iteration    Energy (Eh)           Delta-E    RMSDP     MaxDP     DIISErr   Damp  Time(sec)
-------------------------------------------------------------------------------------------
               ***  Starting incremental Fock matrix formation  ***
                              *** Initializing SOSCF ***
---------------------------------------S-O-S-C-F--------------------------------------
Iteration    Energy (Eh)           Delta-E    RMSDP     MaxDP     MaxGrad    Time(sec)
--------------------------------------------------------------------------------------
    1    -571.5247894146335739     0.00e+00  1.92e-05  3.43e-04  1.97e-05     0.7
               *** Restarting incremental Fock matrix formation ***
    2    -571.5247894880291142    -7.34e-08  3.05e-05  6.09e-04  7.39e-05     0.7
    3    -571.5247885764293869     9.12e-07  2.05e-05  4.64e-04  1.41e-04     0.6
                 **** Energy Check signals convergence ****

               *****************************************************
               *                     SUCCESS                       *
               *           SCF CONVERGED AFTER   3 CYCLES          *
               *****************************************************

             **** ENERGY FILE WAS UPDATED (sp.en.tmp) ****

----------------
TOTAL SCF ENERGY
----------------

Total Energy       :       -571.52478857642939 Eh          -15551.98014 eV

Components:
Nuclear Repulsion  :        637.03738537949482 Eh           17334.66853 eV
Electronic Energy  :      -1208.56217395592421 Eh          -32886.64868 eV
One Electron Energy:      -2047.70814870836284 Eh          -55720.97153 eV
Two Electron Energy:        839.14597475243863 Eh           22834.32285 eV

Virial components:
Potential Energy   :      -1139.14528033734587 Eh          -30997.71897 eV
Kinetic Energy     :        567.62049176091637 Eh           15445.73883 eV
Virial Ratio       :          2.00687835776225

DFT components:
N(Alpha)           :       39.999956627657 electrons
N(Beta)            :       39.999956627657 electrons
N(Total)           :       79.999913255313 electrons
E(X)               :      -70.503194625998 Eh       
E(C)               :       -2.738102036978 Eh       
E(XC)              :      -73.241296662976 Eh       

---------------
SCF CONVERGENCE
---------------

  Last Energy change         ...   -9.1160e-07  Tolerance :   1.0000e-05
  Last MAX-Density change    ...    4.6426e-04  Tolerance :   1.0000e-03
  Last RMS-Density change    ...    2.0549e-05  Tolerance :   1.0000e-04
  Last DIIS Error            ...    3.0222e-04  Tolerance :   5.0000e-04
  Last Orbital Gradient      ...    1.4094e-04  Tolerance :   1.0000e-04
  Last Orbital Rotation      ...    6.4182e-05  Tolerance :   1.0000e-04


----------------
ORBITAL ENERGIES
----------------

  NO   OCC          E(Eh)            E(eV) 
   0   2.0000     -18.779698      -511.0216 
   1   2.0000     -18.778195      -510.9807 
   2   2.0000     -18.769942      -510.7561 
   3   2.0000     -18.767953      -510.7020 
   4   2.0000     -18.752260      -510.2749 
   5   2.0000      -9.990047      -271.8430 
   6   2.0000      -9.950739      -270.7734 
   7   2.0000      -9.948770      -270.7198 
   8   2.0000      -9.947291      -270.6796 
   9   2.0000      -9.939368      -270.4640 
  10   2.0000      -0.998248       -27.1637 
  11   2.0000      -0.952104       -25.9081 
  12   2.0000      -0.942886       -25.6572 
  13   2.0000      -0.932390       -25.3716 
  14   2.0000      -0.921635       -25.0790 
  15   2.0000      -0.702387       -19.1129 
  16   2.0000      -0.679161       -18.4809 
  17   2.0000      -0.596002       -16.2180 
  18   2.0000      -0.589784       -16.0488 
  19   2.0000      -0.544671       -14.8212 
  20   2.0000      -0.515786       -14.0353 
  21   2.0000      -0.491174       -13.3655 
  22   2.0000      -0.471858       -12.8399 
  23   2.0000      -0.453265       -12.3340 
  24   2.0000      -0.441190       -12.0054 
  25   2.0000      -0.434292       -11.8177 
  26   2.0000      -0.404568       -11.0089 
  27   2.0000      -0.382046       -10.3960 
  28   2.0000      -0.372838       -10.1454 
  29   2.0000      -0.364150        -9.9090 
  30   2.0000      -0.332718        -9.0537 
  31   2.0000      -0.326237        -8.8774 
  32   2.0000      -0.303861        -8.2685 
  33   2.0000      -0.300380        -8.1738 
  34   2.0000      -0.292683        -7.9643 
  35   2.0000      -0.261343        -7.1115 
  36   2.0000      -0.255704        -6.9581 
  37   2.0000      -0.242681        -6.6037 
  38   2.0000      -0.227249        -6.1838 
  39   2.0000      -0.207278        -5.6403 
  40   0.0000       0.004826         0.1313 
  41   0.0000       0.018293         0.4978 
  42   0.0000       0.049865         1.3569 
  43   0.0000       0.059855         1.6287 
  44   0.0000       0.072094         1.9618 
  45   0.0000       0.076600         2.0844 
  46   0.0000       0.083943         2.2842 
  47   0.0000       0.103313         2.8113 
  48   0.0000       0.113747         3.0952 
  49   0.0000       0.121271         3.2999 
  50   0.0000       0.129106         3.5132 
*Only the first 10 virtual orbitals were printed.

                    ********************************
                    * MULLIKEN POPULATION ANALYSIS *
                    ********************************

-----------------------
MULLIKEN ATOMIC CHARGES
-----------------------
   0 C :    0.067091
   1 C :    0.002935
   2 H :    0.061440
   3 C :    0.024794
   4 H :    0.080818
   5 C :    0.033633
   6 H :    0.091433
   7 C :    0.122503
   8 H :    0.088227
   9 O :   -0.316490
  10 O :   -0.356135
  11 O :   -0.429280
  12 O :   -0.410827
  13 O :   -0.420500
  14 H :    0.070682
  15 H :    0.102663
  16 H :    0.298760
  17 H :    0.292949
  18 H :    0.307743
  19 H :    0.287562
Sum of atomic charges:    0.0000000

--------------------------------
MULLIKEN REDUCED ORBITAL CHARGES
--------------------------------
  0 C s       :     3.010945  s :     3.010945
      pz      :     1.001192  p :     2.860727
      px      :     0.784744
      py      :     1.074791
      dz2     :     0.015098  d :     0.061237
      dxz     :     0.012110
      dyz     :     0.003894
      dx2y2   :     0.015259
      dxy     :     0.014876

  1 C s       :     3.065127  s :     3.065127
      pz      :     0.825446  p :     2.863308
      px      :     1.036914
      py      :     1.000948
      dz2     :     0.017311  d :     0.068630
      dxz     :     0.018937
      dyz     :     0.014648
      dx2y2   :     0.008624
      dxy     :     0.009110

  2 H s       :     0.938560  s :     0.938560

  3 C s       :     3.071756  s :     3.071756
      pz      :     0.756803  p :     2.836249
      px      :     1.079895
      py      :     0.999551
      dz2     :     0.018954  d :     0.067201
      dxz     :     0.012556
      dyz     :     0.017526
      dx2y2   :     0.007753
      dxy     :     0.010412

  4 H s       :     0.919182  s :     0.919182

  5 C s       :     3.076910  s :     3.076910
      pz      :     0.750046  p :     2.824031
      px      :     1.037908
      py      :     1.036077
      dz2     :     0.020602  d :     0.065425
      dxz     :     0.015584
      dyz     :     0.012314
      dx2y2   :     0.006563
      dxy     :     0.010363

  6 H s       :     0.908567  s :     0.908567

  7 C s       :     3.070468  s :     3.070468
      pz      :     1.088043  p :     2.706628
      px      :     0.770966
      py      :     0.847619
      dz2     :     0.020305  d :     0.100401
      dxz     :     0.014768
      dyz     :     0.011039
      dx2y2   :     0.025258
      dxy     :     0.029030

  8 H s       :     0.911773  s :     0.911773

  9 O s       :     3.767354  s :     3.767354
      pz      :     1.703240  p :     4.533524
      px      :     1.281571
      py      :     1.548713
      dz2     :     0.002148  d :     0.015612
      dxz     :     0.003158
      dyz     :     0.002708
      dx2y2   :     0.004183
      dxy     :     0.003414

 10 O s       :     3.759132  s :     3.759132
      pz      :     1.332962  p :     4.580887
      px      :     1.384216
      py      :     1.863710
      dz2     :     0.008185  d :     0.016116
      dxz     :     0.001794
      dyz     :     0.000506
      dx2y2   :     0.003472
      dxy     :     0.002158

 11 O s       :     3.791758  s :     3.791758
      pz      :     1.391202  p :     4.621672
      px      :     1.856192
      py      :     1.374278
      dz2     :     0.006281  d :     0.015850
      dxz     :     0.001983
      dyz     :     0.001794
      dx2y2   :     0.005002
      dxy     :     0.000790

 12 O s       :     3.787092  s :     3.787092
      pz      :     1.322971  p :     4.608307
      px      :     1.441412
      py      :     1.843924
      dz2     :     0.004326  d :     0.015428
      dxz     :     0.003690
      dyz     :     0.001796
      dx2y2   :     0.003937
      dxy     :     0.001679

 13 O s       :     3.775295  s :     3.775295
      pz      :     1.214230  p :     4.629705
      px      :     1.568868
      py      :     1.846608
      dz2     :     0.002063  d :     0.015500
      dxz     :     0.006769
      dyz     :     0.001853
      dx2y2   :     0.002541
      dxy     :     0.002274

 14 H s       :     0.929318  s :     0.929318

 15 H s       :     0.897337  s :     0.897337

 16 H s       :     0.701240  s :     0.701240

 17 H s       :     0.707051  s :     0.707051

 18 H s       :     0.692257  s :     0.692257

 19 H s       :     0.712438  s :     0.712438


------------------------
MULLIKEN OVERLAP CHARGES
------------------------
B(  0-C ,  1-C ) :   0.5464 B(  0-C ,  2-H ) :  -0.0562 B(  0-C ,  5-C ) :  -0.0591 
B(  0-C ,  9-O ) :   0.6521 B(  0-C , 13-O ) :  -0.1011 B(  0-C , 14-H ) :   0.6008 
B(  0-C , 15-H ) :   0.6972 B(  1-C ,  2-H ) :   0.6346 B(  1-C ,  3-C ) :   0.3321 
B(  1-C ,  4-H ) :  -0.1570 B(  1-C ,  7-C ) :  -0.1123 B(  1-C ,  9-O ) :  -0.0818 
B(  1-C , 12-O ) :  -0.0761 B(  1-C , 13-O ) :   0.5851 B(  1-C , 19-H ) :  -0.1116 
B(  2-H ,  3-C ) :  -0.0702 B(  2-H , 13-O ) :  -0.0514 B(  3-C ,  4-H ) :   0.7280 
B(  3-C ,  5-C ) :   0.0926 B(  3-C ,  6-H ) :  -0.0724 B(  3-C ,  9-O ) :  -0.0542 
B(  3-C , 11-O ) :  -0.1207 B(  3-C , 12-O ) :   0.5244 B(  3-C , 18-H ) :  -0.0671 
B(  4-H ,  5-C ) :  -0.0846 B(  5-C ,  6-H ) :   0.6775 B(  5-C ,  7-C ) :   0.4817 
B(  5-C ,  8-H ) :  -0.1552 B(  5-C , 10-O ) :  -0.0732 B(  5-C , 11-O ) :   0.5671 
B(  5-C , 12-O ) :  -0.1325 B(  5-C , 17-H ) :  -0.1436 B(  6-H ,  7-C ) :  -0.0622 
B(  6-H , 11-O ) :  -0.0597 B(  7-C ,  8-H ) :   0.7245 B(  7-C ,  9-O ) :   0.4024 
B(  7-C , 10-O ) :   0.7167 B(  7-C , 16-H ) :  -0.0656 B(  8-H ,  9-O ) :  -0.0717 
B(  8-H , 10-O ) :  -0.0665 B(  9-O , 10-O ) :  -0.1228 B(  9-O , 14-H ) :  -0.0671 
B(  9-O , 17-H ) :   0.1015 B( 10-O , 16-H ) :   0.5226 B( 11-O , 17-H ) :   0.4830 
B( 11-O , 19-H ) :   0.0976 B( 12-O , 18-H ) :   0.5267 B( 13-O , 19-H ) :   0.5365 
B( 14-H , 15-H ) :  -0.0506 


                     *******************************
                     * LOEWDIN POPULATION ANALYSIS *
                     *******************************

----------------------
LOEWDIN ATOMIC CHARGES
----------------------
   0 C :   -0.125402
   1 C :   -0.090286
   2 H :    0.111459
   3 C :   -0.082171
   4 H :    0.104696
   5 C :   -0.085577
   6 H :    0.121801
   7 C :   -0.008820
   8 H :    0.111930
   9 O :   -0.166262
  10 O :   -0.278804
  11 O :   -0.313004
  12 O :   -0.315014
  13 O :   -0.321130
  14 H :    0.107195
  15 H :    0.122312
  16 H :    0.282385
  17 H :    0.264373
  18 H :    0.291459
  19 H :    0.268859

-------------------------------
LOEWDIN REDUCED ORBITAL CHARGES
-------------------------------
  0 C s       :     2.929150  s :     2.929150
      pz      :     1.086287  p :     3.056430
      px      :     0.871624
      py      :     1.098520
      dz2     :     0.035767  d :     0.139822
      dxz     :     0.026267
      dyz     :     0.008778
      dx2y2   :     0.033187
      dxy     :     0.035822

  1 C s       :     2.897410  s :     2.897410
      pz      :     0.902186  p :     3.033849
      px      :     1.060133
      py      :     1.071529
      dz2     :     0.039796  d :     0.159028
      dxz     :     0.042366
      dyz     :     0.031610
      dx2y2   :     0.018500
      dxy     :     0.026756

  2 H s       :     0.888541  s :     0.888541

  3 C s       :     2.900536  s :     2.900536
      pz      :     0.874723  p :     3.022788
      px      :     1.087599
      py      :     1.060466
      dz2     :     0.045577  d :     0.158847
      dxz     :     0.027810
      dyz     :     0.039931
      dx2y2   :     0.019410
      dxy     :     0.026118

  4 H s       :     0.895304  s :     0.895304

  5 C s       :     2.903059  s :     2.903059
      pz      :     0.865715  p :     3.027901
      px      :     1.072000
      py      :     1.090186
      dz2     :     0.047603  d :     0.154617
      dxz     :     0.036288
      dyz     :     0.027095
      dx2y2   :     0.018553
      dxy     :     0.025078

  6 H s       :     0.878199  s :     0.878199

  7 C s       :     2.887151  s :     2.887151
      pz      :     1.094186  p :     2.896831
      px      :     0.862872
      py      :     0.939773
      dz2     :     0.047268  d :     0.224837
      dxz     :     0.029266
      dyz     :     0.026362
      dx2y2   :     0.056144
      dxy     :     0.065797

  8 H s       :     0.888070  s :     0.888070

  9 O s       :     3.484508  s :     3.484508
      pz      :     1.728266  p :     4.652030
      px      :     1.343552
      py      :     1.580212
      dz2     :     0.003814  d :     0.029724
      dxz     :     0.006086
      dyz     :     0.004101
      dx2y2   :     0.008373
      dxy     :     0.007349

 10 O s       :     3.521061  s :     3.521061
      pz      :     1.411925  p :     4.729151
      px      :     1.463131
      py      :     1.854095
      dz2     :     0.014604  d :     0.028591
      dxz     :     0.003580
      dyz     :     0.000705
      dx2y2   :     0.006451
      dxy     :     0.003252

 11 O s       :     3.537469  s :     3.537469
      pz      :     1.453515  p :     4.748151
      px      :     1.854672
      py      :     1.439963
      dz2     :     0.011944  d :     0.027384
      dxz     :     0.003104
      dyz     :     0.003238
      dx2y2   :     0.008115
      dxy     :     0.000983

 12 O s       :     3.533578  s :     3.533578
      pz      :     1.400483  p :     4.754194
      px      :     1.510070
      py      :     1.843640
      dz2     :     0.008803  d :     0.027242
      dxz     :     0.006733
      dyz     :     0.003321
      dx2y2   :     0.006003
      dxy     :     0.002383

 13 O s       :     3.528002  s :     3.528002
      pz      :     1.295753  p :     4.766015
      px      :     1.621924
      py      :     1.848338
      dz2     :     0.005129  d :     0.027114
      dxz     :     0.012307
      dyz     :     0.003617
      dx2y2   :     0.003188
      dxy     :     0.002873

 14 H s       :     0.892805  s :     0.892805

 15 H s       :     0.877688  s :     0.877688

 16 H s       :     0.717615  s :     0.717615

 17 H s       :     0.735627  s :     0.735627

 18 H s       :     0.708541  s :     0.708541

 19 H s       :     0.731141  s :     0.731141


---------------------------------
LOEWDIN BOND ORDERS (THRESH 0.050000)
---------------------------------
B(  0-C ,  1-C ) :   1.0564 B(  0-C ,  3-C ) :   0.0530 B(  0-C ,  7-C ) :   0.0697 
B(  0-C ,  9-O ) :   1.1601 B(  0-C , 13-O ) :   0.0778 B(  0-C , 14-H ) :   0.8955 
B(  0-C , 15-H ) :   0.9100 B(  1-C ,  2-H ) :   0.8724 B(  1-C ,  3-C ) :   1.0155 
B(  1-C ,  5-C ) :   0.0524 B(  1-C ,  9-O ) :   0.0619 B(  1-C , 12-O ) :   0.0809 
B(  1-C , 13-O ) :   1.2317 B(  3-C ,  4-H ) :   0.8719 B(  3-C ,  5-C ) :   1.0150 
B(  3-C ,  7-C ) :   0.0568 B(  3-C , 11-O ) :   0.0740 B(  3-C , 12-O ) :   1.2135 
B(  3-C , 13-O ) :   0.0776 B(  5-C ,  6-H ) :   0.8761 B(  5-C ,  7-C ) :   1.0193 
B(  5-C ,  9-O ) :   0.0716 B(  5-C , 10-O ) :   0.0758 B(  5-C , 11-O ) :   1.2065 
B(  5-C , 12-O ) :   0.0626 B(  7-C ,  8-H ) :   0.8707 B(  7-C ,  9-O ) :   1.1266 
B(  7-C , 10-O ) :   1.3260 B(  7-C , 11-O ) :   0.0668 B(  9-O , 10-O ) :   0.0793 
B(  9-O , 17-H ) :   0.0691 B( 10-O , 16-H ) :   0.8686 B( 11-O , 17-H ) :   0.8424 
B( 11-O , 19-H ) :   0.0684 B( 12-O , 18-H ) :   0.8811 B( 13-O , 19-H ) :   0.8613 


------------------------------------------
LOEWDIN REDUCED ORBITAL POPULATIONS PER MO
-------------------------------------------
THRESHOLD FOR PRINTING IS 0.1%%
                      0         1         2         3         4         5   
                 -18.77970 -18.77820 -18.76994 -18.76795 -18.75226  -9.99005
                   2.00000   2.00000   2.00000   2.00000   2.00000   2.00000
                  --------  --------  --------  --------  --------  --------
 7 C  s               0.0       0.0       0.0       0.0       0.0      99.6
 9 O  s              99.9       0.0       0.0       0.0       0.0       0.0
10 O  s               0.0       0.0       0.0      99.9       0.0       0.0
10 O  px              0.0       0.0       0.0       0.0       0.0       0.1
11 O  s               0.0      99.9       0.0       0.0       0.0       0.0
12 O  s               0.0       0.0      99.9       0.0       0.0       0.0
13 O  s               0.0       0.0       0.0       0.0      99.9       0.0

                      6         7         8         9        10        11   
                  -9.95074  -9.94877  -9.94729  -9.93937  -0.99825  -0.95210
                   2.00000   2.00000   2.00000   2.00000   2.00000   2.00000
                  --------  --------  --------  --------  --------  --------
 0 C  s               0.0       0.0       0.0      99.6       3.6       0.0
 0 C  pz              0.0       0.0       0.0       0.0       0.4       0.0
 0 C  px              0.0       0.0       0.0       0.0       2.8       0.6
 0 C  py              0.0       0.0       0.1       0.0       0.2       0.2
 0 C  dx2y2           0.0       0.0       0.0       0.0       0.2       0.0
 1 C  s               0.0       0.0      99.5       0.0       1.0       2.6
 1 C  pz              0.0       0.0       0.0       0.0       0.0       0.4
 1 C  px              0.0       0.0       0.0       0.0       0.4       0.0
 1 C  py              0.1       0.0       0.0       0.1       0.0       0.6
 2 H  s               0.0       0.0       0.1       0.0       0.1       0.4
 3 C  s              99.6       0.0       0.0       0.0       1.1       7.9
 3 C  pz              0.0       0.0       0.0       0.0       0.0       2.8
 3 C  px              0.0       0.1       0.0       0.0       0.3       0.0
 3 C  py              0.0       0.0       0.1       0.0       0.2       0.0
 3 C  dz2             0.0       0.0       0.0       0.0       0.0       0.3
 4 H  s               0.1       0.0       0.0       0.0       0.2       1.1
 5 C  s               0.0      99.5       0.0       0.0       4.9       2.5
 5 C  pz              0.0       0.0       0.0       0.0       0.5       0.9
 5 C  px              0.1       0.0       0.0       0.0       0.0       1.2
 5 C  py              0.0       0.0       0.0       0.0       2.1       0.1
 5 C  dz2             0.0       0.0       0.0       0.0       0.1       0.1
 6 H  s               0.0       0.1       0.0       0.0       0.6       0.3
 7 C  s               0.0       0.0       0.0       0.0      13.9       1.7
 7 C  pz              0.0       0.0       0.0       0.0       2.1       0.0
 7 C  px              0.0       0.0       0.0       0.0       0.1       1.6
 7 C  py              0.0       0.1       0.0       0.0       1.4       1.2
 7 C  dz2             0.0       0.0       0.0       0.0       0.1       0.0
 8 H  s               0.0       0.0       0.0       0.0       1.6       0.1
 9 O  s               0.0       0.0       0.0       0.0      23.4       2.3
 9 O  pz              0.0       0.0       0.0       0.0       0.4       0.1
 9 O  px              0.0       0.0       0.0       0.1       0.0       0.0
 9 O  py              0.0       0.0       0.0       0.0       1.4       0.1
10 O  s               0.0       0.0       0.0       0.0      15.3       9.1
10 O  pz              0.0       0.0       0.0       0.0       0.2       0.2
10 O  px              0.0       0.0       0.0       0.0       1.6       0.4
11 O  s               0.0       0.0       0.0       0.0       9.1      10.5
11 O  pz              0.0       0.1       0.0       0.0       0.6       0.4
11 O  py              0.0       0.0       0.0       0.0       0.3       0.2
12 O  s               0.0       0.0       0.0       0.0       0.8      29.7
12 O  pz              0.1       0.0       0.0       0.0       0.1       0.8
12 O  px              0.0       0.0       0.0       0.0       0.0       1.0
13 O  s               0.0       0.0       0.0       0.0       0.8       5.9
13 O  pz              0.0       0.0       0.1       0.0       0.0       0.1
13 O  px              0.0       0.0       0.0       0.0       0.1       0.3
14 H  s               0.0       0.0       0.0       0.1       0.4       0.0
15 H  s               0.0       0.0       0.0       0.1       0.4       0.0
16 H  s               0.0       0.0       0.0       0.0       3.4       1.6
17 H  s               0.0       0.0       0.0       0.0       3.0       1.9
18 H  s               0.0       0.0       0.0       0.0       0.2       6.1
19 H  s               0.0       0.0       0.0       0.0       0.4       1.7

                     12        13        14        15        16        17   
                  -0.94289  -0.93239  -0.92163  -0.70239  -0.67916  -0.59600
                   2.00000   2.00000   2.00000   2.00000   2.00000   2.00000
                  --------  --------  --------  --------  --------  --------
 0 C  s               0.6       3.7       1.6       1.4      18.5       0.2
 0 C  pz              0.0       0.6       0.1       0.1       0.0       0.5
 0 C  px              0.4       0.7       3.4       1.3       1.2       4.2
 0 C  py              0.0       0.2       0.1       1.8       0.0       1.8
 0 C  dxz             0.0       0.0       0.1       0.0       0.0       0.1
 0 C  dx2y2           0.0       0.1       0.2       0.1       0.0       0.1
 1 C  s               0.2       5.5       2.7       8.0       8.4       5.8
 1 C  pz              0.3       4.1       4.0       1.5       2.1       1.0
 1 C  px              0.1       0.1       0.9       1.6       0.3       1.3
 1 C  py              0.0       0.5       0.1       0.8       2.3       1.5
 1 C  dz2             0.0       0.3       0.3       0.2       0.1       0.0
 2 H  s               0.1       0.6       0.3       1.5       2.4       3.4
 3 C  s               2.2       0.3       0.0      14.9       0.0       4.2
 3 C  pz              5.2       1.4       0.2       2.1       0.0       0.8
 3 C  px              0.3       0.5       0.3       1.0       2.9       1.8
 3 C  py              0.2       0.8       0.1       1.8       0.9       2.5
 3 C  dz2             0.3       0.1       0.0       0.2       0.0       0.0
 4 H  s               0.2       0.0       0.0       2.5       0.0       2.0
 5 C  s               2.8       0.9       0.1      12.3       5.0       1.3
 5 C  pz              7.9       0.4       0.1       2.8       1.6       0.2
 5 C  px              0.1       0.1       0.1       1.8       0.3       2.8
 5 C  py              0.2       0.0       0.0       0.0       0.3       4.2
 5 C  dz2             0.5       0.1       0.0       0.1       0.0       0.0
 5 C  dyz             0.1       0.0       0.0       0.0       0.0       0.0
 6 H  s               0.2       0.2       0.0       2.5       1.2       0.8
 7 C  s               0.6       0.2       0.1       1.7       9.3       9.8
 7 C  pz              0.2       0.1       0.0       0.0       0.0       1.3
 7 C  px              0.1       4.2       8.6       0.7       1.3       0.1
 7 C  py              1.0       1.2       0.8       3.9       0.3       0.0
 7 C  dxz             0.0       0.1       0.2       0.0       0.1       0.0
 7 C  dx2y2           0.0       0.2       0.4       0.0       0.1       0.0
 7 C  dxy             0.0       0.2       0.2       0.1       0.0       0.0
 8 H  s               0.2       0.0       0.0       0.5       1.9       4.1
 9 O  s               3.3      10.2      15.6       2.7       0.3       2.2
 9 O  pz              0.1       0.2       0.2       0.1       0.0       0.3
 9 O  px              0.0       0.7       0.6       0.1       9.0       3.7
 9 O  py              0.1       0.1       0.2       0.3       2.8       3.0
 9 O  dx2y2           0.0       0.0       0.0       0.0       0.1       0.0
10 O  s               1.9      11.1      21.4       0.1       2.8       1.5
10 O  pz              0.0       0.3       0.6       0.1       1.4       6.3
10 O  px              0.1       0.3       0.4       0.1       2.4       6.7
10 O  py              0.0       0.0       0.1       0.1       0.0       0.0
10 O  dz2             0.0       0.0       0.0       0.0       0.1       0.1
11 O  s              34.1       4.0       0.7       2.9       1.5       0.2
11 O  pz              1.0       0.2       0.0       2.1       1.0       0.7
11 O  px              0.0       0.0       0.0       0.0       0.0       0.2
11 O  py              0.8       0.1       0.0       1.4       0.3       1.7
12 O  s              21.6       6.1       0.1       4.5       0.0       0.1
12 O  pz              0.4       0.1       0.0       3.8       0.0       2.9
12 O  px              0.9       0.2       0.0       1.5       0.2       1.0
12 O  py              0.0       0.0       0.0       0.6       0.0       0.0
13 O  s               0.1      26.9      24.0       2.7       2.2       0.3
13 O  pz              0.0       0.3       0.2       1.8       2.3       4.5
13 O  px              0.0       1.2       1.0       0.1       0.1       0.4
13 O  py              0.0       0.1       0.1       0.0       0.2       0.3
14 H  s               0.1       0.4       0.2       0.4       3.8       0.3
15 H  s               0.1       0.6       0.1       0.2       4.6       0.0
16 H  s               0.2       2.3       4.2       0.1       1.8       4.1
17 H  s               6.4       0.5       0.2       1.9       0.6       0.7
18 H  s               4.4       1.3       0.0       3.1       0.0       1.0
19 H  s               0.2       5.0       4.6       1.3       1.1       1.5

                     18        19        20        21        22        23   
                  -0.58978  -0.54467  -0.51579  -0.49117  -0.47186  -0.45326
                   2.00000   2.00000   2.00000   2.00000   2.00000   2.00000
                  --------  --------  --------  --------  --------  --------
 0 C  s               9.3       1.8       0.0       0.2       0.5       1.3
 0 C  pz              0.2       0.9       0.0       1.6      12.4       1.2
 0 C  px              0.1       0.1       0.5       0.0       2.8       9.2
 0 C  py              1.9       0.3       2.6       1.8       0.3       1.9
 0 C  dxz             0.0       0.0       0.0       0.0       0.1       0.0
 0 C  dx2y2           0.0       0.0       0.0       0.1       0.0       0.2
 1 C  s               3.0       2.4       0.0       0.0       0.0       0.1
 1 C  pz              0.1       0.4       0.2       1.7       4.3       0.6
 1 C  px              0.1       3.5       1.4       9.4       0.9       0.5
 1 C  py              8.2       0.0       1.4       2.0       1.1       1.9
 1 C  dz2             0.0       0.0       0.0       0.1       0.0       0.0
 1 C  dx2y2           0.0       0.0       0.0       0.0       0.0       0.1
 1 C  dxy             0.2       0.0       0.0       0.0       0.0       0.0
 2 H  s               1.3       2.0       0.1       0.7       0.9       0.0
 3 C  s               6.4       2.1       1.1       0.2       0.2       0.3
 3 C  pz              0.3       1.3       2.3       7.3       3.1       0.0
 3 C  px              5.6       0.3       2.5       2.4       0.2       0.1
 3 C  py              0.2       0.1       3.7       3.0       0.1       1.6
 3 C  dz2             0.0       0.0       0.0       0.2       0.1       0.0
 3 C  dxz             0.0       0.1       0.0       0.1       0.0       0.0
 4 H  s               2.6       0.3       4.0       0.6       0.5       0.7
 5 C  s               6.5       3.3       0.1       0.0       0.2       0.1
 5 C  pz              0.2       3.1       4.6       1.6       3.2       0.2
 5 C  px              4.3       1.6       0.2       1.9       0.0       0.1
 5 C  py              0.3       0.3       7.1       1.7       1.6       0.2
 5 C  dz2             0.0       0.0       0.1       0.0       0.2       0.1
 6 H  s               3.7       1.7       0.3       1.4       0.0       0.0
 7 C  s               0.7       0.9       0.0       0.1       0.0       0.2
 7 C  pz              0.5       6.1       4.0       0.0       0.1      19.8
 7 C  px              0.1       1.0       9.9       0.3       1.3       3.1
 7 C  py              7.1       0.0       2.8       0.2       8.8       0.4
 7 C  dyz             0.2       0.0       0.0       0.0       0.1       0.0
 7 C  dx2y2           0.0       0.1       0.1       0.0       0.1       0.0
 8 H  s               0.8       3.0       0.4       0.0       0.0       9.0
 9 O  s               1.8       1.2       0.9       1.0       0.1       0.2
 9 O  pz              0.5       0.8       0.8       0.6       4.4      10.1
 9 O  px              6.4       1.0       0.0       0.0      12.3       4.9
 9 O  py              0.9       0.2       5.1       1.7       1.9       0.0
10 O  s               0.0       0.1       0.3       0.0       0.0       1.1
10 O  pz              0.5       5.0      15.2       0.0       1.9       0.2
10 O  px              0.1       1.1       4.8       0.0       0.6      11.1
10 O  py              0.7       0.0       0.1       0.0       2.3       0.0
10 O  dz2             0.0       0.0       0.1       0.0       0.0       0.1
11 O  s               0.2       0.5       1.3       0.2       1.0       1.6
11 O  pz              3.0       8.6       0.5       1.4       0.9       1.2
11 O  px              0.2       0.5       0.1       1.5       0.1       0.0
11 O  py              2.9       6.7       9.2       0.6       8.4       1.3
11 O  dz2             0.1       0.2       0.0       0.0       0.0       0.0
12 O  s               1.0       0.1       0.2       0.5       0.1       0.1
12 O  pz              2.8       7.1       0.0      11.0       3.2       1.3
12 O  px              0.0       3.4       1.0      10.5       2.0       0.2
12 O  py              0.3       1.1       0.7       0.5       1.0       0.3
12 O  dz2             0.0       0.1       0.0       0.1       0.0       0.0
13 O  s               0.9       0.0       0.0       0.7       0.6       0.1
13 O  pz              2.1       9.1       0.7      11.4       3.4       3.4
13 O  px              0.1       1.1       0.2       4.5       0.3       0.8
13 O  py              0.3       0.2       0.1       1.8       0.0       0.2
14 H  s               3.2       1.6       0.0       0.8       6.0       0.0
15 H  s               4.2       0.6       0.2       0.3       0.0       5.3
16 H  s               0.2       1.4       5.6       0.0       0.7       1.4
17 H  s               1.8       3.7       2.4       0.6       2.5       0.4
18 H  s               0.7       3.4       0.2       6.0       1.8       0.0
19 H  s               0.5       3.6       0.2       4.6       0.6       0.9

                     24        25        26        27        28        29   
                  -0.44119  -0.43429  -0.40457  -0.38205  -0.37284  -0.36415
                   2.00000   2.00000   2.00000   2.00000   2.00000   2.00000
                  --------  --------  --------  --------  --------  --------
 0 C  s               0.7       0.4       0.3       0.3       0.3       0.1
 0 C  pz              6.8       0.4       0.8       5.5      12.8       0.2
 0 C  px              0.2       3.5       1.0       0.3       4.7       1.3
 0 C  py              5.8       0.1       4.3       7.7       5.8       6.7
 0 C  dz2             0.1       0.0       0.0       0.0       0.2       0.0
 0 C  dxz             0.0       0.2       0.0       0.0       0.0       0.1
 0 C  dyz             0.0       0.0       0.0       0.1       0.2       0.0
 0 C  dx2y2           0.0       0.1       0.0       0.0       0.0       0.2
 0 C  dxy             0.1       0.0       0.1       0.0       0.0       0.0
 1 C  s               0.7       0.4       1.5       0.0       0.1       0.3
 1 C  pz              0.0       8.7       4.1       0.6       3.3       4.7
 1 C  px              5.6       1.7       0.1       3.6       3.2       5.5
 1 C  py              0.7       6.7       1.5       5.7       0.2       4.3
 1 C  dz2             0.0       0.0       0.0       0.0       0.1       0.0
 1 C  dxz             0.0       0.1       0.2       0.0       0.3       0.0
 1 C  dx2y2           0.0       0.0       0.0       0.1       0.0       0.2
 1 C  dxy             0.0       0.0       0.0       0.2       0.0       0.1
 2 H  s               0.6       4.5       2.5       2.3       4.3       5.5
 3 C  s               0.8       0.0       0.3       0.0       0.0       0.0
 3 C  pz              3.5       4.8       0.6       0.7       0.1       0.1
 3 C  px              1.8       9.1       2.4       5.0       0.2       2.0
 3 C  py             10.0       1.6       0.2       8.7       0.0       5.7
 3 C  dz2             0.2       0.0       0.2       0.0       0.0       0.0
 3 C  dxz             0.0       0.0       0.0       0.0       0.0       0.1
 3 C  dx2y2           0.0       0.0       0.0       0.3       0.0       0.0
 3 C  dxy             0.1       0.1       0.1       0.0       0.0       0.1
 4 H  s               8.9       0.3       0.4       4.4       0.0       0.8
 5 C  s               0.3       0.0       1.1       1.1       0.0       0.2
 5 C  pz              3.4       0.0       4.8       0.5       0.2       0.1
 5 C  px              1.0      14.6       0.2       5.6       0.9       3.4
 5 C  py              0.4       0.1      19.8       0.5       2.0       0.7
 5 C  dz2             0.3       0.0       0.3       0.0       0.2       0.0
 5 C  dxy             0.0       0.0       0.2       0.0       0.0       0.1
 6 H  s               1.3       1.2      13.9       0.4       2.0       1.1
 7 C  s               0.8       0.0       0.7       0.7       1.3       0.3
 7 C  pz              0.0       0.8       0.7       0.6       7.1       0.4
 7 C  px              2.1       0.5       0.4       0.6       2.4       0.0
 7 C  py              0.5       4.6       0.7       0.1       0.3       0.1
 7 C  dz2             0.0       0.0       0.1       0.0       0.4       0.1
 7 C  dxz             0.0       0.0       0.0       0.0       0.0       0.1
 7 C  dyz             0.0       0.1       0.1       0.0       0.0       0.0
 7 C  dx2y2           0.2       0.0       0.1       0.0       0.1       0.3
 7 C  dxy             0.0       0.0       0.0       0.2       0.0       0.0
 8 H  s               0.5       0.2       0.0       0.8       7.4       1.2
 9 O  s               0.1       0.6       1.5       0.9       0.3       0.1
 9 O  pz              1.5       0.1       1.2       0.2       3.1       0.0
 9 O  px              1.1       3.1       1.6       1.6       0.6       5.4
 9 O  py              0.0       2.1       0.4       9.7       1.0       3.3
10 O  s               0.8       0.3       0.2       0.1       0.1       1.8
10 O  pz              4.8       0.1       0.6       0.6       0.2       5.3
10 O  px              0.6       0.5       0.5       0.1       6.3       0.8
10 O  py              0.1       2.9       0.5       0.4       0.2       0.1
11 O  s               0.2       0.0       0.2       0.8       0.0       0.7
11 O  pz              3.1       0.1      12.9       1.2       0.9       3.1
11 O  px              0.6       4.5       0.2       3.4       1.4       2.4
11 O  py              5.4       0.1       0.1       3.2       0.9       2.6
12 O  s               1.4       0.7       0.0       0.8       0.2       0.2
12 O  pz              0.5       2.8       4.1       6.6       0.1       0.3
12 O  px              3.8       1.3       0.0       2.2       0.5       0.1
12 O  py              3.9       2.6       0.2       2.6       0.1       3.4
13 O  s               0.2       0.1       0.5       0.1       0.1       1.7
13 O  pz              0.1       7.2       3.2       0.0       4.9       3.5
13 O  px              1.9       0.2       1.4       2.2       0.1       9.7
13 O  py              0.3       2.2       0.0       2.4       0.2       2.2
14 H  s               4.7       0.0       1.0       2.6       7.3       0.0
15 H  s               1.5       1.5       1.1       0.3       8.6       4.9
16 H  s               1.7       0.0       0.1       0.3       0.7       1.2
17 H  s               2.1       0.1       1.7       0.4       0.3       0.3
18 H  s               1.6       0.2       0.6       0.0       0.0       0.1
19 H  s               0.1       1.5       1.9       0.0       0.9       0.1

                     30        31        32        33        34        35   
                  -0.33272  -0.32624  -0.30386  -0.30038  -0.29268  -0.26134
                   2.00000   2.00000   2.00000   2.00000   2.00000   2.00000
                  --------  --------  --------  --------  --------  --------
 0 C  s               0.0       0.0       0.1       0.1       0.2       0.1
 0 C  pz              0.4       0.3       0.0       1.0       5.5       0.0
 0 C  px              0.3       0.1       0.5       0.2       1.4       0.1
 0 C  py              0.1       0.4       2.8       0.3       2.5       0.0
 0 C  dz2             0.0       0.0       0.0       0.0       0.3       0.1
 0 C  dxy             0.0       0.0       0.5       0.0       0.2       0.2
 1 C  s               0.1       0.7       0.1       0.1       0.0       0.7
 1 C  pz              0.7       0.0       0.2       0.7       0.1       0.2
 1 C  px              1.8       0.2       0.6       3.4       1.3       0.0
 1 C  py              0.0       0.0       2.3       0.5       1.1       0.1
 1 C  dz2             0.0       0.0       0.0       0.3       0.0       0.0
 1 C  dxz             0.1       0.2       0.0       0.2       0.1       0.1
 1 C  dyz             0.1       0.1       0.1       0.0       0.0       0.0
 2 H  s               2.3       0.7       0.0       2.2       1.5       0.6
 3 C  s               0.2       0.7       0.1       1.1       0.1       0.3
 3 C  pz              2.3       0.5       0.0       2.7       0.2       0.1
 3 C  px              0.2       1.8       0.4       1.1       0.0       2.8
 3 C  py              1.0       3.2       0.0       0.7       0.2       0.3
 3 C  dz2             0.0       0.0       0.0       0.1       0.0       0.2
 3 C  dxz             0.2       0.3       0.1       0.1       0.0       0.0
 3 C  dyz             0.0       0.0       0.0       0.3       0.0       0.3
 4 H  s               1.5       1.7       0.1       2.4       0.9       0.8
 5 C  s               1.1       0.2       0.0       0.3       0.2       0.4
 5 C  pz              0.2       2.7       0.9       0.3       0.1       1.3
 5 C  px              0.7       2.7       0.7       0.3       0.0       0.7
 5 C  py              0.6       0.0       0.6       0.2       2.0       5.0
 5 C  dxz             0.0       0.0       0.0       0.2       0.0       0.5
 5 C  dyz             0.2       0.2       0.1       0.0       0.1       0.0
 5 C  dx2y2           0.0       0.0       0.1       0.0       0.0       0.1
 5 C  dxy             0.2       0.0       0.0       0.0       0.1       0.1
 6 H  s               2.6       0.3       0.1       0.0       2.1       3.7
 7 C  s               0.8       0.2       0.0       0.1       0.2       0.0
 7 C  pz              0.8       1.2       4.8       0.2       0.1       0.5
 7 C  px              0.7       0.2       2.9       0.0       0.0       0.1
 7 C  py              1.0       0.0       0.5       0.7       5.2       0.5
 7 C  dz2             0.0       0.1       0.4       0.0       0.1       0.1
 7 C  dxz             0.2       0.0       0.5       0.0       0.1       0.0
 7 C  dyz             0.0       0.0       0.0       0.0       0.0       0.2
 7 C  dxy             0.0       0.0       0.1       0.0       0.0       0.4
 8 H  s               0.0       1.6       4.6       0.4       0.6       1.2
 9 O  s               0.1       0.2       0.1       0.1       4.7       0.0
 9 O  pz              0.0       0.3       0.3       0.6      18.1       5.8
 9 O  px              2.1       0.1       0.3       0.0       5.1       0.6
 9 O  py              0.2       0.3      14.8       0.4       7.6       8.4
10 O  s               2.7       0.1       4.7       0.0       0.1       0.1
10 O  pz              9.6       0.7      14.2       0.2       0.9       0.7
10 O  px             12.4       2.9      12.8       0.0       4.5       0.1
10 O  py              3.5       0.0       0.4       1.9      13.8       4.1
11 O  s               1.9       2.5       1.1       0.0       0.5       0.7
11 O  pz              6.1      13.9       6.2       0.2       1.2       1.1
11 O  px              1.7       0.6       0.0      22.5       0.0      25.9
11 O  py              8.0       6.5       3.9       0.3       4.0       0.6
12 O  s               2.8       3.3       0.4       1.2       0.0       0.1
12 O  pz              5.1       1.3       0.2       9.8       0.0       0.8
12 O  px             15.6      17.9       1.7       6.2       0.0       0.1
12 O  py              1.4       3.1       0.0       2.1       0.0      23.8
13 O  s               0.2       2.9       0.2       3.9       0.3       0.1
13 O  pz              0.4       0.3       0.2       3.8       0.1       0.4
13 O  px              0.0      13.4       0.0      21.0       0.2       2.3
13 O  py              1.3       3.7       7.5       1.1       2.4       0.2
14 H  s               0.4       0.2       0.0       0.4       4.9       0.6
15 H  s               0.1       0.6       2.9       0.5       3.2       0.1
16 H  s               0.9       0.1       2.6       0.2       0.1       0.2
17 H  s               1.3       0.6       0.6       0.1       0.6       0.6
18 H  s               0.8       2.0       0.2       0.4       0.0       0.3
19 H  s               0.6       1.3       0.1       1.9       0.3       0.4

                     36        37        38        39        40        41   
                  -0.25570  -0.24268  -0.22725  -0.20728   0.00483   0.01829
                   2.00000   2.00000   2.00000   2.00000   0.00000   0.00000
                  --------  --------  --------  --------  --------  --------
 0 C  s               0.3       0.2       0.0       0.7       0.1       0.5
 0 C  pz              0.5       0.4       0.0       1.6       0.3       1.0
 0 C  px              0.1       1.1       0.2       1.4       0.0       2.4
 0 C  py              0.8       0.1       0.0       4.3       0.1       0.2
 0 C  dz2             0.3       0.1       0.0       0.3       0.0       0.1
 0 C  dxz             0.2       0.0       0.0       0.1       0.0       0.2
 0 C  dx2y2           0.0       0.1       0.0       0.0       0.1       0.2
 0 C  dxy             0.0       0.0       0.1       0.3       0.1       0.0
 1 C  s               0.1       0.5       0.4       0.0       0.5       0.9
 1 C  pz              0.1       0.4       0.3       0.0       0.5       1.3
 1 C  px              0.0       3.2       2.1       0.4       1.2       1.3
 1 C  py              0.2       0.7       0.8       8.2       0.4       0.1
 1 C  dz2             0.0       0.1       0.1       0.0       0.3       0.0
 1 C  dxz             0.1       0.2       0.0       0.1       0.0       0.0
 1 C  dyz             0.2       0.2       0.2       0.5       0.1       0.0
 1 C  dx2y2           0.0       0.0       0.1       0.0       0.0       0.4
 1 C  dxy             0.2       0.0       0.0       0.3       0.1       0.0
 2 H  s               0.1       1.4       1.0       0.9       2.5       6.9
 3 C  s               0.5       0.0       0.1       0.4       0.4       1.0
 3 C  pz              0.4       0.3       0.2       0.2       4.3       0.3
 3 C  px              0.0       0.1       9.3       0.1       0.2       0.8
 3 C  py              0.1       2.4       0.6       2.8       0.5       0.6
 3 C  dz2             0.0       0.0       0.1       0.1       0.9       0.0
 3 C  dxz             0.0       0.0       0.1       0.0       0.1       0.1
 3 C  dyz             0.1       0.6       0.1       0.2       0.1       0.0
 3 C  dx2y2           0.0       0.1       0.1       0.0       0.0       0.1
 3 C  dxy             0.0       0.2       0.0       0.3       0.0       0.1
 4 H  s               0.3       4.0       0.2       3.1       2.4       4.5
 5 C  s               0.0       0.2       0.1       0.2       0.3       0.2
 5 C  pz              0.1       0.5       0.5       0.5       2.9       1.2
 5 C  px              0.1       0.1       7.3       0.7       0.0       0.2
 5 C  py              0.0       1.2       1.5       1.7       0.0       0.9
 5 C  dz2             0.0       0.0       0.0       0.0       0.7       0.1
 5 C  dxz             0.0       0.0       0.7       0.0       0.0       0.0
 5 C  dyz             0.0       0.1       0.0       0.0       0.2       0.0
 5 C  dx2y2           0.0       0.0       0.1       0.0       0.1       0.0
 5 C  dxy             0.0       0.1       0.1       0.1       0.0       0.1
 6 H  s               0.0       0.8       1.1       0.4       0.1       1.4
 7 C  s               0.2       0.1       0.2       0.0       0.3       0.2
 7 C  pz              0.7       0.9       1.1       0.6       0.1       0.5
 7 C  px              0.1       0.3       0.3       0.1       0.4       0.0
 7 C  py              0.5       0.8       1.4       0.9       0.2       0.8
 7 C  dz2             0.4       0.0       0.1       0.2       0.1       0.0
 7 C  dxz             0.0       0.0       0.0       0.0       0.1       0.0
 7 C  dyz             0.1       0.0       0.1       0.1       0.1       0.2
 7 C  dx2y2           0.0       0.0       0.3       0.2       0.0       0.0
 7 C  dxy             0.9       0.5       0.2       0.1       0.0       0.0
[...]
11 O  dxy             0.1       0.0       0.2       0.0       0.2       0.0
12 O  s               0.1       1.4       0.1       0.1       0.0       1.7
12 O  pz              0.0       0.0       0.0       0.0       0.0       1.9
12 O  px              0.0       0.2       0.1       0.0       0.0       0.2
12 O  py              0.0       0.0       0.1       0.0       0.0       0.1
12 O  dz2             0.0       0.0       0.4       0.6       0.5      28.7
12 O  dxz             2.4      15.7       7.5       3.1       0.0       0.5
12 O  dyz             0.1       4.5       0.9       0.3       0.1       1.8
12 O  dx2y2           0.1       6.4       3.7       1.4       0.0       0.2
12 O  dxy             0.7       3.2       2.3       1.2       0.0       0.0
13 O  s               0.6       0.5       0.1       0.1       0.0       1.3
13 O  pz              0.0       0.0       0.1       0.1       0.0       2.1
13 O  px              0.2       0.2       0.1       0.1       0.0       0.0
13 O  py              0.1       0.0       0.1       0.0       0.0       0.1
13 O  dz2             4.6       0.1       1.4       0.2       0.0      20.6
13 O  dxz             8.5       0.5       5.6       2.4       0.2       9.8
13 O  dyz             0.0       0.6      16.6       4.7       0.3       0.0
13 O  dx2y2           2.1       2.2       2.1       1.6       0.1       0.0
13 O  dxy             5.4       1.2       0.0       0.0       0.0       0.4
16 H  s               2.1       1.5       0.0       0.2       0.6       0.0
17 H  s               1.5       1.4       0.0       0.5       0.0       0.0
18 H  s               0.1       2.0       0.8       0.3       0.0       0.3
19 H  s               1.7       0.5       1.3       0.6       0.0       0.4

                    156       157       158       159   
                   3.28082   3.30821   3.36075   3.41583
                   0.00000   0.00000   0.00000   0.00000
                  --------  --------  --------  --------
 0 C  s               0.1       0.2       0.4       0.9
 0 C  px              0.1       0.2       0.8       1.2
 0 C  dz2             0.0       0.1       0.1       0.4
 0 C  dxz             0.1       0.2       1.2       0.5
 0 C  dx2y2           0.2       0.5       1.6       1.7
 0 C  dxy             0.0       0.1       0.1       0.2
 1 C  s               0.0       1.0       0.3       0.1
 1 C  pz              0.0       1.6       0.4       0.0
 1 C  px              0.0       0.2       0.1       0.1
 1 C  dz2             0.1       4.0       1.3       0.1
 1 C  dxz             0.0       1.2       0.3       0.1
 1 C  dyz             0.0       0.0       0.2       0.0
 1 C  dx2y2           0.0       0.1       0.0       0.0
 3 C  s               0.2       0.2       0.8       0.0
 3 C  pz              0.1       0.5       1.6       0.2
 3 C  py              0.0       0.0       0.2       0.0
 3 C  dz2             1.1       1.7       3.6       0.5
 3 C  dxz             0.5       0.1       0.5       0.0
 3 C  dyz             0.1       0.0       0.3       0.0
 5 C  s               1.4       0.2       0.3       0.1
 5 C  pz              2.8       0.0       0.8       0.2
 5 C  py              0.0       0.0       0.3       0.1
 5 C  dz2             9.0       0.2       2.5       0.2
 5 C  dxz             0.4       0.0       0.2       0.1
 5 C  dyz             1.0       0.1       0.1       0.2
 7 C  s               0.6       1.5       1.1       0.1
 7 C  pz              0.1       0.1       0.1       0.0
 7 C  px              0.5       0.9       0.0       3.1
 7 C  py              0.3       0.1       0.2       0.7
 7 C  dz2             0.6       1.4       0.6       0.0
 7 C  dxz             0.2       0.1       0.0       1.8
 7 C  dyz             0.4       0.0       0.0       0.5
 7 C  dx2y2           1.2       2.3       1.2       3.8
 7 C  dxy             0.0       0.3       1.2       5.1
 8 H  s               0.0       0.1       0.0       0.0
 9 O  px              0.1       0.3       0.9       3.4
 9 O  py              0.1       0.1       0.5       1.0
 9 O  dz2             0.1       0.3       0.2       0.2
 9 O  dxz             0.6       1.0       3.3      10.1
 9 O  dyz             0.6       1.0       1.1       2.9
 9 O  dx2y2           1.2       6.2      15.8      14.3
 9 O  dxy             0.1       0.0       0.1      13.1
10 O  s               0.3       1.7       0.5       2.2
10 O  pz              0.2       0.3       0.1       0.2
10 O  px              0.4       1.2       0.3       1.5
10 O  dz2             3.0       4.9       0.6       4.7
10 O  dxz             1.7       2.6       0.6       1.6
10 O  dyz             0.2       0.1       0.0       0.0
10 O  dx2y2           5.1      10.8       1.7      16.0
10 O  dxy             0.3       3.5       3.4       0.0
11 O  s               3.2       0.1       1.5       0.1
11 O  pz              3.0       0.1       0.8       0.1
11 O  py              0.5       0.0       0.1       0.1
11 O  dz2            46.8       1.5      10.9       1.7
11 O  dxz             0.1       0.3       0.2       0.1
11 O  dyz             3.1       0.0       0.3       0.1
11 O  dx2y2           0.0       0.0       0.0       0.3
11 O  dxy             0.0       0.0       0.1       0.0
12 O  s               0.1       0.7       2.4       0.3
12 O  pz              0.3       0.4       1.5       0.2
12 O  px              0.0       0.0       0.1       0.1
12 O  py              0.1       0.1       0.2       0.0
12 O  dz2             3.2       4.5      15.5       1.5
12 O  dxz             1.9       0.8       0.1       0.0
12 O  dyz             0.5       2.5       4.5       0.5
12 O  dx2y2           0.1       0.0       0.2       0.0
12 O  dxy             0.1       0.2       0.1       0.0
13 O  s               0.1       2.3       0.7       0.1
13 O  pz              0.0       1.9       0.6       0.1
13 O  dz2             0.2      18.2       3.9       0.3
13 O  dxz             0.2      10.8       2.9       0.3
13 O  dyz             0.0       0.3       0.7       0.0
13 O  dx2y2           0.0       0.3       0.1       0.0
13 O  dxy             0.0       0.0       0.2       0.0
16 H  s               0.1       0.2       0.0       0.1
17 H  s               0.5       0.0       0.2       0.1
18 H  s               0.1       0.1       0.2       0.0
19 H  s               0.0       0.3       0.1       0.0


                      *****************************
                      * MAYER POPULATION ANALYSIS *
                      *****************************

  NA   - Mulliken gross atomic population
  ZA   - Total nuclear charge
  QA   - Mulliken gross atomic charge
  VA   - Mayer's total valence
  BVA  - Mayer's bonded valence
  FA   - Mayer's free valence

  ATOM       NA         ZA         QA         VA         BVA        FA
  0 C      5.9329     6.0000     0.0671     3.9646     3.9646    -0.0000
  1 C      5.9971     6.0000     0.0029     4.0905     4.0905     0.0000
  2 H      0.9386     1.0000     0.0614     0.9659     0.9659     0.0000
  3 C      5.9752     6.0000     0.0248     3.9607     3.9607     0.0000
  4 H      0.9192     1.0000     0.0808     0.9651     0.9651    -0.0000
  5 C      5.9664     6.0000     0.0336     3.9862     3.9862     0.0000
  6 H      0.9086     1.0000     0.0914     0.9707     0.9707     0.0000
  7 C      5.8775     6.0000     0.1225     4.1960     4.1960     0.0000
  8 H      0.9118     1.0000     0.0882     0.9865     0.9865    -0.0000
  9 O      8.3165     8.0000    -0.3165     2.1483     2.1483    -0.0000
 10 O      8.3561     8.0000    -0.3561     2.0697     2.0697     0.0000
 11 O      8.4293     8.0000    -0.4293     2.0485     2.0485     0.0000
 12 O      8.4108     8.0000    -0.4108     2.0017     2.0017    -0.0000
 13 O      8.4205     8.0000    -0.4205     2.0139     2.0139     0.0000
 14 H      0.9293     1.0000     0.0707     0.9704     0.9704    -0.0000
 15 H      0.8973     1.0000     0.1027     0.9707     0.9707    -0.0000
 16 H      0.7012     1.0000     0.2988     0.9037     0.9037     0.0000
 17 H      0.7071     1.0000     0.2929     0.9419     0.9419     0.0000
 18 H      0.6923     1.0000     0.3077     0.8808     0.8808     0.0000
 19 H      0.7124     1.0000     0.2876     0.9430     0.9430     0.0000

  Mayer bond orders larger than 0.100000
B(  0-C ,  1-C ) :   1.0463 B(  0-C ,  9-O ) :   1.0066 B(  0-C , 14-H ) :   0.8917 
B(  0-C , 15-H ) :   0.9218 B(  1-C ,  2-H ) :   0.8953 B(  1-C ,  3-C ) :   0.9663 
B(  1-C , 13-O ) :   1.0623 B(  3-C ,  4-H ) :   0.9063 B(  3-C ,  5-C ) :   0.9705 
B(  3-C , 12-O ) :   1.0562 B(  5-C ,  6-H ) :   0.8968 B(  5-C ,  7-C ) :   1.0184 
B(  5-C , 11-O ) :   1.0345 B(  7-C ,  8-H ) :   0.8874 B(  7-C ,  9-O ) :   0.9575 
B(  7-C , 10-O ) :   1.1752 B( 10-O , 16-H ) :   0.8345 B( 11-O , 17-H ) :   0.7895 
B( 12-O , 18-H ) :   0.8464 B( 13-O , 19-H ) :   0.8173 

-------
TIMINGS
-------

Total SCF time: 0 days 0 hours 0 min 2 sec 

Total time                  ....       2.079 sec
Sum of individual times     ....       2.063 sec  ( 99.2%)

SCF preparation             ....       0.042 sec  (  2.0%)
Fock matrix formation       ....       1.905 sec  ( 91.6%)
  Startup                   ....       0.003 sec  (  0.2% of F)
  Split-RI-J                ....       0.972 sec  ( 51.0% of F)
  XC integration            ....       0.923 sec  ( 48.4% of F)
    XC Preparation          ....       0.000 sec  (  0.0% of XC)
    Basis function eval.    ....       0.357 sec  ( 38.7% of XC)
    Density eval.           ....       0.228 sec  ( 24.7% of XC)
    XC-Functional eval.     ....       0.057 sec  (  6.2% of XC)
    XC-Potential eval.      ....       0.248 sec  ( 26.9% of XC)
Diagonalization             ....       0.000 sec  (  0.0%)
Density matrix formation    ....       0.003 sec  (  0.1%)
Total Energy calculation    ....       0.000 sec  (  0.0%)
Population analysis         ....       0.093 sec  (  4.5%)
Orbital Transformation      ....       0.005 sec  (  0.2%)
Orbital Orthonormalization  ....       0.000 sec  (  0.0%)
DIIS solution               ....       0.005 sec  (  0.3%)
  MO trafo                  ....       0.000 sec  (  0.0 % of DIIS)
  Orb grad                  ....       0.000 sec  (  0.0 % of DIIS)
  Energy W gradient         ....       0.000 sec  (  0.0 % of DIIS)
  DIIS error                ....       0.001 sec  ( 13.7 % of DIIS)
  DIIS work                 ....       0.004 sec  ( 84.9 % of DIIS)
  Form Q                    ....       0.000 sec  (  0.0 % of DIIS)
  Form QpQm                 ....       0.000 sec  (  0.0 % of DIIS)
  Exp/Cayley                ....       0.000 sec  (  0.0 % of DIIS)
  Orb update                ....       0.000 sec  (  0.0 % of DIIS)
  Wake-sleep                ....       0.000 sec  (  1.4 % of DIIS)
SOSCF solution              ....       0.010 sec  (  0.5%)
  MO trafo                  ....       0.006 sec  ( 64.4 % of SOSCF)
  Orb grad                  ....       0.000 sec  (  0.8 % of SOSCF)
  Rot update                ....       0.000 sec  (  2.6 % of SOSCF)
  Step                      ....       0.003 sec  ( 30.2 % of SOSCF)
Finished LeanSCF after   2.1 sec

Maximum memory used throughout the entire LEANSCF-calculation: 15.6 MB


-------------------------------------------------------------------------------
                          DFT DISPERSION CORRECTION                            
                                                                               
                                DFTD4 V3.4.0                                   
-------------------------------------------------------------------------------
The PBE functional is recognized
Active option DFTDOPT                   ...         5   

-------------------------   ----------------
Dispersion correction           -0.019999602
-------------------------   ----------------

------------------   -----------------
gCP correction             0.132073561
------------------   -----------------

-------------------------   --------------------
FINAL SINGLE POINT ENERGY      -571.412714616794
-------------------------   --------------------


------------------------------------------------------------------------------
                              ORCA PROPERTY CALCULATIONS
------------------------------------------------------------------------------

GBWName                                 ... sp.gbw
Number of atoms                         ...     20
Number of basis functions               ...    160
Max core memory                         ...   1024 MB

Electric properties:
Dipole moment                           ... YES
Quadrupole moment                       ...  NO
Static polarizability (Dipole/Dipole)   ...  NO
Static polarizability (Dipole/Quad.)    ...  NO
Static polarizability (Quad./Quad.)     ...  NO
Static polarizability (Velocity)        ...  NO

Atomic electric properties:
Dipole moment                           ...  NO
Quadrupole moment                       ...  NO
Static polarizability                   ...  NO

Choice of electric origin               ... Center of mass
Position of electric origin             ...     0.000009    -0.000001    -0.000007

General magnetic properties:
Magnetizability                         ...  NO

EPR properties:
g-Tensor (aka g-matrix)                 ...  NO
Zero-Field splitting spin-orbit         ...  NO
Zero-field splitting spin-spin          ...  NO
Hyperfine couplings                     ...  NO (   0 nuclei)
Quadrupole couplings                    ...  NO (   0 nuclei)
Contact density                         ...  NO (   0 nuclei)

NMR properties:
Chemical shifts                         ...  NO (   0 nuclei)
Spin-rotation constants                 ...  NO (   0 nuclei)
Spin-spin couplings                     ...  NO (   0 nuclei,    0 pairs)

Choice of magnetic origin               ... GIAO
Position of magnetic origin             ...     0.000000     0.000000     0.000000

Properties with geometric perturbations:
SCF Hessian                             ...  NO
IR spectrum                             ...  NO
VCD spectrum                            ...  NO
X-ray spectroscopy properties:
SCF XES/XAS/RIXS spectra                ...  NO


-------------
DIPOLE MOMENT
-------------

Method             : SCF
Type of density    : Electron Density
Multiplicity       :   1
Irrep              :   0
Energy             :  -571.5247885764293869 Eh
Relativity type    : 
Basis              : AO
                                X                 Y                 Z
Electronic contribution:     -2.181147285       0.193087803       1.080484027
Nuclear contribution   :      2.661412327      -0.438941576      -1.294978464
                        -----------------------------------------
Total Dipole Moment    :      0.480265042      -0.245853773      -0.214494436
                        -----------------------------------------
Magnitude (a.u.)       :      0.580608691
Magnitude (Debye)      :      1.475790008



--------------------
Rotational spectrum 
--------------------
 
Rotational constants in cm-1:             0.060675             0.040580             0.037473 
Rotational constants in MHz :          1818.998913          1216.543435          1123.413084 

Dipole components along the rotational axes: 
x,y,z [a.u.] :     0.506349    -0.278151    -0.057870 
x,y,z [Debye]:     1.287037    -0.707004    -0.147093 

 

Dipole moment calculation done in   0.0 sec 

Maximum memory used throughout the entire PROP-calculation: 10.2 MB

--------------------------------
SUGGESTED CITATIONS FOR THIS RUN
--------------------------------

Below you find a list of papers that are relevant to this ORCA run
We neither can nor want to force you to cite these papers, but we appreciate if you do
You receive ORCA, which is the product of decades of hard work by many enthusiastic individuals, for free
The only thing we kindly ask in return is that you cite our papers,
We deeply appreciate it, if you show your appreciation for ORCA by not just citing the generic ORCA reference.

Please note that relegating all ORCA citations to the supporting information does *not* help us.
SI sections are not indexed - citations you put there will not count into any citation statistics
But we need these citations in order to attract the funding resources that allow us to do what we are doing

Therefore, if you are a happy ORCA user, please consider citing a few of the papers listed below in the main body of your paper

In addition to the list printed below, the program has created the file sp.bibtex that contains the list in bibtex format
You can import this file easily into all common literature databanks and citation aid programs


List of essential papers. We consider these as the minimum necessary citations

  1. Neese,F.
     Software update: the ORCA program system, version 5.0
     WIRES Comput. Molec. Sci., 2022 12(1)e1606
     doi.org/10.1002/wcms.1606

List of papers to cite with high priority. The work reported in these papers was absolutely
necessary for this run to complete.
Our perspective: the developers of density functionals and basis sets usually get cited in chemistry papers
Good! But without the algorithms to do something with them, the functionals or basis sets would not do anything.
Hence, in our opinion, the algorithm design and method developments papers are equally worthy of getting cited

  1. Neese,F.
     An improvement of the resolution of the identity approximation for the formation of the Coulomb matrix
     J. Comp. Chem., 2003 24(14)1740-1747
     doi.org/10.1002/jcc.10318
  2. Neese,F.
     The SHARK Integral Generation and Digestion System
     J. Comp. Chem., 2022  1-16
     doi.org/10.1002/jcc.26942
  3. Caldeweyher,E.; Bannwarth,C.; Grimme,S.
     Extension of the D3 dispersion coefficient model
     J. Chem. Phys., 2017 147 034112
     doi.org/10.1063/1.4993215
  4. Caldeweyher,E.; Ehlert,S.; Hansen,A.; Neugebauer,H.; Spicher,S.; Bannwarth,C.; Grimme,S.
     A generally applicable atomic-charge dependent London dispersion correction
     J. Chem. Phys., 2019 150 154122
     doi.org/10.1063/1.5090222
  5. Caldeweyher,E.; Mewes,J.; Ehlert,S.; Grimme,S.
     Extension and evaluation of the D4 London-dispersion model for periodic systems
     Phys. Chem. Chem. Phys., 2020 22(16)8499-8512
     doi.org/10.1039/D0CP00502A
  6. Wittmann,L.; Gordiy,I.; Friede,M.; Helmich-Paris,B.; Grimme,S.; Hansen,A.; Bursch,M.
     Extension of the D3 and D4 London Dispersion Corrections to the full Actinides Series
     Phys. Chem. Chem. Phys., 2024 26(32)21379-21394
     doi.org/https://doi.org/10.1039/D4CP01514B 

List of suggested additional citations. These are papers that are important in the 'surrounding' of 
of this run, or papers that preceded the highly important papers. If you like your results we are grateful for a citation.

  1. Neese,F.
     The ORCA program system
     WIRES Comput. Molec. Sci., 2012 2(1)73-78
     doi.org/10.1002/wcms.81
  2. Neese,F.
     Software update: the ORCA program system, version 4.0
     WIRES Comput. Molec. Sci., 2018 8(1)1-6
     doi.org/10.1002/wcms.1327
  3. Neese,F.; Wennmohs,F.; Becker,U.; Riplinger,C.
     The ORCA quantum chemistry program package
     J. Chem. Phys., 2020 152 Art. No. L224108
     doi.org/10.1063/5.0004608

List of optional additional citations

  1. Neese,F.
     Approximate second-order SCF convergence for spin unrestricted wavefunctions
     Chem. Phys. Lett., 2000 325(1-3)93-98
     doi.org/10.1016/s0009-2614(00)00662-x

Timings for individual modules:

Sum of individual times          ...        2.737 sec (=   0.046 min)
Startup calculation              ...        0.509 sec (=   0.008 min)  18.6 %
SCF iterations                   ...        2.172 sec (=   0.036 min)  79.3 %
Property calculations            ...        0.056 sec (=   0.001 min)   2.1 %
                             ****ORCA TERMINATED NORMALLY****
TOTAL RUN TIME: 0 days 0 hours 0 minutes 2 seconds 876 msec
