
                                 *****************
                                 * O   R   C   A *
                                 *****************

                                            #,                                       
                                            ###                                      
                                            ####                                     
                                            #####                                    
                                            ######                                   
                                           ########,                                 
                                     ,,################,,,,,                         
                               ,,#################################,,                 
                          ,,##########################################,,             
                       ,#########################################, ''#####,          
                    ,#############################################,,   '####,        
                  ,##################################################,,,,####,       
                ,###########''''           ''''###############################       
              ,#####''   ,,,,##########,,,,          '''####'''          '####       
            ,##' ,,,,###########################,,,                        '##       
           ' ,,###''''                  '''############,,,                           
         ,,##''                                '''############,,,,        ,,,,,,###''
      ,#''                                            '''#######################'''  
     '                                                          ''''####''''         
             ,#######,   #######,   ,#######,      ##                                
            ,#'     '#,  ##    ##  ,#'     '#,    #''#        ,####,   ,####,        
            ##       ##  ##   ,#'  ##            #'  '#       #'       #'  '#        
            ##       ##  #######   ##           ,######,      #####,   #    #        
            '#,     ,#'  ##    ##  '#,     ,#' ,#      #,     #,   #   #,  ,#        
             '#######'   ##     ##  '#######'  #'      '#     '####' # '####'        



                #########################################################
                #                        -***-                          #
                #          Department of theory and spectroscopy        #
                #                                                       #
                #                      Frank Neese                      #
                #                                                       #
                #     Directorship, Architecture, Infrastructure        #
                #                    SHARK, DRIVERS                     #
                #        Core code/Algorithms in most modules           #
                #                                                       #
                #        Max Planck Institute fuer Kohlenforschung      #
                #                Kaiser Wilhelm Platz 1                 #
                #                 D-45470 Muelheim/Ruhr                 #
                #                      Germany                          #
                #                                                       #
                #                  All rights reserved                  #
                #                        -***-                          #
                #########################################################


                         Program Version 6.0.1  -  RELEASE   -


 With contributions from (in alphabetic order):
[Max-Planck-Institut fuer Kohlenforschung]                               
  Daniel Aravena         : Magnetic Suceptibility                        
  Michael Atanasov       : Ab Initio Ligand Field Theory (pilot matlab implementation)
  Alexander A. Auer      : GIAO ZORA, VPT2 properties, NMR spectrum      
  Ute Becker             : All parallelization in ORCA, NUMFREQ, NUMCALC 
  Giovanni Bistoni       : ED, misc. LED, open-shell LED, HFLD           
  Martin Brehm           : Molecular dynamics                            
  Dmytro Bykov           : pre 5.0 version of the SCF Hessian            
  Marcos Casanova-Páez   : Triplet and SCS-CIS(D). UHF-(DLPNO)-IP/EA/STEOM-CCSD. UHF-CVS-IP/STEOM-CCSD   
  Vijay G. Chilkuri      : MRCI spin determinant printing, contributions to CSF-ICE 
  Pauline Colinet        : FMM embedding                                 
  Dipayan Datta          : RHF DLPNO-CCSD density                        
  Achintya Kumar Dutta   : EOM-CC, STEOM-CC                              
  Nicolas Foglia         : Exact transition moments, OPA infrastructure, MCD improvements    
  Dmitry Ganyushin       : Spin-Orbit,Spin-Spin,Magnetic field MRCI      
  Miquel Garcia-Rates    : C-PCM and meta-GGA Hessian, CCSD/C-PCM, Gaussian charge scheme 
  Tiago L. C. Gouveia    : GS-ROHF, GS-ROCIS                             
  Yang Guo               : DLPNO-NEVPT2, F12-NEVPT2, CIM, IAO-localization        
  Andreas Hansen         : Spin unrestricted coupled pair/coupled cluster methods 
  Ingolf Harden          : AUTO-CI MPn and infrastructure                
  Benjamin Helmich-Paris : MC-RPA, TRAH-(SCF,CASSCF), AVAS, COSX integrals, SCF dyn. polar. 
  Lee Huntington         : MR-EOM, pCC                                   
  Robert Izsak           : Overlap fitted RIJCOSX, COSX-SCS-MP3, EOM     
  Riya Kayal             : Wick's Theorem for AUTO-CI, AUTO-CI UHF-CCSDT 
  Emily Kempfer          : AUTO-CI, RHF CISDT and CCSDT                  
  Christian Kollmar      : KDIIS, OOCD, Brueckner-CCSD(T), CCSD density, CASPT2, CASPT2-K, improved NEVPT2 
  Axel Koslowski         : Symmetry handling                             
  Simone Kossmann        : meta-GGA functionals, TD-DFT gradient, OOMP2, (MP2 Hessian; deprecated post 5.0) 
  Lucas Lang             : DCDCAS                                        
  Marvin Lechner         : AUTO-CI (C++ implementation), FIC-MRCC        
  Spencer Leger          : CASSCF response                               
  Dagmar Lenk            : GEPOL surface, SMD, ORCA-2-JSON               
  Dimitrios Liakos       : Extrapolation schemes; Compound Job, initial MDCI parallelization 
  Dimitrios Manganas     : Further ROCIS development; embedding schemes. LFT, Crystal Embedding 
  Dimitrios Pantazis     : SARC Basis sets                               
  Anastasios Papadopoulos: AUTO-CI, single reference methods and gradients 
  Taras Petrenko         : pre 6.0 DFT Hessian and TD-DFT gradient, (ASA, deprecated), ECA, 1-Electron XAS/XES, NRVS 
  Peter Pinski           : DLPNO-MP2, DLPNO-MP2 Gradient                 
  Christoph Reimann      : Effective Core Potentials                     
  Marius Retegan         : Local ZFS, SOC                                
  Christoph Riplinger    : Optimizer, TS searches, QM/MM, DLPNO-CCSD(T), (RO)-DLPNO pert. Triples 
  Michael Roemelt        : Original ROCIS implementation                 
  Masaaki Saitow         : Open-shell DLPNO-CCSD energy and density      
  Barbara Sandhoefer     : DKH picture change effects                    
  Kantharuban Sivalingam : CASSCF convergence/infrastructure, NEVPT2 and variants, FIC-MRCI 
  Bernardo de Souza      : ESD, SOC TD-DFT                               
  Georgi L. Stoychev     : AutoAux, RI-MP2 NMR, DLPNO-MP2 response, X2C  
  Van Anh Tran           : RI-MP2 g-tensors                              
  Willem Van den Heuvel  : Paramagnetic NMR                              
  Zikuan Wang            : NOTCH, Electric field optimization            
  Frank Wennmohs         : Technical directorship and infrastructure     
  Hang Xu                : AUTO-CI-Response properties                   
                                                                         
[FACCTs GmbH]                                                            
  Markus Bursch, Miquel Garcia-Rates, Christoph Riplinger, Bernardo de Souza, Georgi L. Stoychev 
                                                                 
  APM, Basis sets (HGBS, AHGBS, def-TZVP (Ac-Lr), def2-XVPD (La-Lu)), CI-OPT, improved COSX, DLPNO-Multilevel,           
  DOCKER, DRACO, updates on ESD, GOAT, IRC, LR-CPCM, MBIS, meta-GGA TD-DFT gradient, ML-optimized integration grids, 
  MM, NACMEs, nearIR, NEB, NEB-TS, NL-DFT gradient (VV10), 2- and 3-layer-ONIOM, interface openCOSMO-RS, QMMM,   
  Crystal-QMMM, SF, symmetry and pop. for TD-DFT, r2SCAN hybrids, SOLVATOR                                   
                                                                         
[Other institutions]                                                     
  V. Asgeirsson          : NEB                                           
  Christoph Bannwarth    : sTDA-DFT, sTD-DFT, PBEh-3c, B97-3c, D3        
  Sebastian Ehlert       : rSCAN, r2SCAN, r2SCAN-3c, D4, dhf basis sets  
  Marvin Friede          : D4 for Fr, Ra, Ac-Lr                          
  Lars Goerigk           : TD-DFT with DH, B97 family of functionals     
  Stefan Grimme          : VdW corrections, initial TS optimization, DFT functionals, gCP, sTDA/sTD-DF 
  Waldemar Hujo          : DFT-NL                                        
  H. Jonsson             : NEB                                           
  Holger Kruse           : gCP                                           
  Marcel Mueller         : wB97X-3c, vDZP basis set                      
  Hagen Neugebauer       : wr2SCAN                                       
  Tobias Risthaus        : range-separated hybrid DFT                    
  Lukas Wittmann         : regularized MP2, r2SCAN double-hybrids, wr2SCAN        
                                                                         
We gratefully acknowledge several colleagues who have allowed us to      
interface, adapt or use parts of their codes:                            
  Ed Valeev, F. Pavosevic, A. Kumar             : LibInt (2-el integral package), F12 methods 
  Garnet Chan, S. Sharma, J. Yang, R. Olivares  : DMRG                   
  Ulf Ekstrom                                   : XCFun DFT Library      
  Mihaly Kallay                                 : mrcc  (arbitrary order and MRCC methods)
  Frank Weinhold                                : gennbo (NPA and NBO analysis)           
  Simon Mueller                                 : openCOSMO-RS                            
  Christopher J. Cramer and Donald G. Truhlar   : smd solvation model                     
  S Lehtola, MJT Oliveira, MAL Marques          : LibXC Library                           
  Liviu Ungur et al                             : ANISO software                          


 Your calculation uses the libint2 library for the computation of 2-el integrals
 For citations please refer to: http://libint.valeyev.net

 Your ORCA version has been built with support for libXC version: 6.2.2
 For citations please refer to: https://libxc.gitlab.io

 This ORCA versions uses:
   CBLAS   interface :  Fast vector & matrix operations
   LAPACKE interface :  Fast linear algebra routines
   SCALAPACK package :  Parallel linear algebra routines
   Shared memory     :  Shared parallel matrices
   BLAS/LAPACK       :  OpenBLAS 0.3.27  USE64BITINT DYNAMIC_ARCH NO_AFFINITY Zen SINGLE_THREADED
        Core in use  :  Zen
   Copyright (c) 2011-2014, The OpenBLAS Project


Your calculation utilizes the geometrical counterpoise correction gCP
Please cite in your paper:
H.Kruse, S. Grimme J.Chem.Phys., 136, (2012), 154101 
   

Your calculation utilizes the atom-pairwise dispersion correction
based on EEQ partial charges (D4)


================================================================================

----- Orbital basis set information -----
Your calculation utilizes the basis: def2-SV(P)
   F. Weigend and R. Ahlrichs, Phys. Chem. Chem. Phys. 7, 3297 (2005).

----- AuxJ basis set information -----
Your calculation utilizes the auxiliary basis: def2/J
   F. Weigend, Phys. Chem. Chem. Phys. 8, 1057 (2006).

================================================================================
                                        WARNINGS
                       Please study these warnings very carefully!
================================================================================


================================================================================
                                       INPUT FILE
================================================================================
NAME = sp.inp
|  1> ! pbe def2-sv(p) def2/J RI DEFGRID1 loosescf d4 GCP(DFT/SV(P)) printgap
|  2> %output
|  3>     printlevel normal
|  4> end
|  5> * xyz 0 1
|  6> C 1.8484119745 -1.4716266955 -0.0002047295
|  7> C 0.5672519789 -0.6935716936 0.0001010148
|  8> C -0.6419461008 -1.3829122886 0.0001548089
|  9> C -1.8304640102 -0.6762380538 0.0001182687
| 10> N -1.8808469321 0.6451132383 -0.0002064709
| 11> C -0.7358856885 1.3010572831 -6.53326e-05
| 12> C 0.5211411015 0.70294404 0.0002114071
| 13> C 1.7554655315 1.5525532395 8.00383e-05
| 14> H 1.8899331178 -2.1152250479 0.8779342695
| 15> H 1.8910445379 -2.11207104 -0.880593954
| 16> H 2.7201192164 -0.8262156836 0.0013967596
| 17> H -0.6472410109 -2.4630504414 -0.0001947385
| 18> H -2.7862201899 -1.1836448604 -0.0004058815
| 19> H -0.8238224076 2.3809086607 0.0005047234
| 20> H 2.3589629335 1.3566815069 -0.8857277735
| 21> H 1.4861931644 2.6059285394 0.0050582453
| 22> H 2.3646843328 1.349612433 0.8801848323
| 23> *
| 24> 
| 25>                          ****END OF INPUT****
================================================================================

                       ****************************
                       * Single Point Calculation *
                       ****************************

---------------------------------
CARTESIAN COORDINATES (ANGSTROEM)
---------------------------------
  C      1.848412   -1.471627   -0.000205
  C      0.567252   -0.693572    0.000101
  C     -0.641946   -1.382912    0.000155
  C     -1.830464   -0.676238    0.000118
  N     -1.880847    0.645113   -0.000206
  C     -0.735886    1.301057   -0.000065
  C      0.521141    0.702944    0.000211
  C      1.755466    1.552553    0.000080
  H      1.889933   -2.115225    0.877934
  H      1.891045   -2.112071   -0.880594
  H      2.720119   -0.826216    0.001397
  H     -0.647241   -2.463050   -0.000195
  H     -2.786220   -1.183645   -0.000406
  H     -0.823822    2.380909    0.000505
  H      2.358963    1.356682   -0.885728
  H      1.486193    2.605929    0.005058
  H      2.364684    1.349612    0.880185

----------------------------
CARTESIAN COORDINATES (A.U.)
----------------------------
  NO LB      ZA    FRAG     MASS         X           Y           Z
   0 C     6.0000    0    12.011    3.492992   -2.780971   -0.000387
   1 C     6.0000    0    12.011    1.071951   -1.310661    0.000191
   2 C     6.0000    0    12.011   -1.213102   -2.613325    0.000293
   3 C     6.0000    0    12.011   -3.459076   -1.277905    0.000223
   4 N     7.0000    0    14.007   -3.554286    1.219087   -0.000390
   5 C     6.0000    0    12.011   -1.390622    2.458642   -0.000123
   6 C     6.0000    0    12.011    0.984814    1.328372    0.000400
   7 C     6.0000    0    12.011    3.317349    2.933900    0.000151
   8 H     1.0000    0     1.008    3.571456   -3.997196    1.659055
   9 H     1.0000    0     1.008    3.573556   -3.991236   -1.664081
  10 H     1.0000    0     1.008    5.140280   -1.561321    0.002639
  11 H     1.0000    0     1.008   -1.223108   -4.654491   -0.000368
  12 H     1.0000    0     1.008   -5.265193   -2.236765   -0.000767
  13 H     1.0000    0     1.008   -1.556799    4.499265    0.000954
  14 H     1.0000    0     1.008    4.457794    2.563756   -1.673783
  15 H     1.0000    0     1.008    2.808498    4.924491    0.009559
  16 H     1.0000    0     1.008    4.468606    2.550398    1.663308

--------------------------------
INTERNAL COORDINATES (ANGSTROEM)
--------------------------------
 C      0   0   0     0.000000000000     0.00000000     0.00000000
 C      1   0   0     1.498913144177     0.00000000     0.00000000
 C      2   1   0     1.391887371435   119.04284264     0.00000000
 C      3   2   1     1.382737609393   119.57830899   180.01513617
 N      4   3   2     1.322311529636   122.91867787     0.00000000
 C      5   4   3     1.319544943977   117.62461085     0.00000000
 C      6   5   4     1.392068920325   124.74592084     0.00000000
 C      7   6   5     1.498463415512   120.01377072   179.98806150
 H      1   2   3     1.089527854677   109.81812987   301.03739517
 H      1   2   3     1.089528191687   109.79976075    59.17192853
 H      1   2   3     1.084634249243   112.21322847   180.09219639
 H      3   2   1     1.080151187284   119.96749674     0.00000000
 H      4   3   2     1.082096029543   121.30130118   179.96503421
 H      6   5   4     1.083426134646   115.15267782   180.04951574
 H      8   7   6     1.089600995456   110.75573800   240.39990595
 H      8   7   6     1.087258898638   110.20079812     0.29743863
 H      8   7   6     1.089457189256   110.78953959   120.23229117

---------------------------
INTERNAL COORDINATES (A.U.)
---------------------------
 C      0   0   0     0.000000000000     0.00000000     0.00000000
 C      1   0   0     2.832535341030     0.00000000     0.00000000
 C      2   1   0     2.630285941275   119.04284264     0.00000000
 C      3   2   1     2.612995396826   119.57830899   180.01513617
 N      4   3   2     2.498806654739   122.91867787     0.00000000
 C      5   4   3     2.493578565517   117.62461085     0.00000000
 C      6   5   4     2.630629018957   124.74592084     0.00000000
 C      7   6   5     2.831685477018   120.01377072   179.98806150
 H      1   2   3     2.058909260619   109.81812987   301.03739517
 H      1   2   3     2.058909897474   109.79976075    59.17192853
 H      1   2   3     2.049661686540   112.21322847   180.09219639
 H      3   2   1     2.041189927196   119.96749674     0.00000000
 H      4   3   2     2.044865146439   121.30130118   179.96503421
 H      6   5   4     2.047378680814   115.15267782   180.04951574
 H      8   7   6     2.059047476660   110.75573800   240.39990595
 H      8   7   6     2.054621555095   110.20079812     0.29743863
 H      8   7   6     2.058775722326   110.78953959   120.23229117

---------------------
BASIS SET INFORMATION
---------------------
There are 3 groups of distinct atoms

 Group   1 Type C   : 7s4p1d contracted to 3s2p1d pattern {511/31/1}
 Group   2 Type N   : 7s4p1d contracted to 3s2p1d pattern {511/31/1}
 Group   3 Type H   : 4s contracted to 2s pattern {31}

Atom   0C    basis set group =>   1
Atom   1C    basis set group =>   1
Atom   2C    basis set group =>   1
Atom   3C    basis set group =>   1
Atom   4N    basis set group =>   2
Atom   5C    basis set group =>   1
Atom   6C    basis set group =>   1
Atom   7C    basis set group =>   1
Atom   8H    basis set group =>   3
Atom   9H    basis set group =>   3
Atom  10H    basis set group =>   3
Atom  11H    basis set group =>   3
Atom  12H    basis set group =>   3
Atom  13H    basis set group =>   3
Atom  14H    basis set group =>   3
Atom  15H    basis set group =>   3
Atom  16H    basis set group =>   3
---------------------------------
AUXILIARY/J BASIS SET INFORMATION
---------------------------------
There are 3 groups of distinct atoms

 Group   1 Type C   : 12s5p4d2f1g contracted to 6s4p3d1f1g pattern {711111/2111/211/2/1}
 Group   2 Type N   : 12s5p4d2f1g contracted to 6s4p3d1f1g pattern {711111/2111/211/2/1}
 Group   3 Type H   : 5s2p1d contracted to 3s1p1d pattern {311/2/1}

Atom   0C    basis set group =>   1
Atom   1C    basis set group =>   1
Atom   2C    basis set group =>   1
Atom   3C    basis set group =>   1
Atom   4N    basis set group =>   2
Atom   5C    basis set group =>   1
Atom   6C    basis set group =>   1
Atom   7C    basis set group =>   1
Atom   8H    basis set group =>   3
Atom   9H    basis set group =>   3
Atom  10H    basis set group =>   3
Atom  11H    basis set group =>   3
Atom  12H    basis set group =>   3
Atom  13H    basis set group =>   3
Atom  14H    basis set group =>   3
Atom  15H    basis set group =>   3
Atom  16H    basis set group =>   3
------------------------------------------------------------------------------
                             ORCA STARTUP CALCULATIONS
                           -- RI-GTO INTEGRALS CHOSEN --
------------------------------------------------------------------------------
------------------------------------------------------------------------------
                   ___                                                        
                  /   \      - P O W E R E D   B Y -                         
                 /     \                                                     
                 |  |  |   _    _      __       _____    __    __             
                 |  |  |  | |  | |    /  \     |  _  \  |  |  /  |          
                  \  \/   | |  | |   /    \    | | | |  |  | /  /          
                 / \  \   | |__| |  /  /\  \   | |_| |  |  |/  /          
                |  |  |   |  __  | /  /__\  \  |    /   |      \           
                |  |  |   | |  | | |   __   |  |    \   |  |\   \          
                \     /   | |  | | |  |  |  |  | |\  \  |  | \   \       
                 \___/    |_|  |_| |__|  |__|  |_| \__\ |__|  \__/        
                                                                              
                      - O R C A' S   B I G   F R I E N D -                    
                                      &                                       
                       - I N T E G R A L  F E E D E R -                       
                                                                              
 v1 FN, 2020, v2 2021, v3 2022-2024                                           
------------------------------------------------------------------------------


----------------------
SHARK INTEGRAL PACKAGE
----------------------

Number of atoms                             ...     17
Number of basis functions                   ...    130
Number of shells                            ...     66
Maximum angular momentum                    ...      2
Integral batch strategy                     ... SHARK/LIBINT Hybrid
RI-J (if used) integral strategy            ... SPLIT-RIJ (Revised 2003 algorithm where possible)
Printlevel                                  ...      1
Contraction scheme used                     ... SEGMENTED contraction
Prescreening option                         ... SCHWARTZ
   Thresh                                   ... 1.000e-09
   Tcut                                     ... 1.000e-10
   Tpresel                                  ... 1.000e-10 
Coulomb Range Separation                    ... NOT USED
Exchange Range Separation                   ... NOT USED
Multipole approximations                    ... NOT USED
Finite Nucleus Model                        ... NOT USED
CABS basis                                  ... NOT available
Auxiliary Coulomb fitting basis             ... AVAILABLE
   # of basis functions in Aux-J            ...    491
   # of shells in Aux-J                     ...    165
   Maximum angular momentum in Aux-J        ...      4
Auxiliary J/K fitting basis                 ... NOT available
Auxiliary Correlation fitting basis         ... NOT available
Auxiliary 'external' fitting basis          ... NOT available

Checking pre-screening integrals            ... done (  0.0 sec) Dimension = 66
Check shell pair data                       ... done (  0.0 sec)
Shell pair information
Shell pair cut-off parameter TPreSel        ...   1.0e-10
Total number of shell pairs                 ...      2211
Shell pairs after pre-screening             ...      2129
Total number of primitive shell pairs       ...      8909
Primitive shell pairs kept                  ...      6125
          la=0 lb=0:    848 shell pairs
          la=1 lb=0:    659 shell pairs
          la=1 lb=1:    136 shell pairs
          la=2 lb=0:    322 shell pairs
          la=2 lb=1:    128 shell pairs
          la=2 lb=2:     36 shell pairs

Calculating one electron integrals          ... done (  0.0 sec)
Calculating RI/J V-Matrix + Cholesky decomp.... done (  0.0 sec)
Calculating Nuclear repulsion               ... done (  0.0 sec) ENN=    350.401887011841 Eh

Diagonalization of the overlap matrix:
Smallest eigenvalue                        ... 6.286e-04
Time for diagonalization                   ...    0.001 sec
Threshold for overlap eigenvalues          ... 1.000e-07
Number of eigenvalues below threshold      ... 0
Time for construction of square roots      ...    0.000 sec
Total time needed                          ...    0.002 sec

-------------------
DFT GRID GENERATION
-------------------

General Integration Accuracy     IntAcc      ... 4.159
Radial Grid Type                 RadialGrid  ... OptM3 with GC (2021)
Angular Grid (max. ang.)         AngularGrid ... 3 (Lebedev-194)
Angular grid pruning method      GridPruning ... 4 (adaptive)
Weight generation scheme         WeightScheme... mBecke (2022)
Basis function cutoff            BFCut       ... 1.0000e-10
Integration weight cutoff        WCut        ... 1.0000e-14
Partially contracted basis set               ... off
Rotationally invariant grid construction     ... off
Angular grids for H and He will be reduced by one unit

Total number of grid points                  ...    38756
Total number of batches                      ...      615
Average number of points per batch           ...       63
Average number of grid points per atom       ...     2280
Initializing property integral containers    ... done (  0.0 sec)

SHARK setup successfully completed in   0.2 seconds

Maximum memory used throughout the entire STARTUP-calculation: 19.6 MB
-------------------------------------------------------------------------------
                                 ORCA GUESS
                   Start orbitals & Density for SCF / CASSCF
-------------------------------------------------------------------------------

------------
SCF SETTINGS
------------
Hamiltonian:
 Density Functional     Method          .... DFT(GTOs)
 Exchange Functional    Exchange        .... PBE
   PBE kappa parameter   XKappa         ....  0.804000
   PBE mue parameter    XMuePBE         ....  0.219520
 Correlation Functional Correlation     .... PBE
   PBE beta parameter  CBetaPBE         ....  0.066725
 LDA part of GGA corr.  LDAOpt          .... PW91-LDA
 Gradients option       PostSCFGGA      .... off
   NL short-range parameter             ....  6.400000
 RI-approximation to the Coulomb term is turned on
   Number of AuxJ basis functions       .... 491


General Settings:
 Integral files         IntName         .... sp
 Hartree-Fock type      HFTyp           .... RHF
 Total Charge           Charge          ....    0
 Multiplicity           Mult            ....    1
 Number of Electrons    NEL             ....   58
 Basis Dimension        Dim             ....  130
 Nuclear Repulsion      ENuc            ....    350.4018870118 Eh

Convergence Acceleration:
 AO-DIIS                CNVDIIS         .... on
   Start iteration      DIISMaxIt       ....    12
   Startup error        DIISStart       ....  0.200000
   # of expansion vecs  DIISMaxEq       ....     5
   Bias factor          DIISBfac        ....   1.050
   Max. coefficient     DIISMaxC        ....  10.000
 MO-DIIS                CNVKDIIS        .... off
 Trust-Rad. Augm. Hess. CNVTRAH         .... auto
   Auto Start mean grad. ratio tolernc. ....  1.125000
   Auto Start start iteration           ....    50
   Auto Start num. interpolation iter.  ....    10
   Max. Number of Micro iterations      ....    24
   Max. Number of Macro iterations      .... Maxiter - #DIIS iter
   Number of Davidson start vectors     ....     2
   Converg. threshold    (grad. norm)   ....   1.000e-04
   Grad. Scal. Fac. for Micro threshold ....   0.100
   Minimum threshold for Micro iter.    ....   1.000e-02
   NR start threshold (gradient norm)   ....   1.000e-04
   Initial trust radius                 ....   0.400
   Minimum AH scaling param. (alpha)    ....   1.000
   Maximum AH scaling param. (alpha)    .... 1000.000
   Quad. conv. algorithm                .... NR
   White noise on init. David. guess    .... on
   Maximum white noise                  ....   0.010
   Pseudo random numbers                .... off
   Inactive MOs                         .... canonical
   Orbital update algorithm             .... Taylor
   Preconditioner                       .... Diag
   Full preconditioner red. dimension   ....   250
 SOSCF                  CNVSOSCF        .... on
   Start iteration      SOSCFMaxIt      ....   150
   Startup grad/error   SOSCFStart      ....  0.003300
   Hessian update       SOSCFHessUp     .... L-BFGS
 Level Shifting         CNVShift        .... on
   Level shift para.    LevelShift      ....    0.2500
   Turn off err/grad.   ShiftErr        ....    0.0010
 Zerner damping         CNVZerner       .... off
 Static damping         CNVDamp         .... on
   Fraction old density DampFac         ....    0.7000
   Max. Damping (<1)    DampMax         ....    0.9800
   Min. Damping (>=0)   DampMin         ....    0.0000
   Turn off err/grad.   DampErr         ....    0.1000

SCF Procedure:
 Maximum # iterations   MaxIter         ....   125
 SCF integral mode      SCFMode         .... Direct
   Integral package                     .... SHARK and LIBINT hybrid scheme
 Reset frequency        DirectResetFreq ....    20
 Integral Threshold     Thresh          ....  1.000e-09 Eh
 Primitive CutOff       TCut            ....  1.000e-10 Eh

Convergence Tolerance:
 Convergence Check Mode ConvCheckMode   .... Total+1el-Energy
 Convergence forced     ConvForced      .... 0
 Energy Change          TolE            ....  1.000e-05 Eh
 1-El. energy change                    ....  1.000e-02 Eh
 Orbital Gradient       TolG            ....  1.000e-04
 Orbital Rotation angle TolX            ....  1.000e-04
 DIIS Error             TolErr          ....  5.000e-04

------------------------------
INITIAL GUESS: MODEL POTENTIAL
------------------------------
Loading Hartree-Fock densities                     ... done
Calculating cut-offs                               ... done
Initializing the effective Hamiltonian             ... done
Setting up the integral package (SHARK)            ... done
Starting the Coulomb interaction                   ... done (   0.1 sec)
Making the grid                                    ... done (   0.1 sec)
Mapping shells                                     ... done
Starting the XC term evaluation                    ... done (   0.1 sec)
  promolecular density results
     # of electrons  =     57.998986804
     EX              =    -45.008388352
     EC              =     -1.912226454
     EX+EC           =    -46.920614806
Transforming the Hamiltonian                       ... done (   0.0 sec)
Diagonalizing the Hamiltonian                      ... done (   0.0 sec)
Back transforming the eigenvectors                 ... done (   0.0 sec)
Now organizing SCF variables                       ... done
                      ------------------
                      INITIAL GUESS DONE (   0.2 sec)
                      ------------------
             **** ENERGY FILE WAS UPDATED (sp.en.tmp) ****
Finished Guess after   0.3 sec
Maximum memory used throughout the entire GUESS-calculation: 15.3 MB

-------------------------------------------------------------------------------------------
                                      ORCA LEAN-SCF
                              memory conserving SCF solver
-------------------------------------------------------------------------------------------

----------------------------------------D-I-I-S--------------------------------------------
Iteration    Energy (Eh)           Delta-E    RMSDP     MaxDP     DIISErr   Damp  Time(sec)
-------------------------------------------------------------------------------------------
               ***  Starting incremental Fock matrix formation  ***
    1    -326.0611432992396317     0.00e+00  4.14e-03  7.72e-02  1.60e-01  0.700   0.3
    2    -326.1427693538255994    -8.16e-02  3.13e-03  4.56e-02  7.64e-02  0.700   0.3
                               ***Turning on AO-DIIS***
    3    -326.1733497429942759    -3.06e-02  1.30e-03  1.28e-02  2.57e-02  0.700   0.2
    4    -326.1909644034930693    -1.76e-02  1.92e-03  2.60e-02  1.10e-02  0.000   0.2
    5    -326.2299194796465258    -3.90e-02  5.51e-04  9.23e-03  5.29e-03  0.000   0.2
                              *** Initializing SOSCF ***
---------------------------------------S-O-S-C-F--------------------------------------
Iteration    Energy (Eh)           Delta-E    RMSDP     MaxDP     MaxGrad    Time(sec)
--------------------------------------------------------------------------------------
    6    -326.2302517552626000    -3.32e-04  1.79e-04  2.03e-03  1.40e-03     0.2
               *** Restarting incremental Fock matrix formation ***
    7    -326.2302741202972243    -2.24e-05  1.39e-04  2.01e-03  5.19e-04     0.3
    8    -326.2302672335043212     6.89e-06  6.96e-05  1.19e-03  9.98e-04     0.2
                 **** Energy Check signals convergence ****

               *****************************************************
               *                     SUCCESS                       *
               *           SCF CONVERGED AFTER   8 CYCLES          *
               *****************************************************

             **** ENERGY FILE WAS UPDATED (sp.en.tmp) ****

----------------
TOTAL SCF ENERGY
----------------

Total Energy       :       -326.23026723350432 Eh           -8877.17688 eV

Components:
Nuclear Repulsion  :        350.40188701184132 Eh            9534.92009 eV
Electronic Energy  :       -676.63215424534565 Eh          -18412.09697 eV
One Electron Energy:      -1133.57393072128730 Eh          -30846.11484 eV
Two Electron Energy:        456.94177647594159 Eh           12434.01787 eV

Virial components:
Potential Energy   :       -649.64069204496354 Eh          -17677.62194 eV
Kinetic Energy     :        323.41042481145928 Eh            8800.44507 eV
Virial Ratio       :          2.00871908326297

DFT components:
N(Alpha)           :       29.000066625723 electrons
N(Beta)            :       29.000066625723 electrons
N(Total)           :       58.000133251446 electrons
E(X)               :      -45.904130025273 Eh       
E(C)               :       -1.925581717373 Eh       
E(XC)              :      -47.829711742646 Eh       

---------------
SCF CONVERGENCE
---------------

  Last Energy change         ...   -6.8868e-06  Tolerance :   1.0000e-05
  Last MAX-Density change    ...    1.1876e-03  Tolerance :   1.0000e-03
  Last RMS-Density change    ...    6.9597e-05  Tolerance :   1.0000e-04
  Last DIIS Error            ...    1.3969e-03  Tolerance :   5.0000e-04
  Last Orbital Gradient      ...    9.9826e-04  Tolerance :   1.0000e-04
  Last Orbital Rotation      ...    1.5804e-03  Tolerance :   1.0000e-04


----------------
ORBITAL ENERGIES
----------------

  NO   OCC          E(Eh)            E(eV) 
   0   2.0000     -13.970655      -380.1608 
   1   2.0000      -9.916017      -269.8285 
   2   2.0000      -9.911990      -269.7190 
   3   2.0000      -9.911107      -269.6949 
   4   2.0000      -9.908051      -269.6118 
   5   2.0000      -9.893846      -269.2252 
   6   2.0000      -9.892669      -269.1932 
   7   2.0000      -9.892133      -269.1786 
   8   2.0000      -0.851344       -23.1662 
   9   2.0000      -0.747601       -20.3433 
  10   2.0000      -0.699013       -19.0211 
  11   2.0000      -0.646093       -17.5811 
  12   2.0000      -0.622202       -16.9310 
  13   2.0000      -0.553563       -15.0632 
  14   2.0000      -0.526747       -14.3335 
  15   2.0000      -0.450628       -12.2622 
  16   2.0000      -0.447122       -12.1668 
  17   2.0000      -0.401646       -10.9293 
  18   2.0000      -0.400472       -10.8974 
  19   2.0000      -0.373369       -10.1599 
  20   2.0000      -0.367940       -10.0122 
  21   2.0000      -0.360100        -9.7988 
  22   2.0000      -0.351341        -9.5605 
  23   2.0000      -0.341353        -9.2887 
  24   2.0000      -0.335295        -9.1238 
  25   2.0000      -0.306856        -8.3500 
  26   2.0000      -0.242685        -6.6038 
  27   2.0000      -0.227736        -6.1970 
  28   2.0000      -0.195930        -5.3315 
  29   0.0000      -0.049069        -1.3352 
  30   0.0000      -0.036098        -0.9823 
  31   0.0000       0.038015         1.0344 
  32   0.0000       0.062752         1.7076 
  33   0.0000       0.071022         1.9326 
  34   0.0000       0.079108         2.1526 
  35   0.0000       0.093195         2.5360 
  36   0.0000       0.112572         3.0632 
  37   0.0000       0.113574         3.0905 
  38   0.0000       0.126449         3.4408 
  39   0.0000       0.132172         3.5966 
*Only the first 10 virtual orbitals were printed.

                    ********************************
                    * MULLIKEN POPULATION ANALYSIS *
                    ********************************

-----------------------
MULLIKEN ATOMIC CHARGES
-----------------------
   0 C :   -0.224778
   1 C :    0.004320
   2 C :   -0.122015
   3 C :   -0.055288
   4 N :   -0.046246
   5 C :   -0.120924
   6 C :   -0.054128
   7 C :   -0.233127
   8 H :    0.121050
   9 H :    0.121086
  10 H :    0.104981
  11 H :    0.042853
  12 H :    0.063161
  13 H :    0.050010
  14 H :    0.120721
  15 H :    0.107582
  16 H :    0.120744
Sum of atomic charges:   -0.0000000

--------------------------------
MULLIKEN REDUCED ORBITAL CHARGES
--------------------------------
  0 C s       :     3.019084  s :     3.019084
      pz      :     1.074699  p :     3.177290
      px      :     1.038470
      py      :     1.064121
      dz2     :     0.005054  d :     0.028403
      dxz     :     0.002441
      dyz     :     0.008718
      dx2y2   :     0.004651
      dxy     :     0.007540

  1 C s       :     3.043783  s :     3.043783
      pz      :     0.950251  p :     2.909908
      px      :     0.947826
      py      :     1.011831
      dz2     :     0.002621  d :     0.041989
      dxz     :     0.006245
      dyz     :     0.006757
      dx2y2   :     0.012986
      dxy     :     0.013380

  2 C s       :     3.244900  s :     3.244900
      pz      :     1.014019  p :     2.844086
      px      :     0.985316
      py      :     0.844752
      dz2     :     0.003167  d :     0.033029
      dxz     :     0.005726
      dyz     :     0.002023
      dx2y2   :     0.013247
      dxy     :     0.008866

  3 C s       :     3.172731  s :     3.172731
      pz      :     0.964821  p :     2.827549
      px      :     0.914246
      py      :     0.948482
      dz2     :     0.003886  d :     0.055008
      dxz     :     0.003317
      dyz     :     0.008879
      dx2y2   :     0.015473
      dxy     :     0.023452

  4 N s       :     3.420232  s :     3.420232
      pz      :     1.100295  p :     3.596702
      px      :     1.404688
      py      :     1.091719
      dz2     :     0.003118  d :     0.029312
      dxz     :     0.004470
      dyz     :     0.004719
      dx2y2   :     0.009772
      dxy     :     0.007233

  5 C s       :     3.224199  s :     3.224199
      pz      :     0.973045  p :     2.842171
      px      :     0.975583
      py      :     0.893544
      dz2     :     0.003924  d :     0.054554
      dxz     :     0.009265
      dyz     :     0.002699
      dx2y2   :     0.024178
      dxy     :     0.014488

  6 C s       :     3.065121  s :     3.065121
      pz      :     0.992341  p :     2.948801
      px      :     0.930287
      py      :     1.026174
      dz2     :     0.002721  d :     0.040205
      dxz     :     0.006387
      dyz     :     0.005559
      dx2y2   :     0.012995
      dxy     :     0.012543

  7 C s       :     3.018427  s :     3.018427
      pz      :     1.062797  p :     3.185952
      px      :     1.056444
      py      :     1.066712
      dz2     :     0.005111  d :     0.028748
      dxz     :     0.009912
      dyz     :     0.001645
      dx2y2   :     0.007114
      dxy     :     0.004965

  8 H s       :     0.878950  s :     0.878950

  9 H s       :     0.878914  s :     0.878914

 10 H s       :     0.895019  s :     0.895019

 11 H s       :     0.957147  s :     0.957147

 12 H s       :     0.936839  s :     0.936839

 13 H s       :     0.949990  s :     0.949990

 14 H s       :     0.879279  s :     0.879279

 15 H s       :     0.892418  s :     0.892418

 16 H s       :     0.879256  s :     0.879256


------------------------
MULLIKEN OVERLAP CHARGES
------------------------
B(  0-C ,  1-C ) :   0.8984 B(  0-C ,  2-C ) :  -0.2285 B(  0-C ,  6-C ) :  -0.1989 
B(  0-C ,  7-C ) :  -0.0506 B(  0-C ,  8-H ) :   0.7099 B(  0-C ,  9-H ) :   0.7098 
B(  0-C , 10-H ) :   0.7097 B(  1-C ,  2-C ) :   0.7968 B(  1-C ,  3-C ) :   0.0549 
B(  1-C ,  4-N ) :  -0.1542 B(  1-C ,  6-C ) :   0.7383 B(  1-C ,  7-C ) :  -0.1917 
B(  1-C , 11-H ) :  -0.1711 B(  2-C ,  3-C ) :   0.8015 B(  2-C ,  5-C ) :  -0.1375 
B(  2-C , 11-H ) :   0.7977 B(  2-C , 12-H ) :  -0.1781 B(  3-C ,  4-N ) :   1.0375 
B(  3-C ,  5-C ) :  -0.1305 B(  3-C ,  6-C ) :  -0.1551 B(  3-C , 11-H ) :  -0.1120 
B(  3-C , 12-H ) :   0.8097 B(  4-N ,  5-C ) :   1.0807 B(  4-N , 12-H ) :  -0.0983 
B(  4-N , 13-H ) :  -0.0959 B(  5-C ,  6-C ) :   0.8885 B(  5-C ,  7-C ) :  -0.1451 
B(  5-C , 13-H ) :   0.7895 B(  6-C ,  7-C ) :   0.7610 B(  6-C , 13-H ) :  -0.1644 
B(  7-C , 14-H ) :   0.7011 B(  7-C , 15-H ) :   0.7158 B(  7-C , 16-H ) :   0.7012 
B( 14-H , 16-H ) :  -0.0531 


                     *******************************
                     * LOEWDIN POPULATION ANALYSIS *
                     *******************************

----------------------
LOEWDIN ATOMIC CHARGES
----------------------
   0 C :   -0.325595
   1 C :   -0.027865
   2 C :   -0.141454
   3 C :   -0.086924
   4 N :   -0.078498
   5 C :   -0.087046
   6 C :   -0.069517
   7 C :   -0.324265
   8 H :    0.137786
   9 H :    0.137837
  10 H :    0.125640
  11 H :    0.123858
  12 H :    0.112236
  13 H :    0.110636
  14 H :    0.132444
  15 H :    0.128389
  16 H :    0.132337

-------------------------------
LOEWDIN REDUCED ORBITAL CHARGES
-------------------------------
  0 C s       :     2.933963  s :     2.933963
      pz      :     1.128308  p :     3.321856
      px      :     1.083816
      py      :     1.109732
      dz2     :     0.013200  d :     0.069776
      dxz     :     0.004584
      dyz     :     0.021081
      dx2y2   :     0.010933
      dxy     :     0.019978

  1 C s       :     2.853303  s :     2.853303
      pz      :     0.932333  p :     3.064524
      px      :     1.057668
      py      :     1.074523
      dz2     :     0.006996  d :     0.110038
      dxz     :     0.012066
      dyz     :     0.013561
      dx2y2   :     0.037625
      dxy     :     0.039789

  2 C s       :     2.900455  s :     2.900455
      pz      :     1.003845  p :     3.151084
      px      :     1.085438
      py      :     1.061802
      dz2     :     0.007323  d :     0.089915
      dxz     :     0.012770
      dyz     :     0.003313
      dx2y2   :     0.037735
      dxy     :     0.028775

  3 C s       :     2.889056  s :     2.889056
      pz      :     0.956257  p :     3.063159
      px      :     1.075336
      py      :     1.031565
      dz2     :     0.008888  d :     0.134709
      dxz     :     0.006381
      dyz     :     0.016996
      dx2y2   :     0.041746
      dxy     :     0.060699

  4 N s       :     3.209252  s :     3.209252
      pz      :     1.095436  p :     3.806027
      px      :     1.466650
      py      :     1.243941
      dz2     :     0.006608  d :     0.063219
      dxz     :     0.006222
      dyz     :     0.009262
      dx2y2   :     0.023721
      dxy     :     0.017406

  5 C s       :     2.890406  s :     2.890406
      pz      :     0.964817  p :     3.062349
      px      :     1.044895
      py      :     1.052636
      dz2     :     0.008921  d :     0.134291
      dxz     :     0.019092
      dyz     :     0.003887
      dx2y2   :     0.063171
      dxy     :     0.039221

  6 C s       :     2.858758  s :     2.858758
      pz      :     0.971252  p :     3.102859
      px      :     1.063383
      py      :     1.068225
      dz2     :     0.007456  d :     0.107900
      dxz     :     0.012021
      dyz     :     0.011643
      dx2y2   :     0.038240
      dxy     :     0.038540

  7 C s       :     2.933994  s :     2.933994
      pz      :     1.122882  p :     3.319196
      px      :     1.088015
      py      :     1.108300
      dz2     :     0.013165  d :     0.071075
      dxz     :     0.023692
      dyz     :     0.003250
      dx2y2   :     0.017452
      dxy     :     0.013515

  8 H s       :     0.862214  s :     0.862214

  9 H s       :     0.862163  s :     0.862163

 10 H s       :     0.874360  s :     0.874360

 11 H s       :     0.876142  s :     0.876142

 12 H s       :     0.887764  s :     0.887764

 13 H s       :     0.889364  s :     0.889364

 14 H s       :     0.867556  s :     0.867556

 15 H s       :     0.871611  s :     0.871611

 16 H s       :     0.867663  s :     0.867663


---------------------------------
LOEWDIN BOND ORDERS (THRESH 0.050000)
---------------------------------
B(  0-C ,  1-C ) :   1.0961 B(  0-C ,  2-C ) :   0.0737 B(  0-C ,  6-C ) :   0.0682 
B(  0-C ,  8-H ) :   0.9220 B(  0-C ,  9-H ) :   0.9219 B(  0-C , 10-H ) :   0.9278 
B(  1-C ,  2-C ) :   1.4398 B(  1-C ,  3-C ) :   0.0905 B(  1-C ,  4-N ) :   0.1067 
B(  1-C ,  5-C ) :   0.0926 B(  1-C ,  6-C ) :   1.3899 B(  1-C ,  7-C ) :   0.0675 
B(  2-C ,  3-C ) :   1.5129 B(  2-C ,  4-N ) :   0.0891 B(  2-C ,  5-C ) :   0.1252 
B(  2-C ,  6-C ) :   0.0862 B(  2-C , 11-H ) :   0.8813 B(  3-C ,  4-N ) :   1.6173 
B(  3-C ,  5-C ) :   0.1077 B(  3-C ,  6-C ) :   0.1167 B(  3-C , 12-H ) :   0.8950 
B(  4-N ,  5-C ) :   1.6423 B(  4-N ,  6-C ) :   0.0881 B(  5-C ,  6-C ) :   1.4379 
B(  5-C ,  7-C ) :   0.0789 B(  5-C , 13-H ) :   0.8880 B(  6-C ,  7-C ) :   1.0954 
B(  7-C , 14-H ) :   0.9229 B(  7-C , 15-H ) :   0.9264 B(  7-C , 16-H ) :   0.9230 


------------------------------------------
LOEWDIN REDUCED ORBITAL POPULATIONS PER MO
-------------------------------------------
THRESHOLD FOR PRINTING IS 0.1%%
                      0         1         2         3         4         5   
                 -13.97065  -9.91602  -9.91199  -9.91111  -9.90805  -9.89385
                   2.00000   2.00000   2.00000   2.00000   2.00000   2.00000
                  --------  --------  --------  --------  --------  --------
 0 C  s               0.0       0.0       0.0       0.0       0.0      99.7
 1 C  s               0.0      99.5       0.0       0.0       0.0       0.0
 1 C  py              0.0       0.0       0.0       0.0       0.1       0.0
 2 C  px              0.0       0.1       0.0       0.1       0.0       0.0
 3 C  s               0.0       0.0       0.0      99.5       0.0       0.0
 4 N  s              99.8       0.0       0.0       0.0       0.0       0.0
 4 N  px              0.0       0.0       0.2       0.0       0.0       0.0
 4 N  py              0.0       0.0       0.0       0.2       0.0       0.0
 5 C  s               0.0       0.0      99.4       0.0       0.1       0.0
 5 C  px              0.1       0.0       0.0       0.0       0.1       0.0
 6 C  s               0.0       0.0       0.1       0.0      99.4       0.0
 6 C  px              0.0       0.0       0.1       0.0       0.0       0.0
 6 C  py              0.0       0.1       0.0       0.0       0.0       0.0

                      6         7         8         9        10        11   
                  -9.89267  -9.89213  -0.85134  -0.74760  -0.69901  -0.64609
                   2.00000   2.00000   2.00000   2.00000   2.00000   2.00000
                  --------  --------  --------  --------  --------  --------
 0 C  s               0.0       0.0       0.3       9.5       3.0      22.7
 0 C  px              0.0       0.0       0.2       1.7       0.5       0.1
 0 C  py              0.0       0.0       0.1       0.8       0.0       0.0
 1 C  s               0.0       0.0       3.2      22.2       2.9       0.5
 1 C  px              0.1       0.0       0.9       0.2       0.8      10.5
 1 C  py              0.0       0.0       0.3       0.2       7.6       1.4
 1 C  dz2             0.0       0.0       0.0       0.2       0.0       0.0
 1 C  dx2y2           0.0       0.0       0.0       0.0       0.2       0.0
 1 C  dxy             0.0       0.0       0.0       0.0       0.0       0.2
 2 C  s              99.5       0.0       4.2       5.4      13.7       8.2
 2 C  px              0.0       0.0       0.3       4.2       0.1       3.2
 2 C  py              0.0       0.0       2.0       0.3       0.2       0.3
 2 C  dz2             0.0       0.0       0.1       0.1       0.1       0.1
 2 C  dxy             0.0       0.0       0.0       0.1       0.0       0.0
 3 C  s               0.0       0.0      13.4       0.7       7.5       6.2
 3 C  px              0.1       0.0       0.7       1.3       1.0       1.1
 3 C  py              0.0       0.0       5.5       3.0       1.4       3.5
 3 C  dz2             0.0       0.0       0.3       0.0       0.1       0.0
 3 C  dx2y2           0.0       0.0       0.3       0.2       0.0       0.1
 4 N  s               0.0       0.0      31.7       7.5       0.1       2.6
 4 N  px              0.0       0.0       3.5       0.2       1.2       0.7
 4 N  py              0.0       0.0       1.0       0.2       3.9       3.0
 4 N  dz2             0.0       0.0       0.1       0.0       0.0       0.0
 5 C  s               0.0       0.0      14.0       0.1       9.2       1.6
 5 C  px              0.0       0.0       2.3       7.1       1.4       3.2
 5 C  py              0.0       0.0       3.8       0.1       0.1       0.1
 5 C  dz2             0.0       0.0       0.3       0.0       0.1       0.0
 5 C  dxy             0.0       0.0       0.2       0.3       0.0       0.1
 6 C  s               0.0       0.0       4.6      14.2       9.8       1.1
 6 C  px              0.0       0.1       2.0       1.0       0.1       0.6
 6 C  py              0.0       0.0       0.1       1.9       5.9       0.5
 6 C  dz2             0.0       0.0       0.1       0.2       0.1       0.0
 7 C  s               0.0      99.6       0.4       5.9      12.0       4.9
 7 C  px              0.0       0.0       0.3       0.8       1.0       0.0
 7 C  py              0.0       0.0       0.1       0.8       0.1       0.0
 8 H  s               0.0       0.0       0.0       1.6       0.7       5.7
 9 H  s               0.0       0.0       0.0       1.6       0.7       5.7
10 H  s               0.0       0.0       0.1       1.9       0.3       5.4
11 H  s               0.1       0.0       0.4       0.9       2.8       1.5
12 H  s               0.0       0.0       1.4       0.1       1.4       1.5
13 H  s               0.0       0.0       1.5       0.0       2.2       0.4
14 H  s               0.0       0.1       0.1       1.1       2.3       1.0
15 H  s               0.0       0.1       0.1       0.9       2.8       1.3
16 H  s               0.0       0.1       0.1       1.1       2.2       1.0

                     12        13        14        15        16        17   
                  -0.62220  -0.55356  -0.52675  -0.45063  -0.44712  -0.40165
                   2.00000   2.00000   2.00000   2.00000   2.00000   2.00000
                  --------  --------  --------  --------  --------  --------
 0 C  s               5.3       0.8       3.6       0.0       1.0       0.0
 0 C  px              0.6       0.1       3.9       5.3       7.4       0.4
 0 C  py              0.0       1.9       0.7       3.8       4.5       0.8
 0 C  dxy             0.0       0.0       0.1       0.0       0.2       0.0
 1 C  s               1.6       2.6       4.3       0.3       2.4       2.8
 1 C  px              4.9       1.0       1.3       1.8       6.7       0.4
 1 C  py              0.9      12.0       1.3      10.4       0.1       0.1
 1 C  dx2y2           0.0       0.2       0.0       0.0       0.1       0.3
 1 C  dxy             0.0       0.0       0.2       0.0       0.0       0.1
 2 C  s               0.7       8.5       0.4       0.1       0.2       1.3
 2 C  px              2.3       0.2      11.6      14.8       0.2       0.0
 2 C  py              0.1       4.4       0.0       0.1       8.3      23.1
 2 C  dx2y2           0.0       0.0       0.0       0.0       0.0       0.7
 2 C  dxy             0.1       0.0       0.2       0.1       0.0       0.0
 3 C  s               5.4       0.4       7.0       0.1       0.8       2.0
 3 C  px              2.1       2.5       1.3       3.9      14.6       0.5
 3 C  py              1.0       6.0       3.6      10.8       1.5       1.5
 3 C  dx2y2           0.1       0.1       0.0       0.1       0.0       0.5
 4 N  s               1.8       0.2       3.1       0.1       1.1       1.5
 4 N  px              2.6       2.1       0.7       4.3       3.8       0.2
 4 N  py              5.7       8.8       2.5       9.2       1.9       0.2
 4 N  dx2y2           0.2       0.1       0.0       0.1       0.0       0.1
 4 N  dxy             0.0       0.1       0.0       0.0       0.2       0.0
 5 C  s               6.5       6.4       2.4       0.0       0.7       1.0
 5 C  px              0.9       1.3      13.0       9.1       1.9       0.2
 5 C  py              0.1       4.3       0.7       0.4       9.6       9.5
 5 C  dx2y2           0.0       0.0       0.0       0.0       0.0       0.4
 5 C  dxy             0.1       0.0       0.3       0.0       0.0       0.1
 6 C  s               1.4       3.7       3.4       0.0       0.2       3.4
 6 C  px             11.9       0.6       3.7       2.6       5.3       1.9
 6 C  py              1.6       9.9       4.6       7.3       0.1       1.8
 6 C  dx2y2           0.0       0.2       0.0       0.0       0.1       0.3
 6 C  dxy             0.2       0.0       0.3       0.0       0.1       0.0
 7 C  s              17.3       2.2       3.3       0.0       0.4       0.0
 7 C  px              1.0       0.3       4.4       2.6       1.4       4.8
 7 C  py              0.1       2.2       0.1       4.7       2.3       6.4
 7 C  dxy             0.0       0.1       0.0       0.0       0.1       0.2
 8 H  s               1.4       0.8       1.8       0.2       2.0       0.1
 9 H  s               1.4       0.8       1.8       0.2       2.0       0.2
10 H  s               2.4       0.1       2.1       3.9       1.4       0.0
11 H  s               0.1       6.3       0.1       0.0       2.7      17.6
12 H  s               1.9       0.1       5.5       0.0       7.6       3.0
13 H  s               1.3       5.1       1.4       0.1       5.1       8.7
14 H  s               5.3       0.7       2.2       0.5       0.4       0.4
15 H  s               4.3       2.1       0.7       2.1       0.9       2.7
16 H  s               5.3       0.7       2.2       0.5       0.4       0.5

                     18        19        20        21        22        23   
                  -0.40047  -0.37337  -0.36794  -0.36010  -0.35134  -0.34135
                   2.00000   2.00000   2.00000   2.00000   2.00000   2.00000
                  --------  --------  --------  --------  --------  --------
 0 C  s               0.0       0.0       0.0       0.1       0.2       0.0
 0 C  pz             22.2      26.1       0.0       0.0       0.0       4.7
 0 C  px              0.0       0.0       0.6      12.0       0.2       0.0
 0 C  py              0.0       0.0       6.2      12.0      18.8       0.0
 0 C  dz2             0.0       0.0       0.1       0.2       0.2       0.0
 0 C  dyz             0.2       0.4       0.0       0.0       0.0       0.1
 0 C  dxy             0.0       0.0       0.0       0.3       0.0       0.0
 1 C  s               0.0       0.0       0.0       0.0       0.3       0.0
 1 C  pz             12.6       2.1       0.0       0.0       0.0       1.6
 1 C  px              0.0       0.0       0.3       1.8       6.8       0.0
 1 C  py              0.0       0.0       1.1       0.0       0.0       0.0
 1 C  dxz             0.0       0.1       0.0       0.0       0.0       0.2
 1 C  dyz             0.0       0.1       0.0       0.0       0.0       0.0
 1 C  dx2y2           0.0       0.0       0.4       0.0       0.1       0.0
 1 C  dxy             0.0       0.0       0.2       0.1       0.2       0.0
 2 C  s               0.0       0.0       1.0       0.5       0.1       0.0
 2 C  pz              3.5       0.5       0.0       0.0       0.0       8.2
 2 C  px              0.0       0.0       0.5       3.9       1.2       0.0
 2 C  py              0.0       0.0       3.8       2.7       1.9       0.0
 2 C  dx2y2           0.0       0.0       0.0       0.2       0.0       0.0
 2 C  dxy             0.0       0.0       0.2       0.1       0.0       0.0
 3 C  s               0.0       0.0       0.2       0.3       0.0       0.0
 3 C  pz              1.8       0.0       0.0       0.0       0.0      20.5
 3 C  px              0.0       0.0      14.9       1.7       0.1       0.0
 3 C  py              0.0       0.0       4.0       3.1       0.3       0.0
 3 C  dyz             0.0       0.0       0.0       0.0       0.0       0.2
 3 C  dxy             0.0       0.0       0.4       0.0       0.0       0.0
 4 N  pz              2.1       0.2       0.0       0.0       0.0      29.2
 4 N  px              0.0       0.0       0.3       1.8       1.3       0.0
 4 N  py              0.0       0.0       2.2       2.7       0.0       0.0
 4 N  dxz             0.0       0.0       0.0       0.0       0.0       0.1
 4 N  dx2y2           0.0       0.0       0.2       0.0       0.1       0.0
 4 N  dxy             0.0       0.0       0.2       0.0       0.0       0.0
 5 C  s               0.0       0.0       0.4       0.8       0.1       0.0
 5 C  pz              3.6       0.9       0.0       0.0       0.0      15.7
 5 C  px              0.0       0.0       0.0       3.6       0.2       0.0
 5 C  py              0.0       0.0      10.6       0.8       4.5       0.0
 5 C  dxz             0.0       0.0       0.0       0.0       0.0       0.1
 5 C  dyz             0.0       0.0       0.0       0.0       0.0       0.1
 5 C  dx2y2           0.0       0.0       0.1       0.1       0.0       0.0
 5 C  dxy             0.0       0.0       0.1       0.1       0.0       0.0
 6 C  s               0.0       0.0       0.1       0.4       0.3       0.0
 6 C  pz             11.3       3.4       0.0       0.0       0.0       2.2
 6 C  px              0.0       0.0       9.5       5.5       2.3       0.0
 6 C  py              0.0       0.0       4.0       0.0       0.0       0.0
 6 C  dxz             0.0       0.1       0.0       0.0       0.0       0.3
 6 C  dyz             0.0       0.1       0.0       0.0       0.0       0.0
 6 C  dxy             0.0       0.0       0.0       0.2       0.1       0.0
 7 C  s               0.0       0.0       0.1       0.2       0.0       0.0
 7 C  pz             18.3      28.5       0.0       0.0       0.0       6.7
 7 C  px              0.0       0.0      11.0      12.0       2.3       0.0
 7 C  py              0.0       0.0       1.9       1.2      25.7       0.0
 7 C  dz2             0.0       0.0       0.1       0.1       0.1       0.0
 7 C  dxz             0.1       0.3       0.0       0.0       0.0       0.2
 7 C  dx2y2           0.0       0.0       0.0       0.1       0.3       0.0
 8 H  s               6.4       9.3       1.1       2.3       3.2       1.8
 9 H  s               6.3       9.2       1.1       2.4       3.2       1.8
10 H  s               0.0       0.0       2.2      15.2       2.4       0.0
11 H  s               0.0       0.0       1.0       2.9       0.8       0.0
12 H  s               0.0       0.0      11.4       0.0       0.0       0.0
13 H  s               0.0       0.0       4.6       1.3       2.7       0.0
14 H  s               5.7       9.4       1.7       2.4       1.9       3.0
15 H  s               0.0       0.0       0.1       1.9      15.8       0.0
16 H  s               5.5       9.2       1.8       2.4       2.0       2.9

                     24        25        26        27        28        29   
                  -0.33530  -0.30686  -0.24269  -0.22774  -0.19593  -0.04907
                   2.00000   2.00000   2.00000   2.00000   2.00000   0.00000
                  --------  --------  --------  --------  --------  --------
 0 C  s               0.2       0.0       0.0       0.0       0.1       0.0
 0 C  pz              0.0       0.0       3.3       0.1       0.0       0.2
 0 C  px             19.3       1.5       0.0       0.0       0.5       0.0
 0 C  py              2.7       2.8       0.0       0.0       0.1       0.0
 0 C  dxz             0.0       0.0       0.2       0.0       0.0       0.4
 0 C  dyz             0.0       0.0       0.4       0.0       0.0       0.8
 0 C  dx2y2           0.0       0.2       0.0       0.0       0.0       0.0
 0 C  dxy             0.1       0.1       0.0       0.0       0.0       0.0
 1 C  pz              0.0       0.0      27.7       2.6       0.0      30.7
 1 C  px             11.4       3.9       0.0       0.0       0.1       0.0
 1 C  py              7.2      10.7       0.0       0.0       0.1       0.0
 1 C  dxz             0.0       0.0       0.3       0.1       0.0       0.3
 1 C  dyz             0.0       0.0       0.0       0.5       0.0       0.0
 1 C  dx2y2           0.1       0.4       0.0       0.0       0.0       0.0
 1 C  dxy             0.6       0.2       0.0       0.0       0.2       0.0
 2 C  s               0.4       0.1       0.0       0.0       0.6       0.0
 2 C  pz              0.0       0.0      24.8      13.1       0.0      12.1
 2 C  px              2.5       6.0       0.0       0.0       3.1       0.0
 2 C  py              0.1       4.8       0.0       0.0       0.8       0.0
 2 C  dxz             0.0       0.0       0.2       0.3       0.0       0.9
 2 C  dyz             0.0       0.0       0.0       0.0       0.0       0.1
 2 C  dx2y2           0.2       0.7       0.0       0.0       0.1       0.0
 2 C  dxy             0.4       0.1       0.0       0.0       0.0       0.0
 3 C  s               0.5       0.1       0.0       0.0       0.4       0.0
 3 C  pz              0.0       0.0       0.0      25.5       0.0       3.5
 3 C  px              2.7       3.7       0.0       0.0       1.5       0.0
 3 C  py              0.0       3.4       0.0       0.0       2.9       0.0
 3 C  dxz             0.0       0.0       0.2       0.0       0.0       0.2
 3 C  dyz             0.0       0.0       0.6       0.0       0.0       1.2
 3 C  dx2y2           0.0       0.4       0.0       0.0       0.0       0.0
 3 C  dxy             0.0       0.4       0.0       0.0       1.9       0.0
 4 N  s               1.3       0.0       0.0       0.0       9.6       0.0
 4 N  pz              0.0       0.0      22.2       1.0       0.0      23.6
 4 N  px              4.6       1.1       0.0       0.0      44.6       0.0
 4 N  py              2.3       4.5       0.0       0.0      13.8       0.0
 4 N  dz2             0.0       0.0       0.0       0.0       0.2       0.0
 4 N  dxz             0.0       0.0       0.1       0.1       0.0       0.1
 4 N  dyz             0.0       0.0       0.0       0.4       0.0       0.0
 4 N  dx2y2           0.0       0.1       0.0       0.0       0.0       0.0
 5 C  s               1.3       0.1       0.0       0.0       0.4       0.0
 5 C  pz              0.0       0.0       7.2      20.8       0.0      14.3
 5 C  px              3.2       0.4       0.0       0.0       4.2       0.0
 5 C  py              1.7       6.0       0.0       0.0       0.3       0.0
 5 C  dxz             0.0       0.0       0.5       0.3       0.0       0.9
 5 C  dyz             0.0       0.0       0.0       0.0       0.0       0.2
 5 C  dx2y2           0.0       0.8       0.0       0.0       1.5       0.0
 5 C  dxy             0.0       0.1       0.0       0.0       0.4       0.0
 6 C  s               0.3       0.0       0.0       0.0       0.5       0.0
 6 C  pz              0.0       0.0       4.7      26.9       0.0       2.6
 6 C  px              2.3       0.5       0.0       0.0       3.2       0.0
 6 C  py              3.8      10.7       0.0       0.0       1.0       0.0
 6 C  dxz             0.0       0.0       0.0       0.2       0.0       0.3
 6 C  dyz             0.0       0.0       0.5       0.0       0.0       1.3
 6 C  dx2y2           0.6       0.4       0.0       0.0       0.0       0.0
 6 C  dxy             0.5       0.4       0.0       0.0       0.1       0.0
 7 C  s               0.0       0.2       0.0       0.0       0.1       0.0
 7 C  pz              0.0       0.0       0.5       2.1       0.0       0.2
 7 C  px              6.9       4.9       0.0       0.0       0.6       0.0
 7 C  py              5.7       3.8       0.0       0.0       0.1       0.0
 7 C  dz2             0.1       0.0       0.0       0.0       0.0       0.0
 7 C  dxz             0.0       0.0       0.1       0.6       0.0       0.2
 7 C  dx2y2           0.3       0.1       0.0       0.0       0.1       0.0
 8 H  s               0.7       0.9       2.8       0.1       0.0       2.5
 9 H  s               0.7       0.9       2.8       0.1       0.0       2.5
10 H  s               2.7       3.7       0.0       0.0       0.0       0.0
11 H  s               0.6       5.2       0.0       0.0       0.8       0.0
12 H  s               0.6       6.9       0.0       0.0       2.7       0.0
13 H  s               0.4       6.8       0.0       0.0       2.7       0.0
14 H  s               2.2       0.2       0.4       2.5       0.1       0.5
15 H  s               6.2       1.5       0.0       0.0       0.2       0.0
16 H  s               2.3       0.2       0.4       2.5       0.1       0.5

                     30        31        32        33        34        35   
                  -0.03610   0.03802   0.06275   0.07102   0.07911   0.09319
                   0.00000   0.00000   0.00000   0.00000   0.00000   0.00000
                  --------  --------  --------  --------  --------  --------
 0 C  s               0.0      12.6       1.6       4.6       0.0       4.5
 0 C  pz              0.2       0.0       0.0       0.0       6.6       0.0
 0 C  px              0.0       2.5       0.1       0.9       0.0       0.1
 0 C  py              0.0       0.4       5.8       0.1       0.0       3.1
 0 C  dz2             0.0       0.0       0.1       0.0       0.0       0.0
 0 C  dyz             0.0       0.0       0.0       0.0       1.0       0.0
 0 C  dxy             0.0       0.0       0.0       0.2       0.0       0.0
 1 C  s               0.0       0.3       0.1       1.0       0.0       0.3
 1 C  pz              0.9       0.0       0.0       0.0       2.4       0.0
 1 C  px              0.0       0.1       0.0       0.6       0.0       0.1
 1 C  py              0.0       0.1       1.1       0.1       0.0       0.2
 1 C  dz2             0.0       0.1       0.0       0.3       0.0       0.0
 1 C  dxz             0.3       0.0       0.0       0.0       0.5       0.0
 1 C  dyz             1.2       0.0       0.0       0.0       0.0       0.0
 1 C  dx2y2           0.0       0.0       0.9       0.2       0.0       0.0
 1 C  dxy             0.0       0.0       0.1       0.7       0.0       0.2
 2 C  s               0.0       0.7       2.7       1.4       0.0       0.9
 2 C  pz             18.2       0.0       0.0       0.0       5.9       0.0
 2 C  py              0.0       0.7       6.4       2.7       0.0       0.8
 2 C  dxz             0.7       0.0       0.0       0.0       0.1       0.0
 2 C  dyz             0.2       0.0       0.0       0.0       0.3       0.0
 2 C  dx2y2           0.0       0.0       0.5       0.6       0.0       0.2
 3 C  s               0.0       0.0       0.8       3.0       0.0       0.8
 3 C  pz             28.5       0.0       0.0       0.0      10.4       0.0
 3 C  px              0.0       0.2       1.5       2.6       0.0       1.5
 3 C  py              0.0       0.0       1.0       0.4       0.0       1.0
 3 C  dz2             0.0       0.0       0.0       0.1       0.0       0.0
 3 C  dxz             0.5       0.0       0.0       0.0       0.1       0.0
 3 C  dyz             0.0       0.0       0.0       0.0       0.3       0.0
 3 C  dx2y2           0.0       0.0       0.3       0.2       0.0       0.0
 3 C  dxy             0.0       0.0       0.1       0.2       0.0       0.0
 4 N  pz              0.9       0.0       0.0       0.0      12.7       0.0
 4 N  px              0.0       0.0       0.2       0.4       0.0       0.2
 4 N  py              0.0       0.1       0.3       0.1       0.0       0.2
 4 N  dxz             0.2       0.0       0.0       0.0       0.1       0.0
 4 N  dyz             0.9       0.0       0.0       0.0       0.0       0.0
 4 N  dx2y2           0.0       0.0       0.0       0.2       0.0       0.1
 4 N  dxy             0.0       0.0       0.0       0.4       0.0       0.0
 5 C  s               0.0       0.5       0.3       3.5       0.0       0.1
 5 C  pz             16.4       0.0       0.0       0.0      11.1       0.0
 5 C  px              0.0       0.0       0.1       0.2       0.0       0.4
 5 C  py              0.0       0.3       1.2       4.9       0.0       3.8
 5 C  dz2             0.0       0.0       0.0       0.1       0.0       0.0
 5 C  dxz             0.8       0.0       0.0       0.0       0.0       0.0
 5 C  dyz             0.1       0.0       0.0       0.0       0.3       0.0
 5 C  dx2y2           0.0       0.0       0.0       0.2       0.0       0.0
 6 C  s               0.0       0.2       0.3       0.6       0.0       0.3
 6 C  pz             25.4       0.0       0.0       0.0       5.9       0.0
 6 C  px              0.0       0.1       0.1       0.3       0.0       0.8
 6 C  py              0.0       0.2       0.5       0.4       0.0       0.3
 6 C  dz2             0.0       0.1       0.2       0.0       0.0       0.1
 6 C  dxz             0.3       0.0       0.0       0.0       0.5       0.0
 6 C  dyz             0.0       0.0       0.0       0.0       0.1       0.0
 6 C  dx2y2           0.0       0.0       0.1       0.5       0.0       1.1
 6 C  dxy             0.0       0.0       0.0       0.5       0.0       0.0
 7 C  s               0.0      11.6       6.7       0.1       0.0       2.5
 7 C  pz              0.0       0.0       0.0       0.0       6.1       0.0
 7 C  px              0.0       2.6       0.2       0.1       0.0       4.5
 7 C  py              0.0       0.2       1.2       5.9       0.0       5.7
 7 C  dz2             0.0       0.0       0.0       0.0       0.0       0.4
 7 C  dxz             0.8       0.0       0.0       0.0       0.8       0.0
 7 C  dyz             0.1       0.0       0.0       0.0       0.0       0.0
 7 C  dx2y2           0.0       0.0       0.0       0.1       0.0       0.4
 7 C  dxy             0.0       0.1       0.0       0.2       0.0       0.1
 8 H  s               0.1      10.0       7.4       3.5       8.7       8.3
 9 H  s               0.1      10.1       7.3       3.5       8.8       8.2
10 H  s               0.0      11.9       0.8       0.9       0.0       0.1
11 H  s               0.0       2.8      23.2       8.3       0.0       2.8
12 H  s               0.0       0.1       6.3      13.7       0.0       6.7
13 H  s               0.0       1.4       3.7      20.4       0.0       7.7
14 H  s               1.5      12.0       3.5       0.3       8.7      11.5
15 H  s               0.0       5.6       9.6      10.2       0.0       7.8
16 H  s               1.5      12.0       3.4       0.3       8.4      11.7

                     36        37        38        39        40        41   
                   0.11257   0.11357   0.12645   0.13217   0.14555   0.17690
                   0.00000   0.00000   0.00000   0.00000   0.00000   0.00000
                  --------  --------  --------  --------  --------  --------
 0 C  s               0.0       0.2       2.8       0.8       0.0       1.1
 0 C  pz             12.3       0.7       0.0       0.0       9.6       0.0
 0 C  px              0.4       7.3       2.1       1.2       0.0      13.3
 0 C  py              0.4       6.2       4.5       0.0       0.0       6.9
 0 C  dz2             0.0       0.7       0.5       0.0       0.0       1.4
 0 C  dxz             0.0       0.0       0.0       0.0       0.6       0.0
 0 C  dyz             0.2       0.0       0.0       0.0       0.1       0.0
 0 C  dx2y2           0.0       0.1       0.0       0.1       0.0       1.5
 0 C  dxy             0.1       1.1       0.0       0.0       0.0       2.7
 1 C  s               0.1       1.2       0.1       0.3       0.0       9.0
 1 C  pz              0.5       0.0       0.0       0.0      12.8       0.0
 1 C  px              0.0       0.5       1.2       1.5       0.0       3.8
 1 C  py              0.0       0.2       0.1       0.1       0.0       3.2
 1 C  dz2             0.0       0.1       0.0       0.0       0.0       1.1
 1 C  dxz             0.2       0.0       0.0       0.0       0.0       0.0
 1 C  dyz             0.3       0.0       0.0       0.0       0.0       0.0
 1 C  dx2y2           0.0       0.6       0.4       0.1       0.0       0.4
 1 C  dxy             0.0       0.8       0.4       0.3       0.0       0.7
 2 C  s               0.2       3.3       1.3       0.5       0.0       2.2
 2 C  pz              0.5       0.0       0.0       0.0      10.5       0.0
 2 C  px              0.0       0.2       0.6       0.4       0.0       0.1
 2 C  py              0.1       1.0       0.8       3.7       0.0       0.3
 2 C  dz2             0.0       0.4       0.1       0.0       0.0       0.1
 2 C  dxz             0.0       0.0       0.0       0.0       0.1       0.0
 2 C  dyz             0.0       0.0       0.0       0.0       0.5       0.0
 2 C  dx2y2           0.0       0.1       0.0       0.0       0.0       1.5
 2 C  dxy             0.0       0.1       0.2       0.0       0.0       0.0
 3 C  s               0.2       3.4       2.8       1.5       0.0       0.4
 3 C  pz              0.0       0.0       0.0       0.0       6.0       0.0
 3 C  px              0.0       0.9       5.2       0.5       0.0       0.4
 3 C  py              0.0       0.9       0.9       0.1       0.0       3.0
 3 C  dz2             0.0       0.1       0.1       0.1       0.0       0.0
 3 C  dxz             0.0       0.0       0.0       0.0       0.3       0.0
 3 C  dx2y2           0.0       0.0       0.0       0.1       0.0       0.9
 3 C  dxy             0.0       0.0       0.0       0.0       0.0       0.2
 4 N  s               0.0       0.1       0.2       0.1       0.0       1.6
 4 N  pz              0.0       0.0       0.0       0.0       5.4       0.0
 4 N  px              0.0       0.1       0.0       0.3       0.0       0.6
 4 N  py              0.0       0.1       0.3       0.3       0.0       0.0
 4 N  dz2             0.0       0.0       0.0       0.0       0.0       0.1
 4 N  dx2y2           0.0       0.0       0.0       0.1       0.0       0.0
 4 N  dxy             0.0       0.0       0.1       0.1       0.0       0.2
 5 C  s               0.0       0.1       1.5       3.9       0.0       1.8
 5 C  pz              0.5       0.0       0.0       0.0       5.4       0.0
 5 C  px              0.0       0.4       1.1       0.9       0.0       0.5
 5 C  py              0.0       0.1       1.5       4.2       0.0       0.5
 5 C  dz2             0.0       0.0       0.0       0.2       0.0       0.1
 5 C  dyz             0.1       0.0       0.0       0.0       0.4       0.0
 5 C  dx2y2           0.0       0.0       0.0       0.2       0.0       0.6
 5 C  dxy             0.0       0.3       0.2       0.3       0.0       0.4
 6 C  s               0.0       0.6       0.3       0.0       0.0       3.2
 6 C  pz              1.3       0.1       0.0       0.0       9.6       0.0
 6 C  px              0.0       0.4       1.0       1.3       0.0       2.1
 6 C  py              0.0       0.8       0.1       0.1       0.0       2.6
 6 C  dz2             0.0       0.0       0.0       0.0       0.0       0.5
 6 C  dxz             0.2       0.0       0.0       0.0       0.0       0.0
 6 C  dyz             0.3       0.0       0.0       0.0       0.1       0.0
 6 C  dx2y2           0.0       0.0       0.1       0.0       0.0       0.4
 6 C  dxy             0.0       0.4       1.1       1.0       0.0       0.9
 7 C  s               0.1       2.6       0.1       3.9       0.0       0.4
 7 C  pz             15.0       0.8       0.0       0.0       5.3       0.0
 7 C  px              0.0       0.2       4.6       3.4       0.0       5.3
 7 C  py              0.1       1.4       0.7       5.5       0.0       5.5
 7 C  dz2             0.0       0.1       1.0       0.6       0.0       0.2
 7 C  dxz             0.4       0.0       0.0       0.0       0.1       0.0
 7 C  dyz             0.3       0.0       0.0       0.0       0.4       0.0
 7 C  dx2y2           0.0       0.0       0.2       0.2       0.0       0.9
 7 C  dxy             0.0       0.2       0.0       0.1       0.0       1.7
 8 H  s              11.1       6.5       0.2       0.5      10.2       1.1
 9 H  s              16.7       1.0       0.2       0.6      10.2       1.1
10 H  s               1.6      26.8      16.0       2.4       0.0       0.2
11 H  s               0.4       7.6       5.4      10.3       0.0       5.6
12 H  s               0.6      11.3      23.2       5.2       0.0       0.1
13 H  s               0.0       0.3       6.1      18.1       0.0       5.7
14 H  s              20.1       0.1       3.3       0.3       6.2       0.1
15 H  s               0.1       2.7       3.6      24.1       0.0       1.6
16 H  s              15.3       4.5       3.6       0.3       6.1       0.2

                     42        43        44        45        46        47   
                   0.18886   0.22603   0.26122   0.28462   0.31309   0.32387
                   0.00000   0.00000   0.00000   0.00000   0.00000   0.00000
                  --------  --------  --------  --------  --------  --------
 0 C  s               0.1       0.5       0.0       0.1       0.2       1.6
 0 C  px              0.9      10.6       1.8       0.9       0.4       6.2
 0 C  py              0.4       2.7       4.8       2.1       0.9       2.3
 0 C  dz2             0.0       0.7       1.3       0.4       0.0       0.2
 0 C  dx2y2           0.0       0.6       0.4       1.2       0.7       0.2
 0 C  dxy             0.4       2.6       0.5       0.8       0.0       0.5
 1 C  s               7.5       3.7       5.0       5.2       2.0       2.3
 1 C  px              1.0       3.4       8.3       0.4       1.7       1.2
 1 C  py              0.2       1.8       2.5       6.6       0.2       1.2
 1 C  dz2             0.5       0.8       1.1       1.4       0.8       1.0
 1 C  dx2y2           0.1       0.0       0.1       4.7       0.4       0.0
 1 C  dxy             0.3       0.0       1.9       0.0       3.2       0.1
 2 C  s               1.1       2.0       2.3       4.8       4.0       8.0
 2 C  px              3.7       1.0      11.8       2.9       0.4       2.5
 2 C  py              0.2       0.8       0.6       2.3       2.8       1.5
[...]
 3 C  pz              0.6       0.0       0.0       0.0       0.0       0.1
 3 C  px              0.0       0.1       0.9       0.7       0.8       0.0
 3 C  py              0.0       0.2       0.3       1.1       1.6       0.0
 3 C  dz2             0.0       0.1       3.3       0.2       0.5       0.0
 3 C  dxz             1.3       0.0       0.0       0.0       0.0       2.6
 3 C  dyz            12.6       0.0       0.0       0.0       0.0      13.4
 3 C  dx2y2           0.0       0.2       2.3      14.7       1.2       0.0
 3 C  dxy             0.0       3.0       2.1       2.2      13.5       0.0
 4 N  s               0.0       0.0       2.8       3.3       0.5       0.0
 4 N  pz              2.5       0.0       0.0       0.0       0.0       0.0
 4 N  px              0.0       0.0       1.3       1.1       1.0       0.0
 4 N  py              0.0       0.2       0.6       0.9       1.0       0.0
 4 N  dz2             0.0       0.0      33.9      10.2       2.6       0.0
 4 N  dxz            43.3       0.0       0.0       0.0       0.0      12.4
 4 N  dyz            14.9       0.0       0.0       0.0       0.0      38.3
 4 N  dx2y2           0.0       0.8       1.5       1.7       2.6       0.0
 4 N  dxy             0.0       2.6       5.9       1.2       0.2       0.0
 5 C  s               0.0       1.5       1.5       0.2       0.3       0.0
 5 C  pz              0.6       0.0       0.0       0.0       0.0       0.1
 5 C  px              0.0       1.4       0.2       2.4       0.0       0.0
 5 C  py              0.0       0.3       0.6       0.1       0.0       0.0
 5 C  dz2             0.0       5.2       2.6       0.0       0.9       0.0
 5 C  dxz             4.9       0.0       0.0       0.0       0.0      16.1
 5 C  dyz             8.5       0.0       0.0       0.0       0.0       0.4
 5 C  dx2y2           0.0       0.5       3.0       4.6      13.2       0.0
 5 C  dxy             0.0       0.8       0.1      11.8       4.0       0.0
 6 C  s               0.0       8.7       0.0       0.5       0.0       0.0
 6 C  px              0.0       0.1       0.2       2.3       0.4       0.0
 6 C  py              0.0       0.3       0.1       0.3       0.0       0.0
 6 C  dz2             0.0      26.4       0.0       0.1       0.0       0.0
 6 C  dxz             0.9       0.0       0.0       0.0       0.0       2.2
 6 C  dyz             3.2       0.0       0.0       0.0       0.0       3.9
 6 C  dx2y2           0.0       0.1       4.9       4.7      10.9       0.0
 6 C  dxy             0.0       0.8       1.9       4.4       6.4       0.0
 7 C  s               0.0       0.3       0.0       0.2       0.3       0.0
 7 C  px              0.0       0.4       0.0       0.2       0.3       0.0
 7 C  py              0.0       0.1       0.0       0.0       0.4       0.0
 7 C  dz2             0.0       3.1       0.0       0.1       0.6       0.0
 7 C  dxz             1.2       0.0       0.0       0.0       0.0       0.1
 7 C  dx2y2           0.0       0.0       1.5       1.4       0.5       0.0
 7 C  dxy             0.0       2.1       0.0       0.2       3.8       0.0
11 H  s               0.0       0.1       0.0       0.1       0.8       0.0
12 H  s               0.0       0.2       0.5       0.0       0.7       0.0
13 H  s               0.0       0.0       0.4       0.2       0.6       0.0
14 H  s               0.0       0.1       0.0       0.0       0.0       0.0
16 H  s               0.0       0.1       0.0       0.0       0.0       0.0

                    126       127       128       129   
                   2.84506   2.87344   3.18755   3.39903
                   0.00000   0.00000   0.00000   0.00000
                  --------  --------  --------  --------
 0 C  s               0.3       0.1       0.0       0.1
 0 C  px              0.6       0.3       0.0       0.2
 0 C  py              0.3       0.0       0.0       0.1
 0 C  dz2             0.4       0.3       0.0       0.1
 0 C  dx2y2           0.0       5.0       0.1       0.1
 0 C  dxy             4.2       0.1       0.0       0.6
 1 C  s               0.0       0.1       0.0       0.3
 1 C  px              0.0       0.6       0.2       0.1
 1 C  py              1.3       1.4       0.5       0.0
 1 C  dz2             0.1       0.2       0.0       0.1
 1 C  dx2y2          16.6      13.4       1.4       2.5
 1 C  dxy             7.2      19.0       0.6       8.4
 2 C  s               0.1       0.3       0.0       0.8
 2 C  px              0.2       2.6       0.9       0.0
 2 C  py              0.2       0.3       0.0       0.0
 2 C  dz2             0.0       0.0       0.0       0.5
 2 C  dx2y2           4.0       0.0       0.1      10.0
 2 C  dxy             2.5       6.6       2.2       0.0
 3 C  s               0.1       2.6       1.5       1.3
 3 C  px              0.3       0.3       0.1       0.0
 3 C  py              1.0       0.5       4.0       0.1
 3 C  dz2             0.7       1.1       0.2       1.0
 3 C  dx2y2           0.0       0.2       6.8       2.7
 3 C  dxy             1.5       1.1       1.2      10.1
 4 N  s               1.5       0.3       0.0       1.8
 4 N  px              0.2       0.1       1.6       0.2
 4 N  py              0.1       0.8       4.8       0.0
 4 N  dz2            12.1       1.6       0.0       2.9
 4 N  dx2y2           0.8       9.5      38.0       6.8
 4 N  dxy            14.0       0.0      14.8      18.3
 5 C  s               2.1       1.0       1.6       1.3
 5 C  px              0.9       0.6       3.9       0.1
 5 C  py              0.6       0.5       0.6       0.0
 5 C  dz2             2.2       0.0       0.2       1.1
 5 C  dx2y2           0.3       0.1       0.0      13.4
 5 C  dxy             1.5       0.0       9.4       0.1
 6 C  s               0.1       0.5       0.0       0.4
 6 C  px              0.2       0.1       0.4       0.2
 6 C  py              2.4       1.3       0.3       0.0
 6 C  dz2             0.4       0.2       0.0       0.2
 6 C  dx2y2           8.4      10.9       3.5       1.4
 6 C  dxy             6.0      12.1       0.4      10.6
 7 C  s               0.5       0.1       0.0       0.1
 7 C  px              0.4       0.2       0.0       0.2
 7 C  py              0.4       0.0       0.0       0.1
 7 C  dz2             0.4       0.0       0.0       0.0
 7 C  dx2y2           0.1       3.6       0.4       0.1
 7 C  dxy             2.4       0.0       0.0       0.6
10 H  s               0.1       0.0       0.0       0.0
11 H  s               0.2       0.0       0.0       0.3
12 H  s               0.0       0.0       0.0       0.3
13 H  s               0.0       0.0       0.0       0.3


                      *****************************
                      * MAYER POPULATION ANALYSIS *
                      *****************************

  NA   - Mulliken gross atomic population
  ZA   - Total nuclear charge
  QA   - Mulliken gross atomic charge
  VA   - Mayer's total valence
  BVA  - Mayer's bonded valence
  FA   - Mayer's free valence

  ATOM       NA         ZA         QA         VA         BVA        FA
  0 C      6.2248     6.0000    -0.2248     3.9134     3.9134     0.0000
  1 C      5.9957     6.0000     0.0043     4.1301     4.1301    -0.0000
  2 C      6.1220     6.0000    -0.1220     3.8392     3.8392    -0.0000
  3 C      6.0553     6.0000    -0.0553     4.0171     4.0171    -0.0000
  4 N      7.0462     7.0000    -0.0462     3.2352     3.2352    -0.0000
  5 C      6.1209     6.0000    -0.1209     4.0412     4.0412    -0.0000
  6 C      6.0541     6.0000    -0.0541     4.0681     4.0681    -0.0000
  7 C      6.2331     6.0000    -0.2331     3.9430     3.9430     0.0000
  8 H      0.8790     1.0000     0.1210     0.9540     0.9540     0.0000
  9 H      0.8789     1.0000     0.1211     0.9540     0.9540     0.0000
 10 H      0.8950     1.0000     0.1050     0.9760     0.9760     0.0000
 11 H      0.9571     1.0000     0.0429     0.9640     0.9640    -0.0000
 12 H      0.9368     1.0000     0.0632     0.9557     0.9557     0.0000
 13 H      0.9500     1.0000     0.0500     0.9692     0.9692    -0.0000
 14 H      0.8793     1.0000     0.1207     0.9490     0.9490    -0.0000
 15 H      0.8924     1.0000     0.1076     0.9667     0.9667    -0.0000
 16 H      0.8793     1.0000     0.1207     0.9490     0.9490     0.0000

  Mayer bond orders larger than 0.100000
B(  0-C ,  1-C ) :   1.1318 B(  0-C ,  8-H ) :   0.9320 B(  0-C ,  9-H ) :   0.9319 
B(  0-C , 10-H ) :   0.9298 B(  1-C ,  2-C ) :   1.4042 B(  1-C ,  6-C ) :   1.4291 
B(  2-C ,  3-C ) :   1.3858 B(  2-C , 11-H ) :   0.9465 B(  3-C ,  4-N ) :   1.5397 
B(  3-C , 12-H ) :   0.9523 B(  4-N ,  5-C ) :   1.5689 B(  5-C ,  6-C ) :   1.3678 
B(  5-C , 13-H ) :   0.9448 B(  6-C ,  7-C ) :   1.1185 B(  7-C , 14-H ) :   0.9271 
B(  7-C , 15-H ) :   0.9352 B(  7-C , 16-H ) :   0.9270 

-------
TIMINGS
-------

Total SCF time: 0 days 0 hours 0 min 2 sec 

Total time                  ....       2.065 sec
Sum of individual times     ....       2.048 sec  ( 99.2%)

SCF preparation             ....       0.027 sec  (  1.3%)
Fock matrix formation       ....       1.950 sec  ( 94.4%)
  Startup                   ....       0.001 sec  (  0.1% of F)
  Split-RI-J                ....       0.889 sec  ( 45.6% of F)
  XC integration            ....       1.053 sec  ( 54.0% of F)
    XC Preparation          ....       0.000 sec  (  0.0% of XC)
    Basis function eval.    ....       0.450 sec  ( 42.7% of XC)
    Density eval.           ....       0.221 sec  ( 20.9% of XC)
    XC-Functional eval.     ....       0.083 sec  (  7.9% of XC)
    XC-Potential eval.      ....       0.257 sec  ( 24.4% of XC)
Diagonalization             ....       0.000 sec  (  0.0%)
Density matrix formation    ....       0.005 sec  (  0.2%)
Total Energy calculation    ....       0.001 sec  (  0.0%)
Population analysis         ....       0.043 sec  (  2.1%)
Orbital Transformation      ....       0.004 sec  (  0.2%)
Orbital Orthonormalization  ....       0.000 sec  (  0.0%)
DIIS solution               ....       0.016 sec  (  0.8%)
  MO trafo                  ....       0.000 sec  (  0.0 % of DIIS)
  Orb grad                  ....       0.000 sec  (  0.0 % of DIIS)
  Energy W gradient         ....       0.000 sec  (  0.0 % of DIIS)
  DIIS error                ....       0.001 sec  (  9.4 % of DIIS)
  DIIS work                 ....       0.012 sec  ( 77.7 % of DIIS)
  Form Q                    ....       0.000 sec  (  0.0 % of DIIS)
  Form QpQm                 ....       0.000 sec  (  0.0 % of DIIS)
  Exp/Cayley                ....       0.000 sec  (  0.0 % of DIIS)
  Orb update                ....       0.000 sec  (  0.0 % of DIIS)
  Wake-sleep                ....       0.000 sec  (  1.6 % of DIIS)
SOSCF solution              ....       0.004 sec  (  0.2%)
  MO trafo                  ....       0.002 sec  ( 63.5 % of SOSCF)
  Orb grad                  ....       0.000 sec  (  1.3 % of SOSCF)
  Rot update                ....       0.000 sec  (  3.1 % of SOSCF)
  Step                      ....       0.001 sec  ( 31.5 % of SOSCF)
Finished LeanSCF after   2.1 sec

Maximum memory used throughout the entire LEANSCF-calculation: 12.5 MB


-------------------------------------------------------------------------------
                          DFT DISPERSION CORRECTION                            
                                                                               
                                DFTD4 V3.4.0                                   
-------------------------------------------------------------------------------
The PBE functional is recognized
Active option DFTDOPT                   ...         5   

-------------------------   ----------------
Dispersion correction           -0.016729185
-------------------------   ----------------

------------------   -----------------
gCP correction             0.065187010
------------------   -----------------

-------------------------   --------------------
FINAL SINGLE POINT ENERGY      -326.181809408839
-------------------------   --------------------


------------------------------------------------------------------------------
                              ORCA PROPERTY CALCULATIONS
------------------------------------------------------------------------------

GBWName                                 ... sp.gbw
Number of atoms                         ...     17
Number of basis functions               ...    130
Max core memory                         ...   1024 MB

Electric properties:
Dipole moment                           ... YES
Quadrupole moment                       ...  NO
Static polarizability (Dipole/Dipole)   ...  NO
Static polarizability (Dipole/Quad.)    ...  NO
Static polarizability (Quad./Quad.)     ...  NO
Static polarizability (Velocity)        ...  NO

Atomic electric properties:
Dipole moment                           ...  NO
Quadrupole moment                       ...  NO
Static polarizability                   ...  NO

Choice of electric origin               ... Center of mass
Position of electric origin             ...     0.000005     0.000002    -0.000000

General magnetic properties:
Magnetizability                         ...  NO

EPR properties:
g-Tensor (aka g-matrix)                 ...  NO
Zero-Field splitting spin-orbit         ...  NO
Zero-field splitting spin-spin          ...  NO
Hyperfine couplings                     ...  NO (   0 nuclei)
Quadrupole couplings                    ...  NO (   0 nuclei)
Contact density                         ...  NO (   0 nuclei)

NMR properties:
Chemical shifts                         ...  NO (   0 nuclei)
Spin-rotation constants                 ...  NO (   0 nuclei)
Spin-spin couplings                     ...  NO (   0 nuclei,    0 pairs)

Choice of magnetic origin               ... GIAO
Position of magnetic origin             ...     0.000000     0.000000     0.000000

Properties with geometric perturbations:
SCF Hessian                             ...  NO
IR spectrum                             ...  NO
VCD spectrum                            ...  NO
X-ray spectroscopy properties:
SCF XES/XAS/RIXS spectra                ...  NO


-------------
DIPOLE MOMENT
-------------

Method             : SCF
Type of density    : Electron Density
Multiplicity       :   1
Irrep              :   0
Energy             :  -326.2302672335043212 Eh
Relativity type    : 
Basis              : AO
                                X                 Y                 Z
Electronic contribution:     -6.913368704       0.516853884       0.001267691
Nuclear contribution   :      7.920639190      -0.941269794      -0.001730662
                        -----------------------------------------
Total Dipole Moment    :      1.007270486      -0.424415910      -0.000462972
                        -----------------------------------------
Magnitude (a.u.)       :      1.093033811
Magnitude (Debye)      :      2.778271155



--------------------
Rotational spectrum 
--------------------
 
Rotational constants in cm-1:             0.106760             0.074386             0.044566 
Rotational constants in MHz :          3200.582456          2230.025999          1336.040387 

Dipole components along the rotational axes: 
x,y,z [a.u.] :     1.008789    -0.420794    -0.000452 
x,y,z [Debye]:     2.564138    -1.069573    -0.001150 

 

Dipole moment calculation done in   0.0 sec 

Maximum memory used throughout the entire PROP-calculation: 8.1 MB

--------------------------------
SUGGESTED CITATIONS FOR THIS RUN
--------------------------------

Below you find a list of papers that are relevant to this ORCA run
We neither can nor want to force you to cite these papers, but we appreciate if you do
You receive ORCA, which is the product of decades of hard work by many enthusiastic individuals, for free
The only thing we kindly ask in return is that you cite our papers,
We deeply appreciate it, if you show your appreciation for ORCA by not just citing the generic ORCA reference.

Please note that relegating all ORCA citations to the supporting information does *not* help us.
SI sections are not indexed - citations you put there will not count into any citation statistics
But we need these citations in order to attract the funding resources that allow us to do what we are doing

Therefore, if you are a happy ORCA user, please consider citing a few of the papers listed below in the main body of your paper

In addition to the list printed below, the program has created the file sp.bibtex that contains the list in bibtex format
You can import this file easily into all common literature databanks and citation aid programs


List of essential papers. We consider these as the minimum necessary citations

  1. Neese,F.
     Software update: the ORCA program system, version 5.0
     WIRES Comput. Molec. Sci., 2022 12(1)e1606
     doi.org/10.1002/wcms.1606

List of papers to cite with high priority. The work reported in these papers was absolutely
necessary for this run to complete.
Our perspective: the developers of density functionals and basis sets usually get cited in chemistry papers
Good! But without the algorithms to do something with them, the functionals or basis sets would not do anything.
Hence, in our opinion, the algorithm design and method developments papers are equally worthy of getting cited

  1. Neese,F.
     An improvement of the resolution of the identity approximation for the formation of the Coulomb matrix
     J. Comp. Chem., 2003 24(14)1740-1747
     doi.org/10.1002/jcc.10318
  2. Neese,F.
     The SHARK Integral Generation and Digestion System
     J. Comp. Chem., 2022  1-16
     doi.org/10.1002/jcc.26942
  3. Caldeweyher,E.; Bannwarth,C.; Grimme,S.
     Extension of the D3 dispersion coefficient model
     J. Chem. Phys., 2017 147 034112
     doi.org/10.1063/1.4993215
  4. Caldeweyher,E.; Ehlert,S.; Hansen,A.; Neugebauer,H.; Spicher,S.; Bannwarth,C.; Grimme,S.
     A generally applicable atomic-charge dependent London dispersion correction
     J. Chem. Phys., 2019 150 154122
     doi.org/10.1063/1.5090222
  5. Caldeweyher,E.; Mewes,J.; Ehlert,S.; Grimme,S.
     Extension and evaluation of the D4 London-dispersion model for periodic systems
     Phys. Chem. Chem. Phys., 2020 22(16)8499-8512
     doi.org/10.1039/D0CP00502A
  6. Wittmann,L.; Gordiy,I.; Friede,M.; Helmich-Paris,B.; Grimme,S.; Hansen,A.; Bursch,M.
     Extension of the D3 and D4 London Dispersion Corrections to the full Actinides Series
     Phys. Chem. Chem. Phys., 2024 26(32)21379-21394
     doi.org/https://doi.org/10.1039/D4CP01514B 

List of suggested additional citations. These are papers that are important in the 'surrounding' of 
of this run, or papers that preceded the highly important papers. If you like your results we are grateful for a citation.

  1. Neese,F.
     The ORCA program system
     WIRES Comput. Molec. Sci., 2012 2(1)73-78
     doi.org/10.1002/wcms.81
  2. Neese,F.
     Software update: the ORCA program system, version 4.0
     WIRES Comput. Molec. Sci., 2018 8(1)1-6
     doi.org/10.1002/wcms.1327
  3. Neese,F.; Wennmohs,F.; Becker,U.; Riplinger,C.
     The ORCA quantum chemistry program package
     J. Chem. Phys., 2020 152 Art. No. L224108
     doi.org/10.1063/5.0004608

List of optional additional citations

  1. Neese,F.
     Approximate second-order SCF convergence for spin unrestricted wavefunctions
     Chem. Phys. Lett., 2000 325(1-3)93-98
     doi.org/10.1016/s0009-2614(00)00662-x

Timings for individual modules:

Sum of individual times          ...        2.620 sec (=   0.044 min)
Startup calculation              ...        0.239 sec (=   0.004 min)   9.1 %
SCF iterations                   ...        2.348 sec (=   0.039 min)  89.6 %
Property calculations            ...        0.033 sec (=   0.001 min)   1.3 %
                             ****ORCA TERMINATED NORMALLY****
TOTAL RUN TIME: 0 days 0 hours 0 minutes 2 seconds 694 msec
