12
 energy: -23.980039016449 gnorm: 0.014445041123 xtb: 6.7.1 (41059b4)
C           -2.47188137252037        0.69583536535600        0.00001378780662
C           -2.47193382594532       -0.69567029860212       -0.00006659115776
C           -1.27013533229101       -1.39164358897066       -0.00009958231175
C           -0.06258038589197       -0.69843130355620       -0.00004359041705
C           -0.06252816584580        0.69841705630006        0.00005423457564
C           -1.27003218589420        1.39172024578161        0.00007712040928
Cl           1.42842508684985        1.59810049530622        0.00014845060792
Cl           1.42830430878803       -1.59822698660581       -0.00011054120637
H           -3.40658707969385        1.24576608387978        0.00003102137478
H           -3.40667971366934       -1.24553182271382       -0.00011028850933
H           -1.25343092974012       -2.47529770851696       -0.00017322728178
H           -1.25324670546933        2.47537332077282        0.00014415625342
12
 energy: -23.980583572661 gnorm: 0.007806791620 xtb: 6.7.1 (41059b4)
C           -2.46778936644806        0.69297302108391        0.00001721433587
C           -2.46784136356141       -0.69280814616928       -0.00007158266999
C           -1.27068350488198       -1.38685356842213       -0.00010440050130
C           -0.06851964428730       -0.69472147133865       -0.00004648001147
C           -0.06846772969015        0.69470754238988        0.00004937619665
C           -1.27058022976169        1.38692963835861        0.00007864175561
Cl           1.42559230385329        1.57344177292585        0.00013330859643
Cl           1.42547405938945       -1.57356706662615       -0.00009056146964
H           -3.39962106679470        1.23883031013615        0.00003885393683
H           -3.39971347940217       -1.23859605027073       -0.00011506283287
H           -1.25517021032874       -2.46615434118342       -0.00017398387490
H           -1.25498606940996        2.46622921754688        0.00014962668242
12
 energy: -23.980646319830 gnorm: 0.004358313848 xtb: 6.7.1 (41059b4)
C           -2.46592989240846        0.69243265804782        0.00001837140128
C           -2.46598165308854       -0.69226774145006       -0.00007254553225
C           -1.27008204304398       -1.38673820097674       -0.00010338721232
C           -0.06896811529318       -0.69480744577369       -0.00004282671927
C           -0.06891633788646        0.69479351965092        0.00004920034067
C           -1.26997857341064        1.38681395667665        0.00007929002165
Cl           1.42239690829086        1.56728365445015        0.00012609008236
Cl           1.42227980450471       -1.56740862432068       -0.00008642810971
H           -3.39736016540479        1.23634809503981        0.00004210030026
H           -3.39745245256461       -1.23611367454596       -0.00012017218105
H           -1.25624895805619       -2.46483819021684       -0.00017559486967
H           -1.25606482296213        2.46491285184954        0.00015085262170
12
 energy: -23.980661249362 gnorm: 0.001364027208 xtb: 6.7.1 (41059b4)
C           -2.46541050996915        0.69244859942307        0.00001908872634
C           -2.46546213767314       -0.69228362669175       -0.00007340895486
C           -1.26951624139468       -1.38718363437167       -0.00010509813901
C           -0.06803479552581       -0.69553467369101       -0.00004461132328
C           -0.06798297483288        0.69552066445307        0.00004779619963
C           -1.26941269685917        1.38725928506797        0.00007981063201
Cl           1.42075423846440        1.56572619286493        0.00012410915062
Cl           1.42063745611372       -1.56585115302716       -0.00008207009160
H           -3.39718380928598        1.23566495588595        0.00004406182053
H           -3.39727600193954       -1.23543043165526       -0.00012080275097
H           -1.25680144327774       -2.46523313583709       -0.00017563216138
H           -1.25661738514346        2.46530781600987        0.00015170703560
12
 energy: -23.980662817568 gnorm: 0.000479337379 xtb: 6.7.1 (41059b4)
C           -2.46563302022563        0.69257046924585        0.00001868680104
C           -2.46568465140572       -0.69240548043669       -0.00007305868612
C           -1.26927933861655       -1.38728072086899       -0.00010383623966
C           -0.06711440531876       -0.69610129741234       -0.00004238325545
C           -0.06706248158720        0.69608724577937        0.00004923146700
C           -1.26917581126544        1.38735639240319        0.00007958260917
Cl           1.42044410408954        1.56604788015937        0.00012359326340
Cl           1.42032724919904       -1.56617292881501       -0.00008400007587
H           -3.39771283838356        1.23600565493610        0.00004353222953
H           -3.39780503734558       -1.23577111328604       -0.00012129503253
H           -1.25689702533055       -2.46570295397825       -0.00017648366474
H           -1.25671304513303        2.46577771070438        0.00015138072787
12
 energy: -23.980663044284 gnorm: 0.000062902952 xtb: 6.7.1 (41059b4)
C           -2.46572913854479        0.69254421470063        0.00001901303845
C           -2.46578080589371       -0.69237924189506       -0.00007302786676
C           -1.26938252693021       -1.38708916085520       -0.00010497532492
C           -0.06727971994311       -0.69598774034991       -0.00004493546117
C           -0.06722779240423        0.69597371574179        0.00004799781557
C           -1.26927901649918        1.38716484949768        0.00007973946385
Cl           1.42064652614517        1.56620511298753        0.00012510242930
Cl           1.42052963302099       -1.56633015428851       -0.00008289353016
H           -3.39765484426108        1.23618387722366        0.00004341891617
H           -3.39774707805773       -1.23594936140832       -0.00012021479093
H           -1.25679276239135       -2.46550991065009       -0.00017563940413
H           -1.25660877556422        2.46558465772671        0.00015136485835
12
 energy: -23.980663050579 gnorm: 0.000015039562 xtb: 6.7.1 (41059b4)
C           -2.46573403805285        0.69253706952343        0.00001851126857
C           -2.46578570983731       -0.69237209754970       -0.00007312224045
C           -1.26938129974396       -1.38705315722499       -0.00010407149206
C           -0.06728744356821       -0.69598767654178       -0.00004290746865
C           -0.06723551231506        0.69597365682542        0.00004910434950
C           -1.26927779023118        1.38712884433778        0.00007946768009
Cl           1.42059893234342        1.56613702881623        0.00012430235792
Cl           1.42048205612092       -1.56626206766451       -0.00008418424649
H           -3.39760214818320        1.23622553140374        0.00004338301271
H           -3.39769438992505       -1.23599101730471       -0.00012071409220
H           -1.25678647143067       -2.46546727234657       -0.00017614785735
H           -1.25660248650029        2.46554201615657        0.00015132887204
