 Entering Gaussian System
 *********************************************
 Gaussian 98:
 frequency output generated by the xtb code
 *********************************************
                         Standard orientation:
 --------------------------------------------------------------------
  Center     Atomic     Atomic              Coordinates (Angstroms)
  Number     Number      Type              X           Y           Z
 --------------------------------------------------------------------
    1          6             0       -1.712627   -0.376274    0.000016
    2          6             0       -0.613220    0.665453    0.000013
    3         17             0        0.994628   -0.117541   -0.000103
    4          1             0       -1.642581   -1.006682    0.882890
    5          1             0       -2.680584    0.120697    0.000091
    6          1             0       -1.642672   -1.006591   -0.882931
    7          1             0       -0.653570    1.290778    0.891523
    8          1             0       -0.653657    1.290866   -0.891431
 --------------------------------------------------------------------
     1 basis functions        1 primitive gaussians
     1 alpha electrons        1 beta electrons

 Harmonic frequencies (cm**-1), IR intensities (km*mol⁻¹),
 Raman scattering activities (A**4/amu), Raman depolarization ratios,
 reduced masses (AMU), force constants (mDyne/A) and normal coordinates:
                      1                      2                      3
                        a                      a                      a 
 Frequencies --   227.0693               315.8989               667.7769
 Red. masses --     1.0918                 3.3768                 4.7664
 Frc consts  --     0.0000                 0.0000                 0.0000
 IR Inten    --     0.1059                 0.4945                11.2739
 Raman Activ --     0.0000                 0.0000                 0.0000
 Depolar     --     0.0000                 0.0000                 0.0000
 Atom AN      X      Y      Z        X      Y      Z        X      Y      Z
   1   6     0.00   0.00  -0.02     0.57  -0.09  -0.00    -0.16  -0.02   0.00
   2   6     0.00  -0.00   0.24     0.07   0.39   0.00    -0.57   0.47   0.00
   3  17    -0.00   0.00  -0.15    -0.49  -0.17   0.00     0.45  -0.26  -0.00
   4   1    -0.36   0.30   0.24     0.29  -0.02  -0.00     0.11   0.01  -0.00
   5   1    -0.00   0.00  -0.58     0.06  -0.22  -0.00    -0.17  -0.24  -0.00
   6   1     0.36  -0.30   0.24     0.29  -0.02   0.00     0.11   0.01   0.00
   7   1     0.00  -0.05   0.11     0.01   0.11   0.00    -0.11   0.11   0.01
   8   1    -0.00   0.05   0.11     0.01   0.11  -0.00    -0.11   0.11  -0.01
                      4                      5                      6
                        a                      a                      a 
 Frequencies --   806.6350              1017.7938              1057.3152
 Red. masses --     1.1180                 1.5724                 1.2044
 Frc consts  --     0.0000                 0.0000                 0.0000
 IR Inten    --     6.4451                 4.7446                 0.6015
 Raman Activ --     0.0000                 0.0000                 0.0000
 Depolar     --     0.0000                 0.0000                 0.0000
 Atom AN      X      Y      Z        X      Y      Z        X      Y      Z
   1   6     0.00  -0.00   0.08     0.48   0.03  -0.00    -0.00   0.00  -0.22
   2   6     0.00  -0.00   0.31    -0.39  -0.04   0.00     0.00  -0.00   0.34
   3  17    -0.00   0.00  -0.07     0.05  -0.07  -0.00    -0.00   0.00  -0.10
   4   1    -0.24  -0.28  -0.16    -0.19   0.03   0.03     0.20   0.22   0.09
   5   1    -0.00   0.00  -0.14     0.36   0.49   0.00     0.00  -0.00   0.14
   6   1     0.24   0.28  -0.16    -0.19   0.03  -0.03    -0.20  -0.22   0.09
   7   1     0.06   0.46  -0.24    -0.29  -0.04   0.01    -0.50   0.22  -0.08
   8   1    -0.06  -0.46  -0.24    -0.29  -0.04  -0.01     0.50  -0.22  -0.08
                      7                      8                      9
                        a                      a                      a 
 Frequencies --  1088.0035              1222.1159              1254.8589
 Red. masses --     2.6426                 1.2358                 1.2403
 Frc consts  --     0.0000                 0.0000                 0.0000
 IR Inten    --     0.6946                 0.0044                31.5960
 Raman Activ --     0.0000                 0.0000                 0.0000
 Depolar     --     0.0000                 0.0000                 0.0000
 Atom AN      X      Y      Z        X      Y      Z        X      Y      Z
   1   6    -0.17  -0.52  -0.00    -0.00   0.00  -0.37    -0.11   0.14   0.00
   2   6     0.32   0.52   0.00     0.00  -0.00   0.25     0.41  -0.02  -0.00
   3  17    -0.00  -0.03  -0.00     0.00  -0.00   0.03     0.03  -0.05  -0.00
   4   1    -0.31  -0.14   0.01     0.21   0.26   0.08     0.07  -0.01  -0.04
   5   1     0.12   0.19   0.00     0.00  -0.00   0.14    -0.12  -0.16  -0.00
   6   1    -0.31  -0.14  -0.01    -0.21  -0.26   0.08     0.07  -0.01   0.04
   7   1    -0.01   0.14  -0.00     0.49   0.18  -0.05    -0.61   0.01  -0.03
   8   1    -0.01   0.14   0.00    -0.49  -0.18  -0.05    -0.61   0.01   0.03
                     10                     11                     12
                        a                      a                      a 
 Frequencies --  1402.8593              1445.5701              1478.4089
 Red. masses --     1.2077                 1.1068                 1.0518
 Frc consts  --     0.0000                 0.0000                 0.0000
 IR Inten    --    10.5006                 0.0427                 8.2612
 Raman Activ --     0.0000                 0.0000                 0.0000
 Depolar     --     0.0000                 0.0000                 0.0000
 Atom AN      X      Y      Z        X      Y      Z        X      Y      Z
   1   6     0.33   0.26  -0.00     0.11   0.05  -0.00    -0.00   0.00  -0.21
   2   6    -0.02   0.06   0.00    -0.06  -0.28  -0.00    -0.00   0.00  -0.04
   3  17    -0.01   0.01   0.00     0.01  -0.01  -0.00    -0.00  -0.00   0.00
   4   1    -0.43  -0.20  -0.13    -0.12  -0.05  -0.02    -0.46   0.08   0.08
   5   1    -0.22  -0.47  -0.00    -0.04  -0.11  -0.00     0.00  -0.00   0.71
   6   1    -0.43  -0.20   0.13    -0.12  -0.05   0.02     0.46  -0.08   0.08
   7   1     0.03  -0.14   0.10     0.02   0.53  -0.38    -0.01  -0.02   0.00
   8   1     0.03  -0.14  -0.10     0.02   0.53   0.38     0.01   0.02   0.00
                     13                     14                     15
                        a                      a                      a 
 Frequencies --  1490.3308              2984.3775              2987.0515
 Red. masses --     1.0579                 1.1017                 1.0477
 Frc consts  --     0.0000                 0.0000                 0.0000
 IR Inten    --     3.6037                 5.7107                 6.1452
 Raman Activ --     0.0000                 0.0000                 0.0000
 Depolar     --     0.0000                 0.0000                 0.0000
 Atom AN      X      Y      Z        X      Y      Z        X      Y      Z
   1   6     0.11  -0.19  -0.00    -0.00   0.00  -0.03     0.01  -0.02  -0.00
   2   6     0.04  -0.02  -0.00     0.00  -0.00   0.30    -0.00   0.20  -0.00
   3  17    -0.00   0.00   0.00    -0.00   0.00   0.00    -0.01   0.00   0.00
   4   1    -0.18   0.50   0.38     0.01  -0.05   0.07    -0.00   0.03  -0.05
   5   1    -0.12  -0.26  -0.00    -0.00   0.00  -0.01    -0.04   0.02   0.00
   6   1    -0.18   0.50  -0.38    -0.01   0.05   0.07    -0.00   0.03   0.05
   7   1    -0.03  -0.01   0.00     0.02  -0.39  -0.54     0.02  -0.37  -0.58
   8   1    -0.03  -0.01  -0.00    -0.02   0.39  -0.54     0.02  -0.37   0.58
                     16                     17                     18
                        a                      a                      a 
 Frequencies --  3030.7746              3046.9506              3049.9076
 Red. masses --     1.0746                 1.0958                 1.0461
 Frc consts  --     0.0000                 0.0000                 0.0000
 IR Inten    --    22.2455                16.4565                10.3858
 Raman Activ --     0.0000                 0.0000                 0.0000
 Depolar     --     0.0000                 0.0000                 0.0000
 Atom AN      X      Y      Z        X      Y      Z        X      Y      Z
   1   6     0.22  -0.13  -0.00     0.00  -0.00   0.29     0.01  -0.20  -0.00
   2   6     0.01  -0.01  -0.00     0.00  -0.00   0.04    -0.00  -0.02  -0.00
   3  17     0.00   0.00   0.00     0.00  -0.00   0.00    -0.00   0.00   0.00
   4   1     0.03   0.00  -0.04    -0.05   0.40  -0.53    -0.05   0.38  -0.57
   5   1    -0.85   0.45   0.00     0.00  -0.00   0.04     0.06  -0.05  -0.00
   6   1     0.03   0.00   0.04     0.05  -0.40  -0.53    -0.05   0.38   0.57
   7   1    -0.00   0.02   0.03     0.00  -0.05  -0.07    -0.00   0.03   0.04
   8   1    -0.00   0.02  -0.03    -0.00   0.05  -0.07    -0.00   0.03  -0.04
