      -----------------------------------------------------------      
     |                   =====================                   |     
     |                           x T B                           |     
     |                   =====================                   |     
     |                         S. Grimme                         |     
     |          Mulliken Center for Theoretical Chemistry        |     
     |                    University of Bonn                     |     
      -----------------------------------------------------------      

   * xtb version 6.7.1 (41059b4) compiled by 'michael@archlinux' on 2025-03-24

   xtb is free software: you can redistribute it and/or modify it under
   the terms of the GNU Lesser General Public License as published by
   the Free Software Foundation, either version 3 of the License, or
   (at your option) any later version.
   
   xtb is distributed in the hope that it will be useful,
   but WITHOUT ANY WARRANTY; without even the implied warranty of
   MERCHANTABILITY or FITNESS FOR A PARTICULAR PURPOSE.  See the
   GNU Lesser General Public License for more details.
   
   Cite this work as:
   * C. Bannwarth, E. Caldeweyher, S. Ehlert, A. Hansen, P. Pracht,
     J. Seibert, S. Spicher, S. Grimme, WIREs Comput. Mol. Sci., 2020, 11,
     e01493. DOI: 10.1002/wcms.1493
   
   for GFN2-xTB:
   * C. Bannwarth, S. Ehlert and S. Grimme., J. Chem. Theory Comput., 2019,
     15, 1652-1671. DOI: 10.1021/acs.jctc.8b01176
   for GFN1-xTB:
   * S. Grimme, C. Bannwarth, P. Shushkov, J. Chem. Theory Comput., 2017,
     13, 1989-2009. DOI: 10.1021/acs.jctc.7b00118
   for GFN0-xTB:
   * P. Pracht, E. Caldeweyher, S. Ehlert, S. Grimme, ChemRxiv, 2019, preprint.
     DOI: 10.26434/chemrxiv.8326202.v1
   for GFN-FF:
   * S. Spicher and S. Grimme, Angew. Chem. Int. Ed., 2020, 59, 15665-15673.
     DOI: 10.1002/anie.202004239
   
   for ALPB and GBSA implicit solvation:
   * S. Ehlert, M. Stahn, S. Spicher, S. Grimme, J. Chem. Theory Comput.,
     2021, 17, 4250-4261. DOI: 10.1021/acs.jctc.1c00471
   
   for ddCOSMO and CPCM-X implicit solvation:
   * M. Stahn, S. Ehlert, S. Grimme, J. Phys. Chem. A,
     2023, XX, XXXX-XXXX. DOI: 10.1021/acs.jpca.3c04382
   
   for DFT-D4:
   * E. Caldeweyher, C. Bannwarth and S. Grimme, J. Chem. Phys., 2017,
     147, 034112. DOI: 10.1063/1.4993215
   * E. Caldeweyher, S. Ehlert, A. Hansen, H. Neugebauer, S. Spicher,
     C. Bannwarth and S. Grimme, J. Chem. Phys., 2019, 150, 154122.
     DOI: 10.1063/1.5090222
   * E. Caldeweyher, J.-M. Mewes, S. Ehlert and S. Grimme, Phys. Chem. Chem. Phys.
     2020, 22, 8499-8512. DOI: 10.1039/D0CP00502A
   
   for sTDA-xTB:
   * S. Grimme and C. Bannwarth, J. Chem. Phys., 2016, 145, 054103.
     DOI: 10.1063/1.4959605
   
   in the mass-spec context:
   * V. Asgeirsson, C. Bauer and S. Grimme, Chem. Sci., 2017, 8, 4879.
     DOI: 10.1039/c7sc00601b
   * J. Koopman and S. Grimme, ACS Omega 2019, 4, 12, 15120-15133.
     DOI: 10.1021/acsomega.9b02011
   
   for metadynamics refer to:
   * S. Grimme, J. Chem. Theory Comput., 2019, 155, 2847-2862
     DOI: 10.1021/acs.jctc.9b00143
   
   for SPH calculations refer to:
   * S. Spicher and S. Grimme, J. Chem. Theory Comput., 2021, 17, 1701-1714
     DOI: 10.1021/acs.jctc.0c01306
   
   for ONIOM refer to:
   * C. Plett, A. Katbashev, S. Ehlert, S. Grimme, M. Bursch,
     Phys. Chem. Chem. Phys., 2023, 25, 17860-17868. DOI: 10.1039/D3CP02178E
   
   for DIPRO refer to:
   * J. Kohn, N. Gildemeister, S. Grimme, D. Fazzi, A. Hansen,
     J. Chem. Phys., 2023, just accepted.
   
   for PTB refer to:
   * S. Grimme, M. Mueller, A. Hansen, J. Chem. Phys., 2023, 158, 124111.
     DOI: 10.1063/5.0137838
   
   with help from (in alphabetical order)
   P. Atkinson, C. Bannwarth, F. Bohle, G. Brandenburg, E. Caldeweyher
   M. Checinski, S. Dohm, S. Ehlert, S. Ehrlich, I. Gerasimov, C. Hölzer
   A. Katbashev, J. Kohn, J. Koopman, C. Lavigne, S. Lehtola, F. März, M. Müller,
   F. Musil, H. Neugebauer, J. Pisarek, C. Plett, P. Pracht, F. Pultar,
   J. Seibert, P. Shushkov, S. Spicher, M. Stahn, M. Steiner, T. Strunk,
   J. Stückrath, T. Rose, and J. Unsleber
   
 * started run on 2025/04/09 at 03:19:14.784     
   ID    Z sym.   atoms
    1    6 C      1, 2
    2   17 Cl     3
    3    1 H      4-8

           -------------------------------------------------
          |                Calculation Setup                |
           -------------------------------------------------

          program call               : /usr/bin/xtb xtb_rrho.coord --gfn2 --ohess vtight --chrg 0 --enso --norestart -I rrho-xcontrol-inp --parallel 1
          coordinate file            : xtb_rrho.coord
          omp threads                :                     1


           -------------------------------------------------
          |                 G F N 2 - x T B                 |
           -------------------------------------------------

        Reference                      10.1021/acs.jctc.8b01176
      * Hamiltonian:
        H0-scaling (s, p, d)           1.850000    2.230000    2.230000
        zeta-weighting                 0.500000
      * Dispersion:
        s8                             2.700000
        a1                             0.520000
        a2                             5.000000
        s9                             5.000000
      * Repulsion:
        kExp                           1.500000    1.000000
        rExp                           1.000000
      * Coulomb:
        alpha                          2.000000
        third order                    shell-resolved
        anisotropic                    true
        a3                             3.000000
        a5                             4.000000
        cn-shift                       1.200000
        cn-exp                         4.000000
        max-rad                        5.000000


          ...................................................
          :                      SETUP                      :
          :.................................................:
          :  # basis functions                  23          :
          :  # atomic orbitals                  22          :
          :  # shells                           12          :
          :  # electrons                        20          :
          :  max. iterations                   250          :
          :  Hamiltonian                  GFN2-xTB          :
          :  restarted?                      false          :
          :  GBSA solvation                  false          :
          :  PC potential                    false          :
          :  electronic temp.          300.0000000     K    :
          :  accuracy                    1.0000000          :
          :  -> integral cutoff          0.2500000E+02      :
          :  -> integral neglect         0.1000000E-07      :
          :  -> SCF convergence          0.1000000E-05 Eh   :
          :  -> wf. convergence          0.1000000E-03 e    :
          :  Broyden damping             0.4000000          :
          :  net charge                          0          :
          :  unpaired electrons                  0          :
          ...................................................

 iter      E             dE          RMSdq      gap      omega  full diag
   1    -11.4399282 -0.114399E+02  0.398E+00    7.22       0.0  T
   2    -11.4759477 -0.360195E-01  0.231E+00    6.44       1.0  T
   3    -11.4773829 -0.143520E-02  0.117E+00    6.62       1.0  T
   4    -11.4776792 -0.296313E-03  0.151E-01    6.54       1.0  T
   5    -11.4777224 -0.432355E-04  0.705E-02    6.56       1.0  T
   6    -11.4777245 -0.206192E-05  0.186E-02    6.55       1.9  T
   7    -11.4777253 -0.762862E-06  0.131E-02    6.54       2.7  T
   8    -11.4777259 -0.679174E-06  0.634E-03    6.54       5.6  T
   9    -11.4777260 -0.117268E-06  0.110E-03    6.54      32.3  T
  10    -11.4777260 -0.230724E-08  0.454E-04    6.54      77.8  T
  11    -11.4777260 -0.343631E-09  0.317E-04    6.54     111.4  T

   *** convergence criteria satisfied after 11 iterations ***

         #    Occupation            Energy/Eh            Energy/eV
      -------------------------------------------------------------
         1        2.0000           -1.0461484             -28.4671
       ...           ...                  ...                  ...
         4        2.0000           -0.5319575             -14.4753
         5        2.0000           -0.5204170             -14.1613
         6        2.0000           -0.4994248             -13.5900
         7        2.0000           -0.4666273             -12.6976
         8        2.0000           -0.4649568             -12.6521
         9        2.0000           -0.4118080             -11.2059
        10        2.0000           -0.4093630             -11.1393 (HOMO)
        11                         -0.1690642              -4.6005 (LUMO)
        12                          0.0235117               0.6398
        13                          0.0279120               0.7595
        14                          0.0326801               0.8893
        15                          0.0328765               0.8946
       ...                                ...                  ...
        22                          0.2614857               7.1154
      -------------------------------------------------------------
                  HL-Gap            0.2402989 Eh            6.5389 eV
             Fermi-level           -0.2892136 Eh           -7.8699 eV

 SCC (total)                   0 d,  0 h,  0 min,  0.002 sec
 SCC setup                      ...        0 min,  0.000 sec (  2.167%)
 Dispersion                     ...        0 min,  0.000 sec (  0.908%)
 classical contributions        ...        0 min,  0.000 sec (  0.399%)
 integral evaluation            ...        0 min,  0.000 sec ( 14.683%)
 iterations                     ...        0 min,  0.001 sec ( 54.401%)
 molecular gradient             ...        0 min,  0.001 sec ( 24.951%)
 printout                       ...        0 min,  0.000 sec (  2.217%)

         :::::::::::::::::::::::::::::::::::::::::::::::::::::
         ::                     SUMMARY                     ::
         :::::::::::::::::::::::::::::::::::::::::::::::::::::
         :: total energy             -11.377438546556 Eh    ::
         :: gradient norm              0.018237471509 Eh/a0 ::
         :: HOMO-LUMO gap              6.538864987911 eV    ::
         ::.................................................::
         :: SCC energy               -11.477725514839 Eh    ::
         :: -> isotropic ES            0.007188566728 Eh    ::
         :: -> anisotropic ES          0.000680485995 Eh    ::
         :: -> anisotropic XC          0.006010001602 Eh    ::
         :: -> dispersion             -0.003082947734 Eh    ::
         :: repulsion energy           0.100286968283 Eh    ::
         :: add. restraining           0.000000000000 Eh    ::
         :: total charge               0.000000000000 e     ::
         :::::::::::::::::::::::::::::::::::::::::::::::::::::

      ----------------------------------------------------------- 
     |                   =====================                   |
     |                        A N C O P T                        |
     |                   =====================                   |
     |               Approximate Normal Coordinate               |
     |                Rational Function Optimizer                |
      ----------------------------------------------------------- 

          ...................................................
          :                      SETUP                      :
          :.................................................:
          :   optimization level         verytight          :
          :   max. optcycles                   200          :
          :   ANC micro-cycles                  20          :
          :   degrees of freedom                18          :
          :.................................................:
          :   RF solver                   davidson          :
          :   write xtbopt.log                true          :
          :   linear?                        false          :
          :   energy convergence         0.1000000E-06 Eh   :
          :   grad. convergence          0.2000000E-03 Eh/α :
          :   maximum RF displ.          1.0000000          :
          :   Hlow (freq-cutoff)         0.1000000E-01      :
          :   Hmax (freq-cutoff)         5.0000000          :
          :   S6 in model hess.         20.0000000          :
          ...................................................

generating ANC from exact Hessian ...
Using Lindh-Hessian (1995)
 Shifting diagonal of input Hessian by    0.0000000000000000     
 Lowest  eigenvalues of input Hessian
    0.000000    0.000000    0.000000    0.000000    0.000000    0.000000
    0.012474    0.023097    0.039579    0.052648    0.061284    0.071243
    0.090612    0.115630    0.132379    0.134558    0.164475    0.331214
 Highest eigenvalues
    0.636276    0.957462    1.033204    1.110125    1.148731    1.239027


........................................................................
.............................. CYCLE    1 ..............................
........................................................................

 iter      E             dE          RMSdq      gap      omega  full diag
   1    -11.4777260 -0.114777E+02  0.889E-05    6.54       0.0  T
   2    -11.4777260 -0.126619E-10  0.518E-05    6.54     682.4  T
   3    -11.4777260 -0.197176E-11  0.341E-05    6.54    1036.6  T
     SCC iter.                  ...        0 min,  0.000 sec
     gradient                   ...        0 min,  0.001 sec
 * total energy  :   -11.3774385 Eh     change       -0.3448637E-09 Eh
   gradient norm :     0.0182385 Eh/α   predicted     0.0000000E+00 (-100.00%)
   displ. norm   :     0.0680517 α      lambda       -0.6978061E-03
   maximum displ.:     0.0468135 α      in ANC's #2, #8, #12, ...

........................................................................
.............................. CYCLE    2 ..............................
........................................................................

 iter      E             dE          RMSdq      gap      omega  full diag
   1    -11.4812484 -0.114812E+02  0.124E-01    6.75       0.0  T
   2    -11.4812552 -0.686132E-05  0.801E-02    6.75       1.0  T
   3    -11.4812580 -0.280633E-05  0.330E-02    6.75       1.1  T
   4    -11.4812602 -0.217651E-05  0.229E-02    6.74       1.5  T
   5    -11.4812619 -0.165177E-05  0.135E-02    6.74       2.6  T
   6    -11.4812627 -0.845503E-06  0.342E-03    6.73      10.3  T
   7    -11.4812627 -0.208228E-07  0.594E-04    6.73      59.5  T
   8    -11.4812627 -0.134360E-09  0.125E-04    6.73     282.6  T
     SCC iter.                  ...        0 min,  0.001 sec
     gradient                   ...        0 min,  0.001 sec
 * total energy  :   -11.3778936 Eh     change       -0.4550165E-03 Eh
   gradient norm :     0.0105879 Eh/α   predicted    -0.3505193E-03 ( -22.97%)
   displ. norm   :     0.0272857 α      lambda       -0.2275718E-03
   maximum displ.:     0.0157879 α      in ANC's #12, #14, #6, ...

........................................................................
.............................. CYCLE    3 ..............................
........................................................................

 iter      E             dE          RMSdq      gap      omega  full diag
   1    -11.4828614 -0.114829E+02  0.661E-02    6.89       0.0  T
   2    -11.4828645 -0.313681E-05  0.451E-02    6.89       1.0  T
   3    -11.4828658 -0.127336E-05  0.221E-02    6.89       1.6  T
   4    -11.4828667 -0.916421E-06  0.147E-02    6.89       2.4  T
   5    -11.4828673 -0.574378E-06  0.985E-03    6.88       3.6  T
   6    -11.4828677 -0.425393E-06  0.320E-03    6.88      11.0  T
   7    -11.4828678 -0.299487E-07  0.393E-04    6.88      89.9  T
   8    -11.4828678 -0.828990E-10  0.123E-04    6.88     286.8  T
     SCC iter.                  ...        0 min,  0.000 sec
     gradient                   ...        0 min,  0.001 sec
 * total energy  :   -11.3780226 Eh     change       -0.1290705E-03 Eh
   gradient norm :     0.0038220 Eh/α   predicted    -0.1138694E-03 ( -11.78%)
   displ. norm   :     0.0150805 α      lambda       -0.3699273E-04
   maximum displ.:     0.0078744 α      in ANC's #4, #6, #2, ...

........................................................................
.............................. CYCLE    4 ..............................
........................................................................

 iter      E             dE          RMSdq      gap      omega  full diag
   1    -11.4824063 -0.114824E+02  0.268E-02    6.93       0.0  T
   2    -11.4824065 -0.222031E-06  0.170E-02    6.93       2.1  T
   3    -11.4824066 -0.129392E-06  0.615E-03    6.93       5.7  T
   4    -11.4824067 -0.607399E-07  0.472E-03    6.92       7.5  T
   5    -11.4824067 -0.627029E-07  0.272E-03    6.92      13.0  T
   6    -11.4824068 -0.312650E-07  0.104E-03    6.92      34.1  T
   7    -11.4824068 -0.370280E-08  0.210E-04    6.92     168.6  T
   8    -11.4824068 -0.416005E-10  0.633E-05    6.92     558.8  T
     SCC iter.                  ...        0 min,  0.001 sec
     gradient                   ...        0 min,  0.001 sec
 * total energy  :   -11.3780440 Eh     change       -0.2141195E-04 Eh
   gradient norm :     0.0012427 Eh/α   predicted    -0.1849918E-04 ( -13.60%)
   displ. norm   :     0.0118179 α      lambda       -0.5563077E-05
   maximum displ.:     0.0098942 α      in ANC's #2, #12, #6, ...

........................................................................
.............................. CYCLE    5 ..............................
........................................................................

 iter      E             dE          RMSdq      gap      omega  full diag
   1    -11.4817332 -0.114817E+02  0.169E-02    6.93       0.0  T
   2    -11.4817332 -0.286375E-07  0.978E-03    6.93       3.6  T
   3    -11.4817332 -0.685691E-08  0.127E-03    6.93      27.8  T
   4    -11.4817332 -0.820179E-09  0.689E-04    6.93      51.3  T
   5    -11.4817332 -0.421950E-09  0.321E-04    6.93     110.0  T
     SCC iter.                  ...        0 min,  0.000 sec
     gradient                   ...        0 min,  0.001 sec
 * total energy  :   -11.3780461 Eh     change       -0.2016729E-05 Eh
   gradient norm :     0.0006497 Eh/α   predicted    -0.2781274E-05 (  37.91%)
   displ. norm   :     0.0044428 α      lambda       -0.1082112E-05
   maximum displ.:     0.0038544 α      in ANC's #2, #4, #14, ...

........................................................................
.............................. CYCLE    6 ..............................
........................................................................

 iter      E             dE          RMSdq      gap      omega  full diag
   1    -11.4819010 -0.114819E+02  0.603E-03    6.92       0.0  T
   2    -11.4819010 -0.260962E-08  0.357E-03    6.92       9.9  T
   3    -11.4819011 -0.118774E-08  0.519E-04    6.92      68.1  T
   4    -11.4819011 -0.249253E-09  0.267E-04    6.92     132.6  T
     SCC iter.                  ...        0 min,  0.000 sec
     gradient                   ...        0 min,  0.001 sec
 * total energy  :   -11.3780468 Eh     change       -0.7732220E-06 Eh
   gradient norm :     0.0000857 Eh/α   predicted    -0.5411255E-06 ( -30.02%)
   displ. norm   :     0.0006866 α      lambda       -0.2983163E-07
   maximum displ.:     0.0004238 α      in ANC's #4, #12, #2, ...

........................................................................
.............................. CYCLE    7 ..............................
........................................................................

 iter      E             dE          RMSdq      gap      omega  full diag
   1    -11.4819385 -0.114819E+02  0.122E-03    6.93       0.0  T
   2    -11.4819385 -0.455799E-09  0.742E-04    6.93      47.6  T
   3    -11.4819385 -0.369198E-10  0.192E-04    6.93     183.7  T
     SCC iter.                  ...        0 min,  0.000 sec
     gradient                   ...        0 min,  0.001 sec
 * total energy  :   -11.3780468 Eh     change       -0.1043952E-07 Eh
   gradient norm :     0.0000451 Eh/α   predicted    -0.1497668E-07 (  43.46%)
   displ. norm   :     0.0002488 α      lambda       -0.2940977E-08
   maximum displ.:     0.0001547 α      in ANC's #4, #12, #8, ...

   *** GEOMETRY OPTIMIZATION CONVERGED AFTER 7 ITERATIONS ***

------------------------------------------------------------------------
 total energy gain   :        -0.0006083 Eh       -0.3817 kcal/mol
 total RMSD          :         0.0292102 a0        0.0155 Å
 total power (kW/mol):        -0.2281558 (step) -164.1142 (real)
------------------------------------------------------------------------

 ANCopt (total)                0 d,  0 h,  0 min,  0.010 sec
 optimizer setup                ...        0 min,  0.000 sec (  0.419%)
 model hessian                  ...        0 min,  0.000 sec (  2.297%)
 ANC generation                 ...        0 min,  0.000 sec (  0.570%)
 coordinate transformation      ...        0 min,  0.000 sec (  0.137%)
 single point calculation       ...        0 min,  0.009 sec ( 91.151%)
 optimization log               ...        0 min,  0.000 sec (  2.052%)
 hessian update                 ...        0 min,  0.000 sec (  0.161%)
 rational function              ...        0 min,  0.000 sec (  1.903%)

================
 final structure:
================
$coord
       -3.23639115247322       -0.71107165836255        0.00001733411512      C
       -1.15882483662795        1.25751837448328        0.00002325692940      C
        1.87957545433886       -0.22211001935210       -0.00018928053531      Cl
       -3.10402393702280       -1.90237173844887        1.66840577648791      H
       -5.06556981195871        0.22805730592284        0.00015497910352      H
       -3.10418347519829       -1.90219367867306       -1.66851088461249      H
       -1.23508684017602        2.43920805272166        1.68473338366689      H
       -1.23523904323544        2.43937902326129       -1.68456004077489      H
$end

 Bond Distances (Angstroems)
 ---------------------------
C1-C2=1.5146         C1-H4=1.0871         C1-H5=1.0881         C1-H6=1.0871         C2-C1=1.5146         C2-Cl3=1.7884        
C2-H7=1.0897         C2-H8=1.0897         Cl3-C2=1.7884        H4-C1=1.0871         H5-C1=1.0881         H6-C1=1.0871         
H7-C2=1.0897         H8-C2=1.0897         
 C  H  Rav=1.0883 sigma=0.0012  Rmin=1.0871  Rmax=1.0897     5
 C  C  Rav=1.5146 sigma=0.0000  Rmin=1.5146  Rmax=1.5146     1
 Cl C  Rav=1.7884 sigma=0.0000  Rmin=1.7884  Rmax=1.7884     1

 selected bond angles (degree)
 --------------------
H4-C1-C2=110.62                H5-C1-C2=109.37                H5-C1-H4=108.79                H6-C1-C2=110.62                
H6-C1-H4=108.62                H6-C1-H5=108.79                Cl3-C2-C1=110.58               H7-C2-C1=111.58                
H7-C2-Cl3=106.53               H8-C2-C1=111.58                H8-C2-Cl3=106.53               H8-C2-H7=109.79                

 selected dihedral angles (degree)
 ---------------------------------
Cl3-C2-C1-H4= 60.20           Cl3-C2-C1-H5=180.00           Cl3-C2-C1-H6=299.80           H7-C2-C1-H4=301.81            
H7-C2-C1-H5= 61.61            H7-C2-C1-H6=181.42            H8-C2-C1-H4=178.58            H8-C2-C1-H5=298.39            
H8-C2-C1-H6= 58.19            
           -------------------------------------------------
          |                Final Singlepoint                |
           -------------------------------------------------

          ...................................................
          :                      SETUP                      :
          :.................................................:
          :  # basis functions                  23          :
          :  # atomic orbitals                  22          :
          :  # shells                           12          :
          :  # electrons                        20          :
          :  max. iterations                   250          :
          :  Hamiltonian                  GFN2-xTB          :
          :  restarted?                      false          :
          :  GBSA solvation                  false          :
          :  PC potential                    false          :
          :  electronic temp.          300.0000000     K    :
          :  accuracy                    1.0000000          :
          :  -> integral cutoff          0.2500000E+02      :
          :  -> integral neglect         0.1000000E-07      :
          :  -> SCF convergence          0.1000000E-05 Eh   :
          :  -> wf. convergence          0.1000000E-03 e    :
          :  Broyden damping             0.4000000          :
          :  net charge                          0          :
          :  unpaired electrons                  0          :
          ...................................................

 iter      E             dE          RMSdq      gap      omega  full diag
   1    -11.4819385 -0.114819E+02  0.995E-05    6.93       0.0  T
   2    -11.4819385 -0.115890E-10  0.855E-05    6.93     413.4  T
   3    -11.4819385 -0.284377E-10  0.416E-05    6.93     850.8  T

   *** convergence criteria satisfied after 3 iterations ***

         #    Occupation            Energy/Eh            Energy/eV
      -------------------------------------------------------------
         1        2.0000           -1.0481751             -28.5223
       ...           ...                  ...                  ...
         4        2.0000           -0.5343105             -14.5393
         5        2.0000           -0.5227553             -14.2249
         6        2.0000           -0.5003851             -13.6162
         7        2.0000           -0.4681020             -12.7377
         8        2.0000           -0.4671859             -12.7128
         9        2.0000           -0.4120404             -11.2122
        10        2.0000           -0.4096593             -11.1474 (HOMO)
        11                         -0.1551127              -4.2208 (LUMO)
        12                          0.0200895               0.5467
        13                          0.0253308               0.6893
        14                          0.0305900               0.8324
        15                          0.0308419               0.8393
       ...                                ...                  ...
        22                          0.2679714               7.2919
      -------------------------------------------------------------
                  HL-Gap            0.2545466 Eh            6.9266 eV
             Fermi-level           -0.2823860 Eh           -7.6841 eV

 SCC (total)                   0 d,  0 h,  0 min,  0.001 sec
 SCC setup                      ...        0 min,  0.000 sec (  2.105%)
 Dispersion                     ...        0 min,  0.000 sec (  0.767%)
 classical contributions        ...        0 min,  0.000 sec (  0.351%)
 integral evaluation            ...        0 min,  0.000 sec ( 25.762%)
 iterations                     ...        0 min,  0.000 sec ( 19.550%)
 molecular gradient             ...        0 min,  0.001 sec ( 47.888%)
 printout                       ...        0 min,  0.000 sec (  3.013%)

         :::::::::::::::::::::::::::::::::::::::::::::::::::::
         ::                     SUMMARY                     ::
         :::::::::::::::::::::::::::::::::::::::::::::::::::::
         :: total energy             -11.378046846302 Eh    ::
         :: gradient norm              0.000044461506 Eh/a0 ::
         :: HOMO-LUMO gap              6.926566170193 eV    ::
         ::.................................................::
         :: SCC energy               -11.481938011918 Eh    ::
         :: -> isotropic ES            0.006845522749 Eh    ::
         :: -> anisotropic ES          0.000861793327 Eh    ::
         :: -> anisotropic XC          0.005752153510 Eh    ::
         :: -> dispersion             -0.003101623371 Eh    ::
         :: repulsion energy           0.103891165616 Eh    ::
         :: add. restraining           0.000000000000 Eh    ::
         :: total charge               0.000000000000 e     ::
         :::::::::::::::::::::::::::::::::::::::::::::::::::::

           ------------------------------------------------- 
          |                Numerical Hessian                |
           ------------------------------------------------- 
step length          :   0.00500
SCC accuracy         :   0.30000
Hessian scale factor :   1.00000
frozen atoms in %    :   0.00000    0
RMS gradient         :   0.00004
estimated CPU  time      0.00 min
estimated wall time      0.00 min

writing file <hessian>, containing the non-mass-weighted Hessian matrix in atomic units (Eₕ/Bohr²).

 projected vibrational frequencies (cm⁻¹)
eigval :       -0.00    -0.00    -0.00     0.00     0.00     0.00
eigval :      227.07   315.90   667.78   806.64  1017.79  1057.32
eigval :     1088.00  1222.12  1254.86  1402.86  1445.57  1478.41
eigval :     1490.33  2984.38  2987.05  3030.77  3046.95  3049.91
           -------------------------------------------------
          |                Property Printout                |
           -------------------------------------------------

    * Orbital Energies and Occupations

         #    Occupation            Energy/Eh            Energy/eV
      -------------------------------------------------------------
         1        2.0000           -1.0481753             -28.5223
         2        2.0000           -0.6375538             -17.3487
         3        2.0000           -0.5909371             -16.0802
         4        2.0000           -0.5343108             -14.5393
         5        2.0000           -0.5227556             -14.2249
         6        2.0000           -0.5003854             -13.6162
         7        2.0000           -0.4681024             -12.7377
         8        2.0000           -0.4671862             -12.7128
         9        2.0000           -0.4120407             -11.2122
        10        2.0000           -0.4096597             -11.1474 (HOMO)
        11                         -0.1551135              -4.2209 (LUMO)
        12                          0.0200892               0.5467
        13                          0.0253305               0.6893
        14                          0.0305897               0.8324
        15                          0.0308416               0.8392
        16                          0.0956346               2.6024
        17                          0.1355055               3.6873
        18                          0.1449636               3.9447
        19                          0.1641152               4.4658
        20                          0.1784697               4.8564
        21                          0.2273418               6.1863
        22                          0.2679711               7.2919
      -------------------------------------------------------------
                  HL-Gap            0.2545461 Eh            6.9266 eV
             Fermi-level           -0.2823866 Eh           -7.6841 eV

     #   Z          covCN         q      C6AA      α(0)
     1   6          3.781    -0.112    22.665     6.782
     2   6          3.712     0.035    20.115     6.409
     3  17          0.918    -0.217   106.004    15.751
     4   1          0.925     0.060     2.204     2.322
     5   1          0.925     0.052     2.297     2.370
     6   1          0.925     0.060     2.204     2.322
     7   1          0.925     0.062     2.177     2.308
     8   1          0.925     0.062     2.177     2.308

 Mol. C6AA /au·bohr⁶  :        726.279212
 Mol. C8AA /au·bohr⁸  :      20149.726697
 Mol. α(0) /au        :         40.570458


Wiberg/Mayer (AO) data.
largest (>0.10) Wiberg bond orders for each atom

 ---------------------------------------------------------------------------
     #   Z sym  total        # sym  WBO       # sym  WBO       # sym  WBO
 ---------------------------------------------------------------------------
     1   6      3.991 --     2      1.030     6      0.985     4      0.985
                             5      0.978
     2   6      3.938 --     1      1.030     8      0.980     7      0.980
                             3      0.944
     3  17      0.985 --     2      0.944
     4   1      0.996 --     1      0.985
     5   1      0.997 --     1      0.978
     6   1      0.996 --     1      0.985
     7   1      0.996 --     2      0.980
     8   1      0.996 --     2      0.980
 ---------------------------------------------------------------------------

Topologies differ in total number of bonds
Writing topology from bond orders to xtbtopo.mol

molecular dipole:
                 x           y           z       tot (Debye)
 q only:       -0.871       0.259       0.000
   full:       -0.827       0.301       0.000       2.238
molecular quadrupole (traceless):
                xx          xy          yy          xz          yz          zz
 q only:       -0.148       0.079       0.430       0.000      -0.000      -0.282
  q+dip:       -1.318       0.077       0.531       0.000      -0.000       0.788
   full:       -0.444      -0.286       0.396       0.000      -0.000       0.048

           -------------------------------------------------
          |                Geometry Summary                 |
           -------------------------------------------------

      molecular mass/u    :       64.5141131
   center of mass at/Å    :       -0.0000537       0.0000098      -0.0000492
  moments of inertia/u·Å² :        0.1609885E+02   0.9153474E+02   0.1012865E+03
rotational constants/cm⁻¹ :        0.1047133E+01   0.1841665E+00   0.1664351E+00

 * 7 selected distances

     #   Z          #   Z                                           value/Å
     1   6          2   6                                         1.5145594
     2   6          3  17                                         1.7883668 (max)
     1   6          4   1                                         1.0871002
     1   6          5   1                                         1.0880813
     1   6          6   1                                         1.0871002 (min)
     2   6          7   1                                         1.0897011
     2   6          8   1                                         1.0897011

 * 3 distinct bonds (by element types)
Molecule has the following symmetry elements: (sigma) 
It seems to be the Cs point group

   Z      Z             #   av. dist./Å        max./Å        min./Å
   1 H    6 C           5     1.0883368     1.0897011     1.0871002
   6 C    6 C           1     1.5145594     1.5145594     1.5145594
   6 C   17 Cl          1     1.7883668     1.7883668     1.7883668

           -------------------------------------------------
          |               Frequency Printout                |
           -------------------------------------------------
 projected vibrational frequencies (cm⁻¹)
eigval :       -0.00    -0.00    -0.00     0.00     0.00     0.00
eigval :      227.07   315.90   667.78   806.64  1017.79  1057.32
eigval :     1088.00  1222.12  1254.86  1402.86  1445.57  1478.41
eigval :     1490.33  2984.38  2987.05  3030.77  3046.95  3049.91
 reduced masses (amu)
    1:      1.97    2:      3.82    3:     10.18    4:      5.73    5:     12.44    6:      3.58
    7:      1.09    8:      3.38    9:      4.77   10:      1.12   11:      1.57   12:      1.20
   13:      2.64   14:      1.24   15:      1.24   16:      1.21   17:      1.11   18:      1.05
   19:      1.06   20:      1.10   21:      1.05   22:      1.07   23:      1.10   24:      1.05
 IR intensities (km·mol⁻¹)
    1:      1.42    2:      0.96    3:      0.46    4:      0.26    5:      1.19    6:      0.74
    7:      0.11    8:      0.49    9:     11.27   10:      6.45   11:      4.74   12:      0.60
   13:      0.69   14:      0.00   15:     31.60   16:     10.50   17:      0.04   18:      8.26
   19:      3.60   20:      5.71   21:      6.15   22:     22.25   23:     16.46   24:     10.39
 Raman intensities (Ä⁴*amu⁻¹)
    1:      0.00    2:      0.00    3:      0.00    4:      0.00    5:      0.00    6:      0.00
    7:      0.00    8:      0.00    9:      0.00   10:      0.00   11:      0.00   12:      0.00
   13:      0.00   14:      0.00   15:      0.00   16:      0.00   17:      0.00   18:      0.00
   19:      0.00   20:      0.00   21:      0.00   22:      0.00   23:      0.00   24:      0.00
 output can be read by thermo (or use thermo option).
 writing <g98.out> molden fake output.
 recommended (thermochemical) frequency scaling factor: 1.0
           -------------------------------------------------
          |             Thermodynamic Functions             |
           -------------------------------------------------

cs  symmetry found (for desy threshold:  0.10E+00) used in thermo

          ...................................................
          :                      SETUP                      :
          :.................................................:
          :  # frequencies                          18      :
          :  # imaginary freq.                       0      :
          :  linear?                             false      :
          :  only rotor calc.                    false      :
          :  symmetry                               cs      :
          :  rotational number                       1      :
          :  scaling factor                  1.0000000      :
          :  rotor cutoff                    0.0000000 cm⁻¹ :
          :  imag. cutoff                 -100.0000000 cm⁻¹ :
          :.................................................:

    mode    ω/cm⁻¹     T·S(HO)/kcal·mol⁻¹    T·S(FR)/kcal·mol⁻¹   T·S(vib)
   ------------------------------------------------------------------------
       1    227.07    -0.56708 (100.00%)    -0.60795 (  0.00%)    -0.56708
   ------------------------------------------------------------------------

   temp. (K)  partition function   enthalpy   heat capacity  entropy
                                   cal/mol     cal/K/mol   cal/K/mol   J/K/mol
 298.15  VIB   2.10                  794.296      6.659      4.137
         ROT  0.295E+05              888.727      2.981     23.434
         INT  0.619E+05             1683.024      9.640     27.571
         TR   0.159E+26             1481.212      4.968     38.412
         TOT                        3164.2362    14.6080    65.9829   276.0723

       T/K    H(0)-H(T)+PV         H(T)/Eh          T*S/Eh         G(T)/Eh
   ------------------------------------------------------------------------
    298.15    0.504253E-02    0.701382E-01    0.313506E-01    0.387876E-01
   ------------------------------------------------------------------------

         :::::::::::::::::::::::::::::::::::::::::::::::::::::
         ::                  THERMODYNAMIC                  ::
         :::::::::::::::::::::::::::::::::::::::::::::::::::::
         :: total free energy         -11.339259222411 Eh   ::
         ::.................................................::
         :: total energy              -11.378046846309 Eh   ::
         :: zero point energy           0.065095674967 Eh   ::
         :: G(RRHO) w/o ZPVE           -0.026308051069 Eh   ::
         :: G(RRHO) contrib.            0.038787623898 Eh   ::
         :::::::::::::::::::::::::::::::::::::::::::::::::::::

optimized geometry written to: xtbopt.coord


           -------------------------------------------------
          | TOTAL ENERGY              -11.378046846309 Eh   |
          | TOTAL ENTHALPY            -11.307908639924 Eh   |
          | TOTAL FREE ENERGY         -11.339259222411 Eh   |
          | GRADIENT NORM               0.000044249433 Eh/α |
          | HOMO-LUMO GAP               6.926552528118 eV   |
           -------------------------------------------------

------------------------------------------------------------------------
 * finished run on 2025/04/09 at 03:19:14.861     
------------------------------------------------------------------------
 total:
 * wall-time:     0 d,  0 h,  0 min,  0.076 sec
 *  cpu-time:     0 d,  0 h,  0 min,  0.075 sec
 * ratio c/w:     0.985 speedup
 SCF:
 * wall-time:     0 d,  0 h,  0 min,  0.002 sec
 *  cpu-time:     0 d,  0 h,  0 min,  0.002 sec
 * ratio c/w:     0.995 speedup
 ANC optimizer:
 * wall-time:     0 d,  0 h,  0 min,  0.011 sec
 *  cpu-time:     0 d,  0 h,  0 min,  0.011 sec
 * ratio c/w:     0.987 speedup
 analytical hessian:
 * wall-time:     0 d,  0 h,  0 min,  0.060 sec
 *  cpu-time:     0 d,  0 h,  0 min,  0.059 sec
 * ratio c/w:     0.986 speedup

