18
 energy: -235.792367984401 gnorm: 0.020239706221 xtb: 6.7.1 (41059b4)
C           -1.41409837122662       -0.30856275343673       -0.24158854020705
C           -0.43978326549488       -1.37878249931097        0.24164217600708
C            0.97420820033170       -1.07029414817428       -0.24170445030711
C            1.41406355512661        0.30850726803671        0.24168735490710
C            0.43984521009491        1.37881266761099       -0.24163526740707
C           -0.97422724963171        1.07030751387428        0.24158143470705
H           -2.41992362847233       -0.52797901783396        0.12356245255475
H           -1.44585537854070       -0.31556959403984       -1.33384026599106
H           -0.44950842909919       -1.40941613172455        1.33388231979108
H           -0.75266412233353       -2.35968140884564       -0.12306175385453
H            1.66727455973881       -1.83160413011163        0.12319952165459
H            0.99591511384132       -1.09418977308486       -1.33394832119111
H            1.44555188984056        0.31529827913972        1.33388051119108
H            2.41994709907234        0.52799918433397       -0.12323302415461
H            0.75270285073354        2.35966427514563        0.12339392545468
H            0.44975027019930        1.40967967672467       -1.33384994739106
H           -0.99608570334139        1.09432175088492        1.33374689919102
H           -1.66720080043878        1.83161931201164       -0.12352624815474
18
 energy: -235.793038315052 gnorm: 0.004539489723 xtb: 6.7.1 (41059b4)
C           -1.42314661299804       -0.31062324790970       -0.23447784530216
C           -0.44256608634017       -1.38750635541074        0.23441625847683
C            0.98050197531998       -1.07684759873703       -0.23450171150813
C            1.42313856125396        0.31058426926533        0.23453018889243
C            0.44261203353512        1.38753522245041       -0.23435275612301
C           -0.98053023680716        1.07687010711210        0.23439298822469
H           -2.43430264103846       -0.53096912306021        0.12419611226552
H           -1.46154547189070       -0.31875969702208       -1.33104856369722
H           -0.45440113776723       -1.42435542307929        1.33103785068214
H           -0.75713126193542       -2.37363936189483       -0.12360369144453
H            1.67702841186722       -1.84239462241981        0.12380326610616
H            1.00688093382296       -1.10581478739785       -1.33112275259065
H            1.46133935575321        0.31857668071764        1.33109187807307
H            2.43434681245527        0.53095749020326       -0.12396804150617
H            0.75713886334455        2.37362508750367        0.12386808309460
H            0.45459504330576        1.42454374886940       -1.33095727046922
H           -1.00703433418775        1.10597551271796        1.33098769723759
H           -1.67701236549969        1.84237248951528       -0.12410317075466
18
 energy: -235.793100055344 gnorm: 0.000642160940 xtb: 6.7.1 (41059b4)
C           -1.42416292337249       -0.31082264904823       -0.23509505031062
C           -0.44288029070661       -1.38843929083637        0.23493133533753
C            0.98125738446154       -1.07755383449958       -0.23507658467202
C            1.42415110168994        0.31079728779776        0.23514583143601
C            0.44291203279362        1.38846037082288       -0.23487413431846
C           -0.98127840350879        1.07757683989056        0.23500081342128
H           -2.43595275778250       -0.53128515315976        0.12469634356560
H           -1.46914319959112       -0.32027747380370       -1.33356703212249
H           -0.45673839806136       -1.43154161431996        1.33348168991610
H           -0.75757344574097       -2.37524927076436       -0.12408404197077
H            1.67812881889606       -1.84367896633826        0.12431678329808
H            1.01222535227868       -1.11150408138506       -1.33362506377193
H            1.46901378004242        0.32015010578265        1.33362658262822
H            2.43597607292673        0.53127786460940       -0.12452788244679
H            0.75757332847169        2.37523298761210        0.12427205233749
H            0.45688109375846        1.43167448208855       -1.33341488738873
H           -1.01236471682818        1.11165591680645        1.33354144960500
H           -1.67811296906648        1.84365683060815       -0.12455974055937
18
 energy: -235.793108124460 gnorm: 0.000522741744 xtb: 6.7.1 (41059b4)
C           -1.42459623056380       -0.31088016893318       -0.23434267304525
C           -0.44303539297170       -1.38881747573008        0.23412123058555
C            0.98155964815776       -1.07787088551011       -0.23429003125973
C            1.42458568469687        0.31086780227723        0.23439005402313
C            0.44305133217872        1.38882961337856       -0.23407268470631
C           -0.98157822191201        1.07789367191147        0.23424973855800
H           -2.43553832890732       -0.53122906172167        0.12830247563293
H           -1.47284463207682       -0.32100870658379       -1.33275820827916
H           -0.45786230970604       -1.43505323242044        1.33262190367096
H           -0.75740984204529       -2.37483236768075       -0.12773110092963
H            1.67780931606119       -1.84338737630657        0.12800830516472
H            1.01479815345065       -1.11426770919145       -1.33278201029952
H            1.47277559260994        0.32093038154744        1.33281209151961
H            2.43554811232517        0.53123276885427       -0.12818793224888
H            0.75740685112678        2.37482096403880        0.12785618199493
H            0.45795034847554        1.43513102970547       -1.33256898507565
H           -1.01491143316957        1.11439206983586        1.33273553690247
H           -1.67779679176131        1.84337899231321       -0.12817546728946
18
 energy: -235.793111377307 gnorm: 0.000155887201 xtb: 6.7.1 (41059b4)
C           -1.42490215687896       -0.31093534851100       -0.23345830324990
C           -0.44312977136466       -1.38909283780957        0.23322234055164
C            0.98178103198675       -1.07810066862531       -0.23339444315744
C            1.42489122880883        0.31093918691105        0.23348944694943
C            0.44313038768889        1.38910957582568       -0.23318308246289
C           -0.98179353256588        1.07811730508264        0.23339385154701
H           -2.43463785023878       -0.53105149886961        0.13239778971404
H           -1.47598899175244       -0.32165492865118       -1.33140394551429
H           -0.45885991616530       -1.43812453265987        1.33125157764857
H           -0.75711947703181       -2.37391542287738       -0.13189999200249
H            1.67714664453911       -1.84270615580859        0.13221191115172
H            1.01701074208283       -1.11668120090707       -1.33140517942195
H            1.47596396810346        0.32163465399953        1.33143561431528
H            2.43463296952198        0.53105920141695       -0.13234852442464
H            0.75711436523467        2.37392713779222        0.13195975736905
H            0.45888638284849        1.43815545009287       -1.33121044848414
H           -1.01706675595082        1.11674410815357        1.33139984254869
H           -1.67714742130770        1.84270624167917       -0.13226982531568
18
 energy: -235.793111377307 gnorm: 0.000155887201 xtb: 6.7.1 (41059b4)
C           -1.42490215687896       -0.31093534851100       -0.23345830324990
C           -0.44312977136466       -1.38909283780957        0.23322234055164
C            0.98178103198675       -1.07810066862531       -0.23339444315744
C            1.42489122880883        0.31093918691105        0.23348944694943
C            0.44313038768889        1.38910957582568       -0.23318308246289
C           -0.98179353256588        1.07811730508264        0.23339385154701
H           -2.43463785023878       -0.53105149886961        0.13239778971404
H           -1.47598899175244       -0.32165492865118       -1.33140394551429
H           -0.45885991616530       -1.43812453265987        1.33125157764857
H           -0.75711947703181       -2.37391542287738       -0.13189999200249
H            1.67714664453911       -1.84270615580859        0.13221191115172
H            1.01701074208283       -1.11668120090707       -1.33140517942195
H            1.47596396810346        0.32163465399953        1.33143561431528
H            2.43463296952198        0.53105920141695       -0.13234852442464
H            0.75711436523467        2.37392713779222        0.13195975736905
H            0.45888638284849        1.43815545009287       -1.33121044848414
H           -1.01706675595082        1.11674410815357        1.33139984254869
H           -1.67714742130770        1.84270624167917       -0.13226982531568
