
                                 *****************
                                 * O   R   C   A *
                                 *****************

                                            #,                                       
                                            ###                                      
                                            ####                                     
                                            #####                                    
                                            ######                                   
                                           ########,                                 
                                     ,,################,,,,,                         
                               ,,#################################,,                 
                          ,,##########################################,,             
                       ,#########################################, ''#####,          
                    ,#############################################,,   '####,        
                  ,##################################################,,,,####,       
                ,###########''''           ''''###############################       
              ,#####''   ,,,,##########,,,,          '''####'''          '####       
            ,##' ,,,,###########################,,,                        '##       
           ' ,,###''''                  '''############,,,                           
         ,,##''                                '''############,,,,        ,,,,,,###''
      ,#''                                            '''#######################'''  
     '                                                          ''''####''''         
             ,#######,   #######,   ,#######,      ##                                
            ,#'     '#,  ##    ##  ,#'     '#,    #''#        ,####,   ,####,        
            ##       ##  ##   ,#'  ##            #'  '#       #'       #'  '#        
            ##       ##  #######   ##           ,######,      #####,   #    #        
            '#,     ,#'  ##    ##  '#,     ,#' ,#      #,     #,   #   #,  ,#        
             '#######'   ##     ##  '#######'  #'      '#     '####' # '####'        



                #########################################################
                #                        -***-                          #
                #          Department of theory and spectroscopy        #
                #                                                       #
                #                      Frank Neese                      #
                #                                                       #
                #     Directorship, Architecture, Infrastructure        #
                #                    SHARK, DRIVERS                     #
                #        Core code/Algorithms in most modules           #
                #                                                       #
                #        Max Planck Institute fuer Kohlenforschung      #
                #                Kaiser Wilhelm Platz 1                 #
                #                 D-45470 Muelheim/Ruhr                 #
                #                      Germany                          #
                #                                                       #
                #                  All rights reserved                  #
                #                        -***-                          #
                #########################################################


                         Program Version 6.0.1  -  RELEASE   -


 With contributions from (in alphabetic order):
[Max-Planck-Institut fuer Kohlenforschung]                               
  Daniel Aravena         : Magnetic Suceptibility                        
  Michael Atanasov       : Ab Initio Ligand Field Theory (pilot matlab implementation)
  Alexander A. Auer      : GIAO ZORA, VPT2 properties, NMR spectrum      
  Ute Becker             : All parallelization in ORCA, NUMFREQ, NUMCALC 
  Giovanni Bistoni       : ED, misc. LED, open-shell LED, HFLD           
  Martin Brehm           : Molecular dynamics                            
  Dmytro Bykov           : pre 5.0 version of the SCF Hessian            
  Marcos Casanova-Páez   : Triplet and SCS-CIS(D). UHF-(DLPNO)-IP/EA/STEOM-CCSD. UHF-CVS-IP/STEOM-CCSD   
  Vijay G. Chilkuri      : MRCI spin determinant printing, contributions to CSF-ICE 
  Pauline Colinet        : FMM embedding                                 
  Dipayan Datta          : RHF DLPNO-CCSD density                        
  Achintya Kumar Dutta   : EOM-CC, STEOM-CC                              
  Nicolas Foglia         : Exact transition moments, OPA infrastructure, MCD improvements    
  Dmitry Ganyushin       : Spin-Orbit,Spin-Spin,Magnetic field MRCI      
  Miquel Garcia-Rates    : C-PCM and meta-GGA Hessian, CCSD/C-PCM, Gaussian charge scheme 
  Tiago L. C. Gouveia    : GS-ROHF, GS-ROCIS                             
  Yang Guo               : DLPNO-NEVPT2, F12-NEVPT2, CIM, IAO-localization        
  Andreas Hansen         : Spin unrestricted coupled pair/coupled cluster methods 
  Ingolf Harden          : AUTO-CI MPn and infrastructure                
  Benjamin Helmich-Paris : MC-RPA, TRAH-(SCF,CASSCF), AVAS, COSX integrals, SCF dyn. polar. 
  Lee Huntington         : MR-EOM, pCC                                   
  Robert Izsak           : Overlap fitted RIJCOSX, COSX-SCS-MP3, EOM     
  Riya Kayal             : Wick's Theorem for AUTO-CI, AUTO-CI UHF-CCSDT 
  Emily Kempfer          : AUTO-CI, RHF CISDT and CCSDT                  
  Christian Kollmar      : KDIIS, OOCD, Brueckner-CCSD(T), CCSD density, CASPT2, CASPT2-K, improved NEVPT2 
  Axel Koslowski         : Symmetry handling                             
  Simone Kossmann        : meta-GGA functionals, TD-DFT gradient, OOMP2, (MP2 Hessian; deprecated post 5.0) 
  Lucas Lang             : DCDCAS                                        
  Marvin Lechner         : AUTO-CI (C++ implementation), FIC-MRCC        
  Spencer Leger          : CASSCF response                               
  Dagmar Lenk            : GEPOL surface, SMD, ORCA-2-JSON               
  Dimitrios Liakos       : Extrapolation schemes; Compound Job, initial MDCI parallelization 
  Dimitrios Manganas     : Further ROCIS development; embedding schemes. LFT, Crystal Embedding 
  Dimitrios Pantazis     : SARC Basis sets                               
  Anastasios Papadopoulos: AUTO-CI, single reference methods and gradients 
  Taras Petrenko         : pre 6.0 DFT Hessian and TD-DFT gradient, (ASA, deprecated), ECA, 1-Electron XAS/XES, NRVS 
  Peter Pinski           : DLPNO-MP2, DLPNO-MP2 Gradient                 
  Christoph Reimann      : Effective Core Potentials                     
  Marius Retegan         : Local ZFS, SOC                                
  Christoph Riplinger    : Optimizer, TS searches, QM/MM, DLPNO-CCSD(T), (RO)-DLPNO pert. Triples 
  Michael Roemelt        : Original ROCIS implementation                 
  Masaaki Saitow         : Open-shell DLPNO-CCSD energy and density      
  Barbara Sandhoefer     : DKH picture change effects                    
  Kantharuban Sivalingam : CASSCF convergence/infrastructure, NEVPT2 and variants, FIC-MRCI 
  Bernardo de Souza      : ESD, SOC TD-DFT                               
  Georgi L. Stoychev     : AutoAux, RI-MP2 NMR, DLPNO-MP2 response, X2C  
  Van Anh Tran           : RI-MP2 g-tensors                              
  Willem Van den Heuvel  : Paramagnetic NMR                              
  Zikuan Wang            : NOTCH, Electric field optimization            
  Frank Wennmohs         : Technical directorship and infrastructure     
  Hang Xu                : AUTO-CI-Response properties                   
                                                                         
[FACCTs GmbH]                                                            
  Markus Bursch, Miquel Garcia-Rates, Christoph Riplinger, Bernardo de Souza, Georgi L. Stoychev 
                                                                 
  APM, Basis sets (HGBS, AHGBS, def-TZVP (Ac-Lr), def2-XVPD (La-Lu)), CI-OPT, improved COSX, DLPNO-Multilevel,           
  DOCKER, DRACO, updates on ESD, GOAT, IRC, LR-CPCM, MBIS, meta-GGA TD-DFT gradient, ML-optimized integration grids, 
  MM, NACMEs, nearIR, NEB, NEB-TS, NL-DFT gradient (VV10), 2- and 3-layer-ONIOM, interface openCOSMO-RS, QMMM,   
  Crystal-QMMM, SF, symmetry and pop. for TD-DFT, r2SCAN hybrids, SOLVATOR                                   
                                                                         
[Other institutions]                                                     
  V. Asgeirsson          : NEB                                           
  Christoph Bannwarth    : sTDA-DFT, sTD-DFT, PBEh-3c, B97-3c, D3        
  Sebastian Ehlert       : rSCAN, r2SCAN, r2SCAN-3c, D4, dhf basis sets  
  Marvin Friede          : D4 for Fr, Ra, Ac-Lr                          
  Lars Goerigk           : TD-DFT with DH, B97 family of functionals     
  Stefan Grimme          : VdW corrections, initial TS optimization, DFT functionals, gCP, sTDA/sTD-DF 
  Waldemar Hujo          : DFT-NL                                        
  H. Jonsson             : NEB                                           
  Holger Kruse           : gCP                                           
  Marcel Mueller         : wB97X-3c, vDZP basis set                      
  Hagen Neugebauer       : wr2SCAN                                       
  Tobias Risthaus        : range-separated hybrid DFT                    
  Lukas Wittmann         : regularized MP2, r2SCAN double-hybrids, wr2SCAN        
                                                                         
We gratefully acknowledge several colleagues who have allowed us to      
interface, adapt or use parts of their codes:                            
  Ed Valeev, F. Pavosevic, A. Kumar             : LibInt (2-el integral package), F12 methods 
  Garnet Chan, S. Sharma, J. Yang, R. Olivares  : DMRG                   
  Ulf Ekstrom                                   : XCFun DFT Library      
  Mihaly Kallay                                 : mrcc  (arbitrary order and MRCC methods)
  Frank Weinhold                                : gennbo (NPA and NBO analysis)           
  Simon Mueller                                 : openCOSMO-RS                            
  Christopher J. Cramer and Donald G. Truhlar   : smd solvation model                     
  S Lehtola, MJT Oliveira, MAL Marques          : LibXC Library                           
  Liviu Ungur et al                             : ANISO software                          


 Your calculation uses the libint2 library for the computation of 2-el integrals
 For citations please refer to: http://libint.valeyev.net

 Your ORCA version has been built with support for libXC version: 6.2.2
 For citations please refer to: https://libxc.gitlab.io

 This ORCA versions uses:
   CBLAS   interface :  Fast vector & matrix operations
   LAPACKE interface :  Fast linear algebra routines
   SCALAPACK package :  Parallel linear algebra routines
   Shared memory     :  Shared parallel matrices
   BLAS/LAPACK       :  OpenBLAS 0.3.27  USE64BITINT DYNAMIC_ARCH NO_AFFINITY Zen SINGLE_THREADED
        Core in use  :  Zen
   Copyright (c) 2011-2014, The OpenBLAS Project


Your calculation utilizes the geometrical counterpoise correction gCP
Please cite in your paper:
H.Kruse, S. Grimme J.Chem.Phys., 136, (2012), 154101 
   

Your calculation utilizes the atom-pairwise dispersion correction
based on EEQ partial charges (D4)


================================================================================

----- Orbital basis set information -----
Your calculation utilizes the basis: def2-SV(P)
   F. Weigend and R. Ahlrichs, Phys. Chem. Chem. Phys. 7, 3297 (2005).

----- AuxJ basis set information -----
Your calculation utilizes the auxiliary basis: def2/J
   F. Weigend, Phys. Chem. Chem. Phys. 8, 1057 (2006).

================================================================================
                                        WARNINGS
                       Please study these warnings very carefully!
================================================================================

WARNING: Old DensityContainer found on disk!
         Will remove this file - 
         If you want to keep old densities, please start your calculation with a different basename. 


================================================================================
                                       INPUT FILE
================================================================================
NAME = sp.inp
|  1> ! pbe def2-sv(p) def2/J RI DEFGRID1 loosescf d4 GCP(DFT/SV(P)) printgap
|  2> %output
|  3>     printlevel normal
|  4> end
|  5> * xyz 0 1
|  6> C -3.9788411882 -0.6945153357 0.0060177261
|  7> C -3.9788380727 0.6945285804 0.005803535
|  8> C -2.7827793533 1.3831351751 0.0023160844
|  9> C -1.5681810832 0.6982081975 -0.0006236594
| 10> C -1.5681946688 -0.6981948046 -0.0006109292
| 11> C -2.7828047152 -1.3831250039 0.0025863294
| 12> C -0.313201908 -1.4675080098 -0.004270708
| 13> O -0.3594235725 -2.7036516117 -0.0064505088
| 14> C 0.930190907 -0.7124574951 -0.0031756482
| 15> C 2.1578745511 -1.4117761852 0.0009148102
| 16> C 3.3681314849 -0.6796130989 0.0092097261
| 17> C 3.3681370517 0.6795803976 0.0097501873
| 18> C 2.1578935851 1.4117622986 0.0014977227
| 19> C 0.9302032006 0.7124572594 -0.0031826977
| 20> C -0.3131913831 1.4675085269 -0.0044808569
| 21> O -0.3594130469 2.7036604526 -0.006586257
| 22> N 2.2105061568 2.7568311326 -0.0046747526
| 23> N 2.2104473218 -2.756841703 -0.004027794
| 24> H -4.9139256441 -1.2351637425 0.0081627631
| 25> H -4.9139672848 1.2352348839 0.0078500101
| 26> H -2.7582394857 2.4628353008 0.0017682042
| 27> H -2.7582586128 -2.4627705603 0.0019950846
| 28> H 4.2995482776 -1.2283017651 0.0147769838
| 29> H 4.2995608289 1.2282667351 0.0155887461
| 30> H 3.0950773839 3.2299800384 0.0148590646
| 31> H 1.3239469613 3.2523734245 -0.0015063819
| 32> H 1.3238974733 -3.2523753937 -0.0035120079
| 33> H 3.0951413739 -3.2299591825 0.0086906783
| 34> *
| 35> 
| 36>                          ****END OF INPUT****
================================================================================

                       ****************************
                       * Single Point Calculation *
                       ****************************

---------------------------------
CARTESIAN COORDINATES (ANGSTROEM)
---------------------------------
  C     -3.978841   -0.694515    0.006018
  C     -3.978838    0.694529    0.005804
  C     -2.782779    1.383135    0.002316
  C     -1.568181    0.698208   -0.000624
  C     -1.568195   -0.698195   -0.000611
  C     -2.782805   -1.383125    0.002586
  C     -0.313202   -1.467508   -0.004271
  O     -0.359424   -2.703652   -0.006451
  C      0.930191   -0.712457   -0.003176
  C      2.157875   -1.411776    0.000915
  C      3.368131   -0.679613    0.009210
  C      3.368137    0.679580    0.009750
  C      2.157894    1.411762    0.001498
  C      0.930203    0.712457   -0.003183
  C     -0.313191    1.467509   -0.004481
  O     -0.359413    2.703660   -0.006586
  N      2.210506    2.756831   -0.004675
  N      2.210447   -2.756842   -0.004028
  H     -4.913926   -1.235164    0.008163
  H     -4.913967    1.235235    0.007850
  H     -2.758239    2.462835    0.001768
  H     -2.758259   -2.462771    0.001995
  H      4.299548   -1.228302    0.014777
  H      4.299561    1.228267    0.015589
  H      3.095077    3.229980    0.014859
  H      1.323947    3.252373   -0.001506
  H      1.323897   -3.252375   -0.003512
  H      3.095141   -3.229959    0.008691

----------------------------
CARTESIAN COORDINATES (A.U.)
----------------------------
  NO LB      ZA    FRAG     MASS         X           Y           Z
   0 C     6.0000    0    12.011   -7.518920   -1.312444    0.011372
   1 C     6.0000    0    12.011   -7.518914    1.312469    0.010967
   2 C     6.0000    0    12.011   -5.258691    2.613747    0.004377
   3 C     6.0000    0    12.011   -2.963433    1.319422   -0.001179
   4 C     6.0000    0    12.011   -2.963458   -1.319397   -0.001154
   5 C     6.0000    0    12.011   -5.258739   -2.613727    0.004887
   6 C     6.0000    0    12.011   -0.591866   -2.773188   -0.008070
   7 O     8.0000    0    15.999   -0.679212   -5.109161   -0.012190
   8 C     6.0000    0    12.011    1.757806   -1.346350   -0.006001
   9 C     6.0000    0    12.011    4.077792   -2.667870    0.001729
  10 C     6.0000    0    12.011    6.364846   -1.284283    0.017404
  11 C     6.0000    0    12.011    6.364857    1.284221    0.018425
  12 C     6.0000    0    12.011    4.077828    2.667844    0.002830
  13 C     6.0000    0    12.011    1.757829    1.346349   -0.006014
  14 C     6.0000    0    12.011   -0.591846    2.773189   -0.008468
  15 O     8.0000    0    15.999   -0.679192    5.109178   -0.012446
  16 N     7.0000    0    14.007    4.177251    5.209656   -0.008834
  17 N     7.0000    0    14.007    4.177140   -5.209676   -0.007611
  18 H     1.0000    0     1.008   -9.285974   -2.334121    0.015425
  19 H     1.0000    0     1.008   -9.286052    2.334256    0.014834
  20 H     1.0000    0     1.008   -5.212317    4.654084    0.003341
  21 H     1.0000    0     1.008   -5.212353   -4.653962    0.003770
  22 H     1.0000    0     1.008    8.124969   -2.321154    0.027924
  23 H     1.0000    0     1.008    8.124992    2.321088    0.029458
  24 H     1.0000    0     1.008    5.848849    6.103778    0.028080
  25 H     1.0000    0     1.008    2.501897    6.146095   -0.002847
  26 H     1.0000    0     1.008    2.501804   -6.146099   -0.006637
  27 H     1.0000    0     1.008    5.848970   -6.103738    0.016423

--------------------------------
INTERNAL COORDINATES (ANGSTROEM)
--------------------------------
 C      0   0   0     0.000000000000     0.00000000     0.00000000
 C      1   0   0     1.389043932618     0.00000000     0.00000000
 C      2   1   0     1.380125959769   119.93036327     0.00000000
 C      3   2   1     1.394411189165   120.65066766     0.00000000
 C      4   3   2     1.396403002224   119.41855808     0.02799776
 C      1   2   3     1.380108073438   119.93062990     0.00000000
 C      5   4   3     1.472026844638   121.50771738   179.97156568
 O      7   5   4     1.237009376811   119.36712711   180.12362555
 C      7   5   4     1.454691778797   117.22317051     0.20971890
 C      9   7   5     1.412894366952   119.06487661   179.65181369
 C     10   9   7     1.414515265517   119.16106085   180.33504998
 C     11  10   9     1.359193603964   121.17226225   359.82583637
 C     12  11  10     1.414513233509   121.17242194   359.97444249
 C     13  12  11     1.412895298449   119.16086103     0.19802358
 C     14  13  12     1.454693848390   119.06550972   179.67612035
 O     15  14  13     1.237017565892   123.40962987     0.27182374
 N     13  12  11     1.346111566829   118.93429280   180.34426392
 N     10   9   7     1.346101620506   121.90409571     0.39393140
 H      1   2   3     1.080133436491   120.03578390   180.03565002
 H      2   1   3     1.080200971129   120.03696346   179.96852120
 H      3   2   1     1.079979104757   121.23230304   179.98064075
 H      6   1   2     1.079924714120   121.23327903   180.04251034
 H     11  10   9     1.081030752799   118.32662567   179.84837444
 H     12  11  10     1.081037019931   120.50151759   180.03317924
 H     17  13  12     1.003353234353   120.36925465   358.78972966
 H     17  13  12     1.015657131497   116.96165009   180.57089459
 H     18  10   9     1.015639965012   116.96421876   359.53395746
 H     18  10   9     1.003337169035   120.36930870   180.63876000

---------------------------
INTERNAL COORDINATES (A.U.)
---------------------------
 C      0   0   0     0.000000000000     0.00000000     0.00000000
 C      1   0   0     2.624912620632     0.00000000     0.00000000
 C      2   1   0     2.608060094279   119.93036327     0.00000000
 C      3   2   1     2.635055265597   120.65066766     0.00000000
 C      4   3   2     2.638819246789   119.41855808     0.02799776
 C      1   2   3     2.608026294011   119.93062990     0.00000000
 C      5   4   3     2.781727598147   121.50771738   179.97156568
 O      7   5   4     2.337608947266   119.36712711   180.12362555
 C      7   5   4     2.748969071192   117.22317051     0.20971890
 C      9   7   5     2.669983409699   119.06487661   179.65181369
 C     10   9   7     2.673046464078   119.16106085   180.33504998
 C     11  10   9     2.568503674470   121.17226225   359.82583637
 C     12  11  10     2.673042624139   121.17242194   359.97444249
 C     13  12  11     2.669985169974   119.16086103     0.19802358
 C     14  13  12     2.748972982158   119.06550972   179.67612035
 O     15  14  13     2.337624422386   123.40962987     0.27182374
 N     13  12  11     2.543782207010   118.93429280   180.34426392
 N     10   9   7     2.543763411185   121.90409571     0.39393140
 H      1   2   3     2.041156383058   120.03578390   180.03565002
 H      2   1   3     2.041284005029   120.03696346   179.96852120
 H      3   2   1     2.040864738348   121.23230304   179.98064075
 H      6   1   2     2.040761954940   121.23327903   180.04251034
 H     11  10   9     2.042852065138   118.32662567   179.84837444
 H     12  11  10     2.042863908300   120.50151759   180.03317924
 H     17  13  12     1.896062828512   120.36925465   358.78972966
 H     17  13  12     1.919313824493   116.96165009   180.57089459
 H     18  10   9     1.919281384538   116.96421876   359.53395746
 H     18  10   9     1.896032469460   120.36930870   180.63876000

---------------------
BASIS SET INFORMATION
---------------------
There are 4 groups of distinct atoms

 Group   1 Type C   : 7s4p1d contracted to 3s2p1d pattern {511/31/1}
 Group   2 Type O   : 7s4p1d contracted to 3s2p1d pattern {511/31/1}
 Group   3 Type N   : 7s4p1d contracted to 3s2p1d pattern {511/31/1}
 Group   4 Type H   : 4s contracted to 2s pattern {31}

Atom   0C    basis set group =>   1
Atom   1C    basis set group =>   1
Atom   2C    basis set group =>   1
Atom   3C    basis set group =>   1
Atom   4C    basis set group =>   1
Atom   5C    basis set group =>   1
Atom   6C    basis set group =>   1
Atom   7O    basis set group =>   2
Atom   8C    basis set group =>   1
Atom   9C    basis set group =>   1
Atom  10C    basis set group =>   1
Atom  11C    basis set group =>   1
Atom  12C    basis set group =>   1
Atom  13C    basis set group =>   1
Atom  14C    basis set group =>   1
Atom  15O    basis set group =>   2
Atom  16N    basis set group =>   3
Atom  17N    basis set group =>   3
Atom  18H    basis set group =>   4
Atom  19H    basis set group =>   4
Atom  20H    basis set group =>   4
Atom  21H    basis set group =>   4
Atom  22H    basis set group =>   4
Atom  23H    basis set group =>   4
Atom  24H    basis set group =>   4
Atom  25H    basis set group =>   4
Atom  26H    basis set group =>   4
Atom  27H    basis set group =>   4
---------------------------------
AUXILIARY/J BASIS SET INFORMATION
---------------------------------
There are 4 groups of distinct atoms

 Group   1 Type C   : 12s5p4d2f1g contracted to 6s4p3d1f1g pattern {711111/2111/211/2/1}
 Group   2 Type O   : 12s5p4d2f1g contracted to 6s4p3d1f1g pattern {711111/2111/211/2/1}
 Group   3 Type N   : 12s5p4d2f1g contracted to 6s4p3d1f1g pattern {711111/2111/211/2/1}
 Group   4 Type H   : 5s2p1d contracted to 3s1p1d pattern {311/2/1}

Atom   0C    basis set group =>   1
Atom   1C    basis set group =>   1
Atom   2C    basis set group =>   1
Atom   3C    basis set group =>   1
Atom   4C    basis set group =>   1
Atom   5C    basis set group =>   1
Atom   6C    basis set group =>   1
Atom   7O    basis set group =>   2
Atom   8C    basis set group =>   1
Atom   9C    basis set group =>   1
Atom  10C    basis set group =>   1
Atom  11C    basis set group =>   1
Atom  12C    basis set group =>   1
Atom  13C    basis set group =>   1
Atom  14C    basis set group =>   1
Atom  15O    basis set group =>   2
Atom  16N    basis set group =>   3
Atom  17N    basis set group =>   3
Atom  18H    basis set group =>   4
Atom  19H    basis set group =>   4
Atom  20H    basis set group =>   4
Atom  21H    basis set group =>   4
Atom  22H    basis set group =>   4
Atom  23H    basis set group =>   4
Atom  24H    basis set group =>   4
Atom  25H    basis set group =>   4
Atom  26H    basis set group =>   4
Atom  27H    basis set group =>   4

Checking for AutoStart:
The File: sp.gbw exists
Trying to determine its content:
     ... Fine, the file contains calculation information
     ... Fine, the calculation information was read
     ... Fine, the file contains a basis set
     ... Fine, the basis set was read
     ... Fine, the file contains a geometry
     ... Fine, the geometry was read
     ... Fine, the file contains a set of orbitals
     ... Fine, the orbitals can be read
     => possible old guess file was deleted
     => GBW file was renamed to GES file
     => GES file is set as startup file
     => Guess is set to MORead
     ... now leaving AutoStart

------------------------------------------------------------------------------
                             ORCA STARTUP CALCULATIONS
                           -- RI-GTO INTEGRALS CHOSEN --
------------------------------------------------------------------------------
------------------------------------------------------------------------------
                   ___                                                        
                  /   \      - P O W E R E D   B Y -                         
                 /     \                                                     
                 |  |  |   _    _      __       _____    __    __             
                 |  |  |  | |  | |    /  \     |  _  \  |  |  /  |          
                  \  \/   | |  | |   /    \    | | | |  |  | /  /          
                 / \  \   | |__| |  /  /\  \   | |_| |  |  |/  /          
                |  |  |   |  __  | /  /__\  \  |    /   |      \           
                |  |  |   | |  | | |   __   |  |    \   |  |\   \          
                \     /   | |  | | |  |  |  |  | |\  \  |  | \   \       
                 \___/    |_|  |_| |__|  |__|  |_| \__\ |__|  \__/        
                                                                              
                      - O R C A' S   B I G   F R I E N D -                    
                                      &                                       
                       - I N T E G R A L  F E E D E R -                       
                                                                              
 v1 FN, 2020, v2 2021, v3 2022-2024                                           
------------------------------------------------------------------------------


----------------------
SHARK INTEGRAL PACKAGE
----------------------

Number of atoms                             ...     28
Number of basis functions                   ...    272
Number of shells                            ...    128
Maximum angular momentum                    ...      2
Integral batch strategy                     ... SHARK/LIBINT Hybrid
RI-J (if used) integral strategy            ... SPLIT-RIJ (Revised 2003 algorithm where possible)
Printlevel                                  ...      1
Contraction scheme used                     ... SEGMENTED contraction
Prescreening option                         ... SCHWARTZ
   Thresh                                   ... 1.000e-09
   Tcut                                     ... 1.000e-10
   Tpresel                                  ... 1.000e-10 
Coulomb Range Separation                    ... NOT USED
Exchange Range Separation                   ... NOT USED
Multipole approximations                    ... NOT USED
Finite Nucleus Model                        ... NOT USED
CABS basis                                  ... NOT available
Auxiliary Coulomb fitting basis             ... AVAILABLE
   # of basis functions in Aux-J            ...    992
   # of shells in Aux-J                     ...    320
   Maximum angular momentum in Aux-J        ...      4
Auxiliary J/K fitting basis                 ... NOT available
Auxiliary Correlation fitting basis         ... NOT available
Auxiliary 'external' fitting basis          ... NOT available

Checking pre-screening integrals            ... done (  0.0 sec) Dimension = 128
Check shell pair data                       ... done (  0.0 sec)
Shell pair information
Shell pair cut-off parameter TPreSel        ...   1.0e-10
Total number of shell pairs                 ...      8256
Shell pairs after pre-screening             ...      6729
Total number of primitive shell pairs       ...     33160
Primitive shell pairs kept                  ...     17161
          la=0 lb=0:   2164 shell pairs
          la=1 lb=0:   2292 shell pairs
          la=1 lb=1:    624 shell pairs
          la=2 lb=0:    990 shell pairs
          la=2 lb=1:    544 shell pairs
          la=2 lb=2:    115 shell pairs

Calculating one electron integrals          ... done (  0.0 sec)
Calculating RI/J V-Matrix + Cholesky decomp.... done (  0.0 sec)
Calculating Nuclear repulsion               ... done (  0.0 sec) ENN=   1244.481827068460 Eh

Diagonalization of the overlap matrix:
Smallest eigenvalue                        ... 1.415e-04
Time for diagonalization                   ...    0.005 sec
Threshold for overlap eigenvalues          ... 1.000e-07
Number of eigenvalues below threshold      ... 0
Time for construction of square roots      ...    0.002 sec
Total time needed                          ...    0.007 sec

-------------------
DFT GRID GENERATION
-------------------

General Integration Accuracy     IntAcc      ... 4.159
Radial Grid Type                 RadialGrid  ... OptM3 with GC (2021)
Angular Grid (max. ang.)         AngularGrid ... 3 (Lebedev-194)
Angular grid pruning method      GridPruning ... 4 (adaptive)
Weight generation scheme         WeightScheme... mBecke (2022)
Basis function cutoff            BFCut       ... 1.0000e-10
Integration weight cutoff        WCut        ... 1.0000e-14
Partially contracted basis set               ... off
Rotationally invariant grid construction     ... off
Angular grids for H and He will be reduced by one unit

Total number of grid points                  ...    72355
Total number of batches                      ...     1146
Average number of points per batch           ...       63
Average number of grid points per atom       ...     2584
Initializing property integral containers    ... done (  0.0 sec)

SHARK setup successfully completed in   0.6 seconds

Maximum memory used throughout the entire STARTUP-calculation: 38.7 MB
-------------------------------------------------------------------------------
                                 ORCA GUESS
                   Start orbitals & Density for SCF / CASSCF
-------------------------------------------------------------------------------

------------
SCF SETTINGS
------------
Hamiltonian:
 Density Functional     Method          .... DFT(GTOs)
 Exchange Functional    Exchange        .... PBE
   PBE kappa parameter   XKappa         ....  0.804000
   PBE mue parameter    XMuePBE         ....  0.219520
 Correlation Functional Correlation     .... PBE
   PBE beta parameter  CBetaPBE         ....  0.066725
 LDA part of GGA corr.  LDAOpt          .... PW91-LDA
 Gradients option       PostSCFGGA      .... off
   NL short-range parameter             ....  6.400000
 RI-approximation to the Coulomb term is turned on
   Number of AuxJ basis functions       .... 992


General Settings:
 Integral files         IntName         .... sp
 Hartree-Fock type      HFTyp           .... RHF
 Total Charge           Charge          ....    0
 Multiplicity           Mult            ....    1
 Number of Electrons    NEL             ....  124
 Basis Dimension        Dim             ....  272
 Nuclear Repulsion      ENuc            ....   1244.4818270685 Eh

Convergence Acceleration:
 AO-DIIS                CNVDIIS         .... on
   Start iteration      DIISMaxIt       ....    12
   Startup error        DIISStart       ....  0.200000
   # of expansion vecs  DIISMaxEq       ....     5
   Bias factor          DIISBfac        ....   1.050
   Max. coefficient     DIISMaxC        ....  10.000
 MO-DIIS                CNVKDIIS        .... off
 Trust-Rad. Augm. Hess. CNVTRAH         .... auto
   Auto Start mean grad. ratio tolernc. ....  1.125000
   Auto Start start iteration           ....     1
   Auto Start num. interpolation iter.  ....    10
   Max. Number of Micro iterations      ....    24
   Max. Number of Macro iterations      .... Maxiter - #DIIS iter
   Number of Davidson start vectors     ....     2
   Converg. threshold    (grad. norm)   ....   1.000e-04
   Grad. Scal. Fac. for Micro threshold ....   0.100
   Minimum threshold for Micro iter.    ....   1.000e-02
   NR start threshold (gradient norm)   ....   1.000e-04
   Initial trust radius                 ....   0.400
   Minimum AH scaling param. (alpha)    ....   1.000
   Maximum AH scaling param. (alpha)    .... 1000.000
   Quad. conv. algorithm                .... NR
   White noise on init. David. guess    .... on
   Maximum white noise                  ....   0.010
   Pseudo random numbers                .... off
   Inactive MOs                         .... canonical
   Orbital update algorithm             .... Taylor
   Preconditioner                       .... Diag
   Full preconditioner red. dimension   ....   250
 SOSCF                  CNVSOSCF        .... on
   Start iteration      SOSCFMaxIt      ....   150
   Startup grad/error   SOSCFStart      ....  0.003300
   Hessian update       SOSCFHessUp     .... L-BFGS
 Level Shifting         CNVShift        .... on
   Level shift para.    LevelShift      ....    0.2500
   Turn off err/grad.   ShiftErr        ....    0.0010
 Zerner damping         CNVZerner       .... off
 Static damping         CNVDamp         .... on
   Fraction old density DampFac         ....    0.7000
   Max. Damping (<1)    DampMax         ....    0.9800
   Min. Damping (>=0)   DampMin         ....    0.0000
   Turn off err/grad.   DampErr         ....    0.1000

SCF Procedure:
 Maximum # iterations   MaxIter         ....   125
 SCF integral mode      SCFMode         .... Direct
   Integral package                     .... SHARK and LIBINT hybrid scheme
 Reset frequency        DirectResetFreq ....    20
 Integral Threshold     Thresh          ....  1.000e-09 Eh
 Primitive CutOff       TCut            ....  1.000e-10 Eh

Convergence Tolerance:
 Convergence Check Mode ConvCheckMode   .... Total+1el-Energy
 Convergence forced     ConvForced      .... 0
 Energy Change          TolE            ....  1.000e-05 Eh
 1-El. energy change                    ....  1.000e-02 Eh
 Orbital Gradient       TolG            ....  1.000e-04
 Orbital Rotation angle TolX            ....  1.000e-04
 DIIS Error             TolErr          ....  5.000e-04

---------------------
INITIAL GUESS: MOREAD
---------------------
Guess MOs are being read from file: sp.ges
Input Geometry matches current geometry (good)
Input basis set matches current basis set (good)
Occupation numbers will be reassigned to an Aufbau configuration
MOs were renormalized
MOs were reorthogonalized (Cholesky)
                      ------------------
                      INITIAL GUESS DONE (   0.0 sec)
                      ------------------
             **** ENERGY FILE WAS UPDATED (sp.en.tmp) ****
Finished Guess after   0.1 sec
Maximum memory used throughout the entire GUESS-calculation: 20.3 MB

-------------------------------------------------------------------------------------------
                                      ORCA LEAN-SCF
                              memory conserving SCF solver
-------------------------------------------------------------------------------------------

----------------------------------------D-I-I-S--------------------------------------------
Iteration    Energy (Eh)           Delta-E    RMSDP     MaxDP     DIISErr   Damp  Time(sec)
-------------------------------------------------------------------------------------------
               ***  Starting incremental Fock matrix formation  ***
                              *** Initializing SOSCF ***
---------------------------------------S-O-S-C-F--------------------------------------
Iteration    Energy (Eh)           Delta-E    RMSDP     MaxDP     MaxGrad    Time(sec)
--------------------------------------------------------------------------------------
    1    -797.9596474096722432     0.00e+00  7.36e-06  1.85e-04  3.83e-05     1.0
               *** Restarting incremental Fock matrix formation ***
    2    -797.9596474256591137    -1.60e-08  8.98e-06  2.19e-04  3.79e-05     1.0
    3    -797.9596473647013681     6.10e-08  6.11e-06  1.29e-04  9.82e-05     0.7
                 **** Energy Check signals convergence ****

               *****************************************************
               *                     SUCCESS                       *
               *           SCF CONVERGED AFTER   3 CYCLES          *
               *****************************************************

             **** ENERGY FILE WAS UPDATED (sp.en.tmp) ****

----------------
TOTAL SCF ENERGY
----------------

Total Energy       :       -797.95964736470137 Eh          -21713.58590 eV

Components:
Nuclear Repulsion  :       1244.48182706845955 Eh           33864.07213 eV
Electronic Energy  :      -2042.44147443316092 Eh          -55577.65803 eV
One Electron Energy:      -3556.34489303926739 Eh          -96773.06439 eV
Two Electron Energy:       1513.90341860610647 Eh           41195.40635 eV

Virial components:
Potential Energy   :      -1589.38882289452886 Eh          -43249.46863 eV
Kinetic Energy     :        791.42917552982749 Eh           21535.88273 eV
Virial Ratio       :          2.00825149240992

DFT components:
N(Alpha)           :       62.000120453884 electrons
N(Beta)            :       62.000120453884 electrons
N(Total)           :      124.000240907767 electrons
E(X)               :     -105.608666897361 Eh       
E(C)               :       -4.220507345244 Eh       
E(XC)              :     -109.829174242605 Eh       

---------------
SCF CONVERGENCE
---------------

  Last Energy change         ...   -6.0958e-08  Tolerance :   1.0000e-05
  Last MAX-Density change    ...    1.2917e-04  Tolerance :   1.0000e-03
  Last RMS-Density change    ...    6.1109e-06  Tolerance :   1.0000e-04
  Last DIIS Error            ...    7.8837e-05  Tolerance :   5.0000e-04
  Last Orbital Gradient      ...    9.8218e-05  Tolerance :   1.0000e-04
  Last Orbital Rotation      ...    2.9247e-04  Tolerance :   1.0000e-04


----------------
ORBITAL ENERGIES
----------------

  NO   OCC          E(Eh)            E(eV) 
   0   2.0000     -18.733385      -509.7613 
   1   2.0000     -18.733372      -509.7610 
   2   2.0000     -14.000710      -380.9787 
   3   2.0000     -14.000697      -380.9783 
   4   2.0000      -9.961776      -271.0737 
   5   2.0000      -9.961612      -271.0692 
   6   2.0000      -9.948634      -270.7161 
   7   2.0000      -9.948477      -270.7118 
   8   2.0000      -9.910681      -269.6833 
   9   2.0000      -9.910306      -269.6731 
  10   2.0000      -9.900396      -269.4035 
  11   2.0000      -9.900269      -269.4000 
  12   2.0000      -9.899390      -269.3761 
  13   2.0000      -9.899202      -269.3710 
  14   2.0000      -9.896770      -269.3048 
  15   2.0000      -9.896546      -269.2987 
  16   2.0000      -9.892395      -269.1857 
  17   2.0000      -9.892264      -269.1822 
  18   2.0000      -0.930566       -25.3220 
  19   2.0000      -0.928103       -25.2550 
  20   2.0000      -0.852218       -23.1900 
  21   2.0000      -0.843220       -22.9452 
  22   2.0000      -0.784183       -21.3387 
  23   2.0000      -0.758923       -20.6513 
  24   2.0000      -0.716808       -19.5053 
  25   2.0000      -0.676451       -18.4072 
  26   2.0000      -0.676261       -18.4020 
  27   2.0000      -0.654567       -17.8117 
  28   2.0000      -0.603067       -16.4103 
  29   2.0000      -0.585516       -15.9327 
  30   2.0000      -0.573676       -15.6105 
  31   2.0000      -0.538538       -14.6544 
  32   2.0000      -0.516404       -14.0521 
  33   2.0000      -0.509148       -13.8546 
  34   2.0000      -0.504866       -13.7381 
  35   2.0000      -0.476271       -12.9600 
  36   2.0000      -0.462420       -12.5831 
  37   2.0000      -0.446179       -12.1411 
  38   2.0000      -0.430334       -11.7100 
  39   2.0000      -0.422920       -11.5083 
  40   2.0000      -0.408649       -11.1199 
  41   2.0000      -0.402464       -10.9516 
  42   2.0000      -0.394207       -10.7269 
  43   2.0000      -0.376751       -10.2519 
  44   2.0000      -0.376423       -10.2430 
  45   2.0000      -0.370269       -10.0755 
  46   2.0000      -0.365542        -9.9469 
  47   2.0000      -0.355166        -9.6645 
  48   2.0000      -0.353085        -9.6079 
  49   2.0000      -0.345548        -9.4028 
  50   2.0000      -0.338972        -9.2239 
  51   2.0000      -0.315076        -8.5737 
  52   2.0000      -0.314230        -8.5506 
  53   2.0000      -0.311736        -8.4828 
  54   2.0000      -0.298761        -8.1297 
  55   2.0000      -0.244451        -6.6518 
  56   2.0000      -0.241514        -6.5719 
  57   2.0000      -0.229266        -6.2386 
  58   2.0000      -0.229224        -6.2375 
  59   2.0000      -0.207953        -5.6587 
  60   2.0000      -0.197302        -5.3689 
  61   2.0000      -0.162021        -4.4088 
  62   0.0000      -0.111359        -3.0302 
  63   0.0000      -0.064828        -1.7641 
  64   0.0000      -0.043864        -1.1936 
  65   0.0000      -0.013414        -0.3650 
  66   0.0000       0.028446         0.7741 
  67   0.0000       0.029203         0.7947 
  68   0.0000       0.041470         1.1285 
  69   0.0000       0.041802         1.1375 
  70   0.0000       0.056679         1.5423 
  71   0.0000       0.066819         1.8182 
  72   0.0000       0.098260         2.6738 
*Only the first 10 virtual orbitals were printed.

                    ********************************
                    * MULLIKEN POPULATION ANALYSIS *
                    ********************************

-----------------------
MULLIKEN ATOMIC CHARGES
-----------------------
   0 C :   -0.021389
   1 C :   -0.021406
   2 C :   -0.132294
   3 C :    0.045344
   4 C :    0.045338
   5 C :   -0.132258
   6 C :    0.055987
   7 O :   -0.224381
   8 C :    0.035005
   9 C :    0.032266
  10 C :   -0.127928
  11 C :   -0.127918
  12 C :    0.032267
  13 C :    0.035009
  14 C :    0.055981
  15 O :   -0.224383
  16 N :   -0.267744
  17 N :   -0.267694
  18 H :    0.056747
  19 H :    0.056776
  20 H :    0.053301
  21 H :    0.053270
  22 H :    0.029031
  23 H :    0.029035
  24 H :    0.215469
  25 H :    0.250558
  26 H :    0.250554
  27 H :    0.215457
Sum of atomic charges:    0.0000000

--------------------------------
MULLIKEN REDUCED ORBITAL CHARGES
--------------------------------
  0 C s       :     3.185814  s :     3.185814
      pz      :     0.978061  p :     2.800420
      px      :     0.885535
      py      :     0.936824
      dz2     :     0.003017  d :     0.035155
      dxz     :     0.003069
      dyz     :     0.005244
      dx2y2   :     0.010781
      dxy     :     0.013044

  1 C s       :     3.185802  s :     3.185802
      pz      :     0.978059  p :     2.800450
      px      :     0.885578
      py      :     0.936814
      dz2     :     0.003016  d :     0.035154
      dxz     :     0.003069
      dyz     :     0.005244
      dx2y2   :     0.010781
      dxy     :     0.013044

  2 C s       :     3.335460  s :     3.335460
      pz      :     0.951055  p :     2.762500
      px      :     0.998675
      py      :     0.812770
      dz2     :     0.003035  d :     0.034334
      dxz     :     0.006203
      dyz     :     0.002082
      dx2y2   :     0.013656
      dxy     :     0.009359

  3 C s       :     3.122027  s :     3.122027
      pz      :     0.988367  p :     2.794597
      px      :     0.857390
      py      :     0.948841
      dz2     :     0.002821  d :     0.038032
      dxz     :     0.004811
      dyz     :     0.006152
      dx2y2   :     0.011706
      dxy     :     0.012542

  4 C s       :     3.122027  s :     3.122027
      pz      :     0.988363  p :     2.794604
      px      :     0.857389
      py      :     0.948852
      dz2     :     0.002821  d :     0.038031
      dxz     :     0.004810
      dyz     :     0.006151
      dx2y2   :     0.011706
      dxy     :     0.012542

  5 C s       :     3.335463  s :     3.335463
      pz      :     0.951062  p :     2.762460
      px      :     0.998677
      py      :     0.812721
      dz2     :     0.003035  d :     0.034335
      dxz     :     0.006203
      dyz     :     0.002082
      dx2y2   :     0.013657
      dxy     :     0.009359

  6 C s       :     3.055425  s :     3.055425
      pz      :     0.863172  p :     2.798736
      px      :     0.995355
      py      :     0.940210
      dz2     :     0.004679  d :     0.089852
      dxz     :     0.006005
      dyz     :     0.019111
      dx2y2   :     0.021066
      dxy     :     0.038991

  7 O s       :     3.732017  s :     3.732017
      pz      :     1.398877  p :     4.476631
      px      :     1.762170
      py      :     1.315584
      dz2     :     0.001761  d :     0.015733
      dxz     :     0.000077
      dyz     :     0.004811
      dx2y2   :     0.005412
      dxy     :     0.003673

  8 C s       :     3.134364  s :     3.134364
      pz      :     1.089819  p :     2.795290
      px      :     0.867212
      py      :     0.838258
      dz2     :     0.003021  d :     0.035341
      dxz     :     0.003911
      dyz     :     0.007009
      dx2y2   :     0.009949
      dxy     :     0.011451

  9 C s       :     2.988464  s :     2.988464
      pz      :     0.938125  p :     2.919501
      px      :     1.066307
      py      :     0.915069
      dz2     :     0.003930  d :     0.059769
      dxz     :     0.006235
      dyz     :     0.016546
      dx2y2   :     0.017467
      dxy     :     0.015590

 10 C s       :     3.313137  s :     3.313137
      pz      :     1.023014  p :     2.781168
      px      :     0.863579
      py      :     0.894574
      dz2     :     0.003201  d :     0.033623
      dxz     :     0.002648
      dyz     :     0.006125
      dx2y2   :     0.008582
      dxy     :     0.013067

 11 C s       :     3.313141  s :     3.313141
      pz      :     1.023002  p :     2.781154
      px      :     0.863581
      py      :     0.894571
      dz2     :     0.003200  d :     0.033623
      dxz     :     0.002648
      dyz     :     0.006126
      dx2y2   :     0.008582
      dxy     :     0.013067

 12 C s       :     2.988457  s :     2.988457
      pz      :     0.938146  p :     2.919508
      px      :     1.066290
      py      :     0.915072
      dz2     :     0.003930  d :     0.059768
      dxz     :     0.006235
      dyz     :     0.016545
      dx2y2   :     0.017467
      dxy     :     0.015591

 13 C s       :     3.134371  s :     3.134371
      pz      :     1.089808  p :     2.795279
      px      :     0.867213
      py      :     0.838258
      dz2     :     0.003021  d :     0.035341
      dxz     :     0.003911
      dyz     :     0.007009
      dx2y2   :     0.009950
      dxy     :     0.011451

 14 C s       :     3.055433  s :     3.055433
      pz      :     0.863171  p :     2.798735
      px      :     0.995363
      py      :     0.940202
      dz2     :     0.004679  d :     0.089850
      dxz     :     0.006005
      dyz     :     0.019110
      dx2y2   :     0.021066
      dxy     :     0.038991

 15 O s       :     3.732026  s :     3.732026
      pz      :     1.398868  p :     4.476623
      px      :     1.762172
      py      :     1.315583
      dz2     :     0.001761  d :     0.015733
      dxz     :     0.000077
      dyz     :     0.004811
      dx2y2   :     0.005412
      dxy     :     0.003673

 16 N s       :     3.351533  s :     3.351533
      pz      :     1.666362  p :     3.897364
      px      :     1.084819
      py      :     1.146183
      dz2     :     0.003039  d :     0.018846
      dxz     :     0.000070
      dyz     :     0.002890
      dx2y2   :     0.004852
      dxy     :     0.007994

 17 N s       :     3.351497  s :     3.351497
      pz      :     1.666438  p :     3.897354
      px      :     1.084719
      py      :     1.146197
      dz2     :     0.003041  d :     0.018844
      dxz     :     0.000066
      dyz     :     0.002889
      dx2y2   :     0.004853
      dxy     :     0.007995

 18 H s       :     0.943253  s :     0.943253

 19 H s       :     0.943224  s :     0.943224

 20 H s       :     0.946699  s :     0.946699

 21 H s       :     0.946730  s :     0.946730

 22 H s       :     0.970969  s :     0.970969

 23 H s       :     0.970965  s :     0.970965

 24 H s       :     0.784531  s :     0.784531

 25 H s       :     0.749442  s :     0.749442

 26 H s       :     0.749446  s :     0.749446

 27 H s       :     0.784543  s :     0.784543


------------------------
MULLIKEN OVERLAP CHARGES
------------------------
B(  0-C ,  1-C ) :   0.1039 B(  0-C ,  2-C ) :   0.4098 B(  0-C ,  3-C ) :  -0.4429 
B(  0-C ,  4-C ) :   0.3702 B(  0-C ,  5-C ) :   0.1037 B(  0-C ,  6-C ) :   0.0615 
B(  0-C , 18-H ) :   0.8915 B(  0-C , 19-H ) :  -0.1808 B(  0-C , 21-H ) :  -0.1956 
B(  1-C ,  2-C ) :   0.1038 B(  1-C ,  3-C ) :   0.3701 B(  1-C ,  4-C ) :  -0.4429 
B(  1-C ,  5-C ) :   0.4098 B(  1-C , 14-C ) :   0.0615 B(  1-C , 18-H ) :  -0.1808 
B(  1-C , 19-H ) :   0.8914 B(  1-C , 20-H ) :  -0.1955 B(  2-C ,  3-C ) :   0.3134 
B(  2-C ,  4-C ) :   0.0736 B(  2-C ,  5-C ) :  -0.4078 B(  2-C , 13-C ) :   0.0835 
B(  2-C , 14-C ) :  -0.2174 B(  2-C , 19-H ) :  -0.1788 B(  2-C , 20-H ) :   0.8874 
B(  3-C ,  4-C ) :   0.2467 B(  3-C ,  5-C ) :   0.0736 B(  3-C ,  8-C ) :  -0.1806 
B(  3-C , 12-C ) :   0.0571 B(  3-C , 13-C ) :  -0.1808 B(  3-C , 14-C ) :   0.0894 
B(  3-C , 15-O ) :  -0.2900 B(  3-C , 20-H ) :  -0.1659 B(  4-C ,  5-C ) :   0.3133 
B(  4-C ,  6-C ) :   0.0895 B(  4-C ,  7-O ) :  -0.2900 B(  4-C ,  8-C ) :  -0.1808 
B(  4-C ,  9-C ) :   0.0572 B(  4-C , 13-C ) :  -0.1806 B(  4-C , 21-H ) :  -0.1659 
B(  5-C ,  6-C ) :  -0.2174 B(  5-C ,  8-C ) :   0.0835 B(  5-C , 18-H ) :  -0.1788 
B(  5-C , 21-H ) :   0.8875 B(  6-C ,  7-O ) :   1.4483 B(  6-C ,  8-C ) :   0.0838 
B(  6-C ,  9-C ) :  -0.2532 B(  6-C , 10-C ) :   0.0584 B(  6-C , 12-C ) :   0.0615 
B(  6-C , 13-C ) :   0.0615 B(  6-C , 14-C ) :  -0.2736 B(  6-C , 21-H ) :  -0.0582 
B(  7-O ,  8-C ) :  -0.2331 B(  7-O , 17-N ) :  -0.0848 B(  7-O , 26-H ) :   0.1492 
B(  8-C , 10-C ) :   0.1060 B(  8-C , 11-C ) :  -0.3033 B(  8-C , 12-C ) :   0.1370 
B(  8-C , 13-C ) :   0.6259 B(  8-C , 14-C ) :   0.0615 B(  8-C , 17-N ) :  -0.2335 
B(  8-C , 22-H ) :   0.0522 B(  8-C , 26-H ) :  -0.1073 B(  9-C , 10-C ) :   0.1296 
B(  9-C , 11-C ) :   0.4409 B(  9-C , 12-C ) :  -0.4787 B(  9-C , 13-C ) :   0.1370 
B(  9-C , 14-C ) :   0.0615 B(  9-C , 17-N ) :   1.1224 B(  9-C , 22-H ) :  -0.1863 
B( 10-C , 11-C ) :   0.2668 B( 10-C , 12-C ) :   0.4409 B( 10-C , 13-C ) :  -0.3033 
B( 10-C , 17-N ) :  -0.2325 B( 10-C , 22-H ) :   0.8771 B( 10-C , 23-H ) :  -0.1840 
B( 10-C , 27-H ) :  -0.0587 B( 11-C , 12-C ) :   0.1297 B( 11-C , 13-C ) :   0.1061 
B( 11-C , 14-C ) :   0.0583 B( 11-C , 16-N ) :  -0.2325 B( 11-C , 22-H ) :  -0.1840 
B( 11-C , 23-H ) :   0.8771 B( 11-C , 24-H ) :  -0.0586 B( 12-C , 14-C ) :  -0.2532 
B( 12-C , 16-N ) :   1.1223 B( 12-C , 23-H ) :  -0.1863 B( 13-C , 14-C ) :   0.0838 
B( 13-C , 15-O ) :  -0.2331 B( 13-C , 16-N ) :  -0.2334 B( 13-C , 23-H ) :   0.0522 
B( 13-C , 25-H ) :  -0.1073 B( 14-C , 15-O ) :   1.4483 B( 14-C , 20-H ) :  -0.0582 
B( 15-O , 16-N ) :  -0.0848 B( 15-O , 25-H ) :   0.1492 B( 16-N , 24-H ) :   0.5957 
B( 16-N , 25-H ) :   0.5457 B( 17-N , 26-H ) :   0.5457 B( 17-N , 27-H ) :   0.5957 



                     *******************************
                     * LOEWDIN POPULATION ANALYSIS *
                     *******************************

----------------------
LOEWDIN ATOMIC CHARGES
----------------------
   0 C :   -0.111845
   1 C :   -0.111839
   2 C :   -0.090660
   3 C :   -0.047877
   4 C :   -0.047869
   5 C :   -0.090663
   6 C :    0.048687
   7 O :   -0.185469
   8 C :   -0.089347
   9 C :    0.017595
  10 C :   -0.123791
  11 C :   -0.123784
  12 C :    0.017586
  13 C :   -0.089341
  14 C :    0.048692
  15 O :   -0.185470
  16 N :   -0.275209
  17 N :   -0.275202
  18 H :    0.125702
  19 H :    0.125700
  20 H :    0.132943
  21 H :    0.132943
  22 H :    0.125560
  23 H :    0.125561
  24 H :    0.228838
  25 H :    0.244853
  26 H :    0.244863
  27 H :    0.228843

-------------------------------
LOEWDIN REDUCED ORBITAL CHARGES
-------------------------------
  0 C s       :     2.892922  s :     2.892922
      pz      :     0.967068  p :     3.126279
      px      :     1.074837
      py      :     1.084374
      dz2     :     0.007017  d :     0.092644
      dxz     :     0.005776
      dyz     :     0.011139
      dx2y2   :     0.032195
      dxy     :     0.036517

  1 C s       :     2.892937  s :     2.892937
      pz      :     0.967068  p :     3.126263
      px      :     1.074826
      py      :     1.084368
      dz2     :     0.007016  d :     0.092639
      dxz     :     0.005776
      dyz     :     0.011139
      dx2y2   :     0.032193
      dxy     :     0.036515

  2 C s       :     2.893869  s :     2.893869
      pz      :     0.949238  p :     3.106165
      px      :     1.075464
      py      :     1.081463
      dz2     :     0.006915  d :     0.090626
      dxz     :     0.013537
      dyz     :     0.003364
      dx2y2   :     0.037996
      dxy     :     0.028813

  3 C s       :     2.853177  s :     2.853177
      pz      :     0.968812  p :     3.086734
      px      :     1.052828
      py      :     1.065094
      dz2     :     0.008168  d :     0.107966
      dxz     :     0.009627
      dyz     :     0.012899
      dx2y2   :     0.036926
      dxy     :     0.040346

  4 C s       :     2.853180  s :     2.853180
      pz      :     0.968810  p :     3.086726
      px      :     1.052824
      py      :     1.065091
      dz2     :     0.008168  d :     0.107963
      dxz     :     0.009627
      dyz     :     0.012899
      dx2y2   :     0.036925
      dxy     :     0.040345

  5 C s       :     2.893858  s :     2.893858
      pz      :     0.949244  p :     3.106177
      px      :     1.075465
      py      :     1.081468
      dz2     :     0.006915  d :     0.090628
      dxz     :     0.013537
      dyz     :     0.003364
      dx2y2   :     0.037998
      dxy     :     0.028813

  6 C s       :     2.847844  s :     2.847844
      pz      :     0.849092  p :     2.887244
      px      :     1.040261
      py      :     0.997891
      dz2     :     0.012254  d :     0.216225
      dxz     :     0.011472
      dyz     :     0.036987
      dx2y2   :     0.056161
      dxy     :     0.099350

  7 O s       :     3.543458  s :     3.543458
      pz      :     1.399925  p :     4.613746
      px      :     1.769886
      py      :     1.443934
      dz2     :     0.003847  d :     0.028266
      dxz     :     0.000078
      dyz     :     0.006300
      dx2y2   :     0.011632
      dxy     :     0.006410

  8 C s       :     2.846175  s :     2.846175
      pz      :     1.064235  p :     3.141570
      px      :     1.037749
      py      :     1.039586
      dz2     :     0.008047  d :     0.101603
      dxz     :     0.007984
      dyz     :     0.014773
      dx2y2   :     0.033302
      dxy     :     0.037497

  9 C s       :     2.826919  s :     2.826919
      pz      :     0.937351  p :     3.003573
      px      :     1.081745
      py      :     0.984477
      dz2     :     0.009697  d :     0.151913
      dxz     :     0.012749
      dyz     :     0.035337
      dx2y2   :     0.050711
      dxy     :     0.043419

 10 C s       :     2.891351  s :     2.891351
      pz      :     1.008269  p :     3.142755
      px      :     1.048360
      py      :     1.086126
      dz2     :     0.007240  d :     0.089685
      dxz     :     0.004901
      dyz     :     0.013052
      dx2y2   :     0.027425
      dxy     :     0.037067

 11 C s       :     2.891353  s :     2.891353
      pz      :     1.008258  p :     3.142745
      px      :     1.048362
      py      :     1.086125
      dz2     :     0.007240  d :     0.089686
      dxz     :     0.004901
      dyz     :     0.013053
      dx2y2   :     0.027425
      dxy     :     0.037067

 12 C s       :     2.826922  s :     2.826922
      pz      :     0.937363  p :     3.003582
      px      :     1.081742
      py      :     0.984477
      dz2     :     0.009697  d :     0.151910
      dxz     :     0.012749
      dyz     :     0.035334
      dx2y2   :     0.050710
      dxy     :     0.043421

 13 C s       :     2.846177  s :     2.846177
      pz      :     1.064226  p :     3.141561
      px      :     1.037749
      py      :     1.039587
      dz2     :     0.008047  d :     0.101603
      dxz     :     0.007984
      dyz     :     0.014773
      dx2y2   :     0.033303
      dxy     :     0.037496

 14 C s       :     2.847846  s :     2.847846
      pz      :     0.849090  p :     2.887241
      px      :     1.040262
      py      :     0.997888
      dz2     :     0.012254  d :     0.216222
      dxz     :     0.011472
      dyz     :     0.036986
      dx2y2   :     0.056161
      dxy     :     0.099349

 15 O s       :     3.543465  s :     3.543465
      pz      :     1.399919  p :     4.613739
      px      :     1.769891
      py      :     1.443930
      dz2     :     0.003847  d :     0.028265
      dxz     :     0.000078
      dyz     :     0.006300
      dx2y2   :     0.011632
      dxy     :     0.006410

 16 N s       :     3.140595  s :     3.140595
      pz      :     1.650360  p :     4.090073
      px      :     1.231174
      py      :     1.208538
      dz2     :     0.004643  d :     0.044540
      dxz     :     0.000079
      dyz     :     0.005509
      dx2y2   :     0.014410
      dxy     :     0.019898

 17 N s       :     3.140557  s :     3.140557
      pz      :     1.650412  p :     4.090108
      px      :     1.231151
      py      :     1.208545
      dz2     :     0.004646  d :     0.044538
      dxz     :     0.000071
      dyz     :     0.005506
      dx2y2   :     0.014414
      dxy     :     0.019902

 18 H s       :     0.874298  s :     0.874298

 19 H s       :     0.874300  s :     0.874300

 20 H s       :     0.867057  s :     0.867057

 21 H s       :     0.867057  s :     0.867057

 22 H s       :     0.874440  s :     0.874440

 23 H s       :     0.874439  s :     0.874439

 24 H s       :     0.771162  s :     0.771162

 25 H s       :     0.755147  s :     0.755147

 26 H s       :     0.755137  s :     0.755137

 27 H s       :     0.771157  s :     0.771157


---------------------------------
LOEWDIN BOND ORDERS (THRESH 0.050000)
---------------------------------
B(  0-C ,  1-C ) :   1.4621 B(  0-C ,  2-C ) :   0.0877 B(  0-C ,  3-C ) :   0.0969 
B(  0-C ,  4-C ) :   0.0871 B(  0-C ,  5-C ) :   1.5300 B(  0-C , 18-H ) :   0.8876 
B(  1-C ,  2-C ) :   1.5300 B(  1-C ,  3-C ) :   0.0871 B(  1-C ,  4-C ) :   0.0969 
B(  1-C ,  5-C ) :   0.0877 B(  1-C , 19-H ) :   0.8876 B(  2-C ,  3-C ) :   1.3931 
B(  2-C ,  4-C ) :   0.0822 B(  2-C ,  5-C ) :   0.1132 B(  2-C , 14-C ) :   0.0800 
B(  2-C , 20-H ) :   0.8737 B(  3-C ,  4-C ) :   1.3354 B(  3-C ,  5-C ) :   0.0822 
B(  3-C ,  6-C ) :   0.0730 B(  3-C , 13-C ) :   0.0762 B(  3-C , 14-C ) :   1.0743 
B(  3-C , 15-O ) :   0.0973 B(  4-C ,  5-C ) :   1.3931 B(  4-C ,  6-C ) :   1.0743 
B(  4-C ,  7-O ) :   0.0973 B(  4-C ,  8-C ) :   0.0762 B(  4-C , 14-C ) :   0.0730 
B(  5-C ,  6-C ) :   0.0800 B(  5-C , 21-H ) :   0.8737 B(  6-C ,  7-O ) :   1.9929 
B(  6-C ,  8-C ) :   1.1539 B(  6-C ,  9-C ) :   0.0884 B(  6-C , 13-C ) :   0.0698 
B(  7-O ,  8-C ) :   0.1092 B(  7-O , 17-N ) :   0.0995 B(  7-O , 26-H ) :   0.1048 
B(  8-C ,  9-C ) :   1.2880 B(  8-C , 10-C ) :   0.0833 B(  8-C , 11-C ) :   0.0793 
B(  8-C , 12-C ) :   0.0808 B(  8-C , 13-C ) :   1.2426 B(  8-C , 14-C ) :   0.0698 
B(  8-C , 17-N ) :   0.1232 B(  9-C , 10-C ) :   1.2772 B(  9-C , 11-C ) :   0.0864 
B(  9-C , 13-C ) :   0.0808 B(  9-C , 17-N ) :   1.4268 B( 10-C , 11-C ) :   1.6429 
B( 10-C , 12-C ) :   0.0864 B( 10-C , 13-C ) :   0.0793 B( 10-C , 17-N ) :   0.0905 
B( 10-C , 22-H ) :   0.8788 B( 11-C , 12-C ) :   1.2772 B( 11-C , 13-C ) :   0.0833 
B( 11-C , 16-N ) :   0.0905 B( 11-C , 23-H ) :   0.8788 B( 12-C , 13-C ) :   1.2880 
B( 12-C , 14-C ) :   0.0884 B( 12-C , 16-N ) :   1.4267 B( 13-C , 14-C ) :   1.1539 
B( 13-C , 15-O ) :   0.1092 B( 13-C , 16-N ) :   0.1232 B( 14-C , 15-O ) :   1.9929 
B( 15-O , 16-N ) :   0.0995 B( 15-O , 25-H ) :   0.1048 B( 16-N , 24-H ) :   0.8815 
B( 16-N , 25-H ) :   0.8119 B( 17-N , 26-H ) :   0.8119 B( 17-N , 27-H ) :   0.8815 


------------------------------------------
LOEWDIN REDUCED ORBITAL POPULATIONS PER MO
-------------------------------------------
THRESHOLD FOR PRINTING IS 0.1%%
                      0         1         2         3         4         5   
                 -18.73339 -18.73337 -14.00071 -14.00070  -9.96178  -9.96161
                   2.00000   2.00000   2.00000   2.00000   2.00000   2.00000
                  --------  --------  --------  --------  --------  --------
 6 C  s               0.0       0.0       0.0       0.0      49.6      49.8
 7 O  s              53.7      46.2       0.0       0.0       0.0       0.0
 7 O  py              0.0       0.0       0.0       0.0       0.1       0.1
14 C  s               0.0       0.0       0.0       0.0      49.8      49.6
15 O  s              46.2      53.7       0.0       0.0       0.0       0.0
15 O  py              0.0       0.0       0.0       0.0       0.1       0.1
16 N  s               0.0       0.0      41.9      57.9       0.0       0.0
17 N  s               0.0       0.0      57.9      41.9       0.0       0.0

                      6         7         8         9        10        11   
                  -9.94863  -9.94848  -9.91068  -9.91031  -9.90040  -9.90027
                   2.00000   2.00000   2.00000   2.00000   2.00000   2.00000
                  --------  --------  --------  --------  --------  --------
 8 C  s               0.0       0.0       0.0       0.0      48.9      50.5
 9 C  s              50.5      49.0       0.0       0.0       0.0       0.0
10 C  s               0.0       0.0      49.8      49.8       0.0       0.0
11 C  s               0.0       0.0      49.8      49.8       0.0       0.0
12 C  s              49.0      50.5       0.0       0.0       0.0       0.0
13 C  s               0.0       0.0       0.0       0.0      50.4      49.0

                     12        13        14        15        16        17   
                  -9.89939  -9.89920  -9.89677  -9.89655  -9.89239  -9.89226
                   2.00000   2.00000   2.00000   2.00000   2.00000   2.00000
                  --------  --------  --------  --------  --------  --------
 0 C  s               0.0       0.0      48.2      51.3       0.1       0.1
 1 C  s               0.0       0.0      51.2      48.2       0.1       0.1
 2 C  s               0.0       0.0       0.1       0.1      51.5      48.0
 3 C  s              49.4      50.0       0.0       0.0       0.0       0.0
 4 C  s              49.9      49.5       0.0       0.0       0.0       0.0
 5 C  s               0.0       0.0       0.1       0.1      48.0      51.5

                     18        19        20        21        22        23   
                  -0.93057  -0.92810  -0.85222  -0.84322  -0.78418  -0.75892
                   2.00000   2.00000   2.00000   2.00000   2.00000   2.00000
                  --------  --------  --------  --------  --------  --------
 0 C  s               0.0       0.0       0.0       0.0       8.4       2.2
 0 C  px              0.0       0.0       0.0       0.0       1.6       0.2
 0 C  py              0.0       0.0       0.0       0.0       0.5       0.1
 0 C  dz2             0.0       0.0       0.0       0.0       0.1       0.0
 1 C  s               0.0       0.0       0.0       0.0       8.4       2.2
 1 C  px              0.0       0.0       0.0       0.0       1.6       0.2
 1 C  py              0.0       0.0       0.0       0.0       0.5       0.1
 1 C  dz2             0.0       0.0       0.0       0.0       0.1       0.0
 2 C  s               0.2       0.1       0.0       0.0       9.4       1.4
 2 C  px              0.2       0.1       0.0       0.0       0.0       0.1
 2 C  py              0.0       0.0       0.0       0.0       2.4       0.3
 2 C  dz2             0.0       0.0       0.0       0.0       0.1       0.0
 3 C  s               1.2       0.4       0.0       0.0      13.1       0.2
 3 C  px              0.6       0.4       0.0       0.0       0.8       1.2
 3 C  py              0.2       1.0       0.0       0.0       1.0       0.0
 3 C  dz2             0.0       0.0       0.0       0.0       0.2       0.0
 4 C  s               1.2       0.4       0.0       0.0      13.1       0.2
 4 C  px              0.6       0.4       0.0       0.0       0.8       1.2
 4 C  py              0.2       1.0       0.0       0.0       1.0       0.0
 4 C  dz2             0.0       0.0       0.0       0.0       0.2       0.0
 5 C  s               0.2       0.1       0.0       0.0       9.4       1.4
 5 C  px              0.2       0.1       0.0       0.0       0.0       0.1
 5 C  py              0.0       0.0       0.0       0.0       2.4       0.3
 5 C  dz2             0.0       0.0       0.0       0.0       0.1       0.0
 6 C  s               9.9       8.8       0.1       0.1       1.1       0.6
 6 C  px              0.0       0.0       0.5       0.3       0.6       1.0
 6 C  py              5.0       6.4       0.7       0.3       3.3       0.8
 6 C  dz2             0.3       0.3       0.0       0.0       0.0       0.0
 6 C  dx2y2           0.5       0.5       0.0       0.0       0.1       0.0
 7 O  s              24.1      24.9       1.3       0.9       1.3       0.1
 7 O  py              2.9       2.9       0.1       0.1       0.1       0.0
 8 C  s               1.5       0.5       2.3       0.5       1.6       8.1
 8 C  px              0.4       0.3       1.5       0.8       0.2       0.3
 8 C  py              0.2       1.1       0.0       0.8       0.3       1.3
 8 C  dz2             0.0       0.0       0.0       0.0       0.0       0.1
 9 C  s               0.5       0.3      10.8       8.3       0.1       1.8
 9 C  px              0.2       0.1       0.1       0.0       0.1       0.0
 9 C  py              0.0       0.1       1.4       4.2       0.6       8.7
 9 C  dz2             0.0       0.0       0.2       0.2       0.0       0.0
 9 C  dx2y2           0.0       0.0       0.1       0.2       0.0       0.2
10 C  s               0.1       0.0       3.8       0.7       0.2       7.4
10 C  px              0.1       0.0       1.1       0.5       0.0       0.6
10 C  py              0.0       0.0       0.0       1.4       0.0       1.5
11 C  s               0.1       0.0       3.8       0.7       0.2       7.4
11 C  px              0.1       0.0       1.1       0.5       0.0       0.6
11 C  py              0.0       0.0       0.0       1.4       0.0       1.5
12 C  s               0.5       0.3      10.8       8.3       0.1       1.8
12 C  px              0.2       0.1       0.1       0.0       0.1       0.0
12 C  py              0.0       0.1       1.4       4.2       0.6       8.7
12 C  dz2             0.0       0.0       0.2       0.2       0.0       0.0
12 C  dx2y2           0.0       0.0       0.1       0.2       0.0       0.2
13 C  s               1.5       0.5       2.3       0.5       1.6       8.0
13 C  px              0.4       0.3       1.5       0.8       0.2       0.3
13 C  py              0.2       1.1       0.0       0.8       0.3       1.3
13 C  dz2             0.0       0.0       0.0       0.0       0.0       0.1
14 C  s               9.9       8.9       0.1       0.1       1.1       0.6
14 C  px              0.0       0.0       0.5       0.3       0.6       1.0
14 C  py              5.0       6.5       0.7       0.3       3.3       0.8
14 C  dz2             0.3       0.3       0.0       0.0       0.0       0.0
14 C  dx2y2           0.5       0.5       0.0       0.0       0.1       0.0
15 O  s              23.9      25.0       1.3       0.9       1.3       0.1
15 O  py              2.9       3.0       0.1       0.1       0.1       0.0
16 N  s               0.5       0.4      17.9      22.0       0.4       6.6
16 N  py              0.0       0.0       1.0       0.8       0.0       0.4
16 N  dz2             0.0       0.0       0.1       0.1       0.0       0.0
17 N  s               0.5       0.4      17.9      22.0       0.4       6.6
17 N  py              0.0       0.0       1.0       0.8       0.0       0.4
17 N  dz2             0.0       0.0       0.1       0.1       0.0       0.0
18 H  s               0.0       0.0       0.0       0.0       1.0       0.3
19 H  s               0.0       0.0       0.0       0.0       1.0       0.3
20 H  s               0.1       0.1       0.0       0.0       1.1       0.2
21 H  s               0.1       0.1       0.0       0.0       1.1       0.2
22 H  s               0.0       0.0       0.6       0.2       0.0       0.8
23 H  s               0.0       0.0       0.6       0.2       0.0       0.8
24 H  s               0.1       0.1       3.3       4.1       0.1       1.6
25 H  s               0.8       0.7       2.6       3.3       0.2       1.4
26 H  s               0.8       0.7       2.6       3.3       0.2       1.4
27 H  s               0.1       0.1       3.3       4.1       0.1       1.6

                     24        25        26        27        28        29   
                  -0.71681  -0.67645  -0.67626  -0.65457  -0.60307  -0.58552
                   2.00000   2.00000   2.00000   2.00000   2.00000   2.00000
                  --------  --------  --------  --------  --------  --------
 0 C  s               5.2       9.1       3.8       0.2       0.6       3.2
 0 C  px              0.1       0.2       1.7       0.1       0.0       2.7
 0 C  py              0.5       1.2       4.2       0.2       0.6       1.5
 0 C  dx2y2           0.0       0.1       0.1       0.0       0.0       0.1
 1 C  s               5.2       8.8       4.0       0.2       0.6       3.2
 1 C  px              0.1       0.2       1.7       0.1       0.0       2.7
 1 C  py              0.5       1.3       4.1       0.2       0.6       1.5
 1 C  dx2y2           0.0       0.1       0.1       0.0       0.0       0.1
 2 C  s               0.8       0.0      16.8       0.7       0.4       2.5
 2 C  px              1.8       5.5       0.0       0.0       0.8       1.5
 2 C  py              0.1       0.0       0.1       0.0       0.0       0.0
 2 C  dz2             0.0       0.0       0.1       0.0       0.0       0.0
 2 C  dxy             0.0       0.2       0.0       0.0       0.0       0.1
 3 C  s               2.1       7.7       5.6       0.0       0.8       0.2
 3 C  px              2.5       0.1       1.1       0.5       1.3       6.3
 3 C  py              0.5       0.8       5.7       0.0       0.5       0.1
 3 C  dx2y2           0.0       0.1       0.2       0.0       0.0       0.0
 4 C  s               2.1       7.4       5.8       0.0       0.8       0.2
 4 C  px              2.5       0.1       1.1       0.5       1.3       6.3
 4 C  py              0.5       0.9       5.6       0.0       0.5       0.1
 4 C  dx2y2           0.0       0.1       0.2       0.0       0.0       0.0
 5 C  s               0.8       0.0      16.8       0.7       0.4       2.5
 5 C  px              1.8       5.5       0.1       0.0       0.8       1.5
 5 C  py              0.1       0.0       0.1       0.0       0.0       0.0
 5 C  dz2             0.0       0.0       0.1       0.0       0.0       0.0
 5 C  dxy             0.0       0.2       0.0       0.0       0.0       0.1
 6 C  s               2.0       0.1       0.9       1.3       3.8       2.1
 6 C  px              0.2       4.4       1.1       1.6       0.6       0.1
 6 C  py              4.5       0.1       1.4       1.1       3.9       2.1
 6 C  dx2y2           0.1       0.0       0.1       0.1       0.2       0.0
 6 C  dxy             0.0       0.1       0.0       0.0       0.0       0.0
 7 O  s               1.4       0.0       1.2       0.7       2.4       0.3
 7 O  px              0.0       0.2       0.1       0.0       0.2       0.0
 7 O  py              0.1       0.0       0.1       0.2       0.5       0.2
 8 C  s               4.6       5.6       0.2       5.8       2.8       0.0
 8 C  px              2.1       0.2       0.0       0.5       1.8       7.6
 8 C  py              0.4       0.4       0.1       4.4       2.3       0.2
 8 C  dx2y2           0.0       0.0       0.0       0.2       0.0       0.0
 9 C  s               0.2       0.2       0.1       7.8       1.2       2.7
 9 C  px              4.2       4.2       0.0       0.3       7.9       1.0
 9 C  py              0.8       0.1       0.0       3.2       0.4       0.2
 9 C  dx2y2           0.0       0.0       0.0       0.2       0.0       0.0
10 C  s              10.4       4.4       0.1       2.6       5.1       2.2
10 C  px              0.0       0.4       0.0       1.0       0.2       3.4
10 C  py              1.5       0.5       0.0       2.2       4.8       1.0
10 C  dz2             0.1       0.0       0.0       0.0       0.0       0.0
10 C  dx2y2           0.0       0.0       0.0       0.1       0.1       0.1
11 C  s              10.4       4.4       0.0       2.6       5.1       2.2
11 C  px              0.0       0.4       0.0       1.0       0.2       3.4
11 C  py              1.5       0.5       0.0       2.2       4.8       1.0
11 C  dz2             0.1       0.0       0.0       0.0       0.0       0.0
11 C  dx2y2           0.0       0.0       0.0       0.1       0.1       0.1
12 C  s               0.2       0.2       0.2       7.8       1.2       2.7
12 C  px              4.2       4.2       0.0       0.3       7.9       1.0
12 C  py              0.8       0.1       0.0       3.2       0.4       0.2
12 C  dx2y2           0.0       0.0       0.0       0.2       0.0       0.0
13 C  s               4.6       5.5       0.3       5.8       2.8       0.0
13 C  px              2.1       0.2       0.0       0.5       1.8       7.6
13 C  py              0.4       0.4       0.1       4.4       2.3       0.2
13 C  dx2y2           0.0       0.0       0.0       0.2       0.0       0.0
14 C  s               2.0       0.1       0.9       1.3       3.8       2.1
14 C  px              0.2       4.5       1.0       1.6       0.6       0.1
14 C  py              4.5       0.1       1.4       1.1       3.9       2.1
14 C  dx2y2           0.1       0.0       0.1       0.1       0.2       0.0
14 C  dxy             0.0       0.1       0.0       0.0       0.0       0.0
15 O  s               1.4       0.0       1.1       0.7       2.4       0.3
15 O  px              0.0       0.2       0.1       0.0       0.2       0.0
15 O  py              0.1       0.0       0.1       0.2       0.5       0.2
16 N  s               0.5       0.1       0.0       4.7       0.6       0.5
16 N  px              0.1       0.4       0.0       0.1       1.4       0.6
16 N  py              0.1       0.0       0.1       4.6       1.0       2.3
17 N  s               0.5       0.1       0.0       4.7       0.6       0.5
17 N  px              0.1       0.4       0.0       0.1       1.4       0.6
17 N  py              0.1       0.0       0.1       4.6       1.0       2.3
18 H  s               0.9       1.9       0.8       0.1       0.2       1.5
19 H  s               0.9       1.9       0.9       0.1       0.2       1.5
20 H  s               0.1       0.0       3.4       0.2       0.2       0.7
21 H  s               0.1       0.0       3.4       0.2       0.2       0.7
22 H  s               1.9       1.2       0.0       0.5       2.3       1.6
23 H  s               1.9       1.2       0.0       0.5       2.3       1.6
24 H  s               0.1       0.2       0.0       2.6       0.0       1.2
25 H  s               0.1       0.0       0.1       1.8       0.9       0.1
26 H  s               0.1       0.0       0.1       1.8       0.9       0.1
27 H  s               0.1       0.2       0.0       2.6       0.0       1.2

                     30        31        32        33        34        35   
                  -0.57368  -0.53854  -0.51640  -0.50915  -0.50487  -0.47627
                   2.00000   2.00000   2.00000   2.00000   2.00000   2.00000
                  --------  --------  --------  --------  --------  --------
 0 C  s               4.2       0.9       0.0       0.1       2.6       0.4
 0 C  px              0.1       2.6       0.1       0.7       0.4       6.2
 0 C  py              3.6       1.9       3.2       0.9       2.0       0.6
 1 C  s               4.2       0.9       0.0       0.1       2.6       0.4
 1 C  px              0.1       2.6       0.1       0.7       0.4       6.2
 1 C  py              3.6       1.9       3.2       0.9       2.0       0.6
 2 C  s               0.8       2.9       3.4       1.0       0.4       0.1
 2 C  px              7.0       0.0       0.2       0.1       5.1       0.2
 2 C  py              0.0       0.5       5.4       0.4       0.1       4.9
 3 C  s               3.5       0.6       1.3       0.3       0.7       0.4
 3 C  px              1.1       2.3       0.4       0.1       1.8       3.3
 3 C  py              2.8       1.0       9.1       0.4       0.7       2.6
 3 C  dx2y2           0.0       0.0       0.1       0.0       0.0       0.0
 3 C  dxy             0.1       0.0       0.0       0.0       0.1       0.0
 4 C  s               3.5       0.6       1.3       0.3       0.7       0.4
 4 C  px              1.1       2.3       0.4       0.1       1.8       3.3
 4 C  py              2.8       1.0       9.1       0.4       0.7       2.6
 4 C  dx2y2           0.0       0.0       0.1       0.0       0.0       0.0
 4 C  dxy             0.1       0.0       0.0       0.0       0.1       0.0
 5 C  s               0.8       2.9       3.4       1.0       0.4       0.1
 5 C  px              7.0       0.0       0.2       0.1       5.1       0.2
 5 C  py              0.0       0.5       5.4       0.4       0.1       4.9
 6 C  s               1.7       0.3       1.1       0.4       2.7       0.1
 6 C  px              4.9       0.7       0.2       2.0       1.9       5.0
 6 C  py              1.1       0.0       0.2       0.2       1.0       0.2
 7 O  s               0.5       0.1       0.7       0.7       0.4       0.3
 7 O  px              0.9       0.1       1.0       0.8       0.1       0.5
 7 O  py              0.5       0.3       1.2       0.1       1.0       0.0
 8 C  s               0.7       1.7       0.1       0.0       0.7       0.8
 8 C  px              0.7       0.0       1.2       2.0       3.0       1.7
[...]
13 C  dxz             0.9       0.0       0.0       0.0       0.0       0.0
13 C  dx2y2           0.0       3.4       4.8       1.8       0.1       0.3
13 C  dxy             0.0       3.3       0.0       0.3       5.9       0.0
14 C  s               0.0       0.0       0.2       0.0       1.3       3.1
14 C  pz              0.4       0.0       0.0       0.0       0.0       0.0
14 C  px              0.0       0.6       0.2       0.2       0.0       0.0
14 C  py              0.0       0.1       0.5       0.0       0.0       3.1
14 C  dz2             0.0       0.0       0.1       0.0       0.2       0.6
14 C  dyz             9.5       0.0       0.0       0.0       0.0       0.0
14 C  dx2y2           0.0       0.3       3.1       0.1       1.3       3.1
14 C  dxy             0.0       2.0       1.0      14.3       0.1       0.1
15 O  s               0.0       0.1       0.8       0.0       0.7       3.2
15 O  pz              0.6       0.0       0.0       0.0       0.0       0.0
15 O  px              0.0       0.2       0.1       0.7       0.0       0.0
15 O  py              0.0       0.1       0.3       0.0       0.4       2.2
15 O  dz2             0.0       0.2       1.9       0.1       2.0       7.6
15 O  dyz            36.9       0.0       0.0       0.0       0.0       0.0
15 O  dx2y2           0.0       0.2       2.3       0.0       2.3      25.4
15 O  dxy             0.0       8.7       3.8      26.5       0.2       0.0
16 N  s               0.0       0.0       0.3       0.0       0.1       0.1
16 N  py              0.0       0.1       0.4       0.1       0.3       0.0
16 N  dz2             0.0       0.0       0.3       0.1       0.1       0.0
16 N  dx2y2           0.0       0.2       2.1       0.5       1.1       0.0
16 N  dxy             0.0       2.2       0.4       0.0       0.5       0.0
17 N  s               0.0       0.0       0.3       0.0       0.1       0.1
17 N  py              0.0       0.1       0.4       0.1       0.3       0.0
17 N  dz2             0.0       0.0       0.3       0.1       0.1       0.0
17 N  dx2y2           0.0       0.2       2.1       0.5       1.1       0.0
17 N  dxy             0.0       2.2       0.4       0.0       0.5       0.0
18 H  s               0.0       0.3       0.0       0.0       0.2       0.0
19 H  s               0.0       0.3       0.0       0.0       0.2       0.0
20 H  s               0.0       0.2       0.0       0.0       0.2       0.0
21 H  s               0.0       0.2       0.0       0.0       0.2       0.0
22 H  s               0.0       0.1       0.2       0.0       0.1       0.0
23 H  s               0.0       0.1       0.2       0.0       0.1       0.0

                    270       271   
                   3.52923   3.61261
                   0.00000   0.00000
                  --------  --------
 0 C  s               0.1       0.0
 0 C  dx2y2           0.2       0.1
 0 C  dxy             1.0       0.1
 1 C  s               0.1       0.0
 1 C  dx2y2           0.2       0.1
 1 C  dxy             1.0       0.1
 2 C  dx2y2           1.8       0.3
 2 C  dxy             0.3       0.1
 3 C  px              0.1       0.1
 3 C  py              0.3       0.2
 3 C  dx2y2           4.7       0.2
 3 C  dxy             0.7       2.8
 4 C  px              0.1       0.1
 4 C  py              0.3       0.2
 4 C  dx2y2           4.7       0.2
 4 C  dxy             0.7       2.8
 5 C  dx2y2           1.8       0.3
 5 C  dxy             0.3       0.1
 6 C  s               0.0       1.8
 6 C  px              0.3       0.0
 6 C  py              0.2       2.6
 6 C  dz2             0.0       0.3
 6 C  dx2y2           0.5       6.1
 6 C  dxy             8.8       0.6
 7 O  s               0.1       2.6
 7 O  px              0.4       0.0
 7 O  py              0.1       2.0
 7 O  dz2             0.3       5.3
 7 O  dx2y2           0.4      19.5
 7 O  dxy            10.8       0.1
 8 C  px              0.2       0.0
 8 C  py              0.2       0.2
 8 C  dx2y2           3.7       2.3
 8 C  dxy             4.1       0.9
 9 C  px              0.0       0.1
 9 C  py              0.2       0.0
 9 C  dx2y2           5.0       0.1
 9 C  dxy             0.2       0.7
10 C  s               0.2       0.0
10 C  dx2y2           0.5       0.0
10 C  dxy             2.1       0.1
11 C  s               0.2       0.0
11 C  dx2y2           0.5       0.0
11 C  dxy             2.1       0.1
12 C  px              0.0       0.1
12 C  py              0.2       0.0
12 C  dx2y2           5.0       0.1
12 C  dxy             0.2       0.7
13 C  px              0.2       0.0
13 C  py              0.2       0.2
13 C  dx2y2           3.7       2.3
13 C  dxy             4.1       0.9
14 C  s               0.0       1.8
14 C  px              0.3       0.0
14 C  py              0.2       2.6
14 C  dz2             0.0       0.3
14 C  dx2y2           0.5       6.1
14 C  dxy             8.8       0.6
15 O  s               0.1       2.6
15 O  px              0.4       0.0
15 O  py              0.1       2.0
15 O  dz2             0.3       5.3
15 O  dx2y2           0.4      19.5
15 O  dxy            10.8       0.1
16 N  s               0.1       0.0
16 N  py              0.3       0.0
16 N  dx2y2           1.1       0.1
16 N  dxy             0.0       0.2
17 N  s               0.1       0.0
17 N  py              0.3       0.0
17 N  dx2y2           1.1       0.1
17 N  dxy             0.0       0.2
22 H  s               0.1       0.0
23 H  s               0.1       0.0


                      *****************************
                      * MAYER POPULATION ANALYSIS *
                      *****************************

  NA   - Mulliken gross atomic population
  ZA   - Total nuclear charge
  QA   - Mulliken gross atomic charge
  VA   - Mayer's total valence
  BVA  - Mayer's bonded valence
  FA   - Mayer's free valence

  ATOM       NA         ZA         QA         VA         BVA        FA
  0 C      6.0214     6.0000    -0.0214     3.7341     3.7341    -0.0000
  1 C      6.0214     6.0000    -0.0214     3.7341     3.7341     0.0000
  2 C      6.1323     6.0000    -0.1323     3.7979     3.7979     0.0000
  3 C      5.9547     6.0000     0.0453     3.7400     3.7400     0.0000
  4 C      5.9547     6.0000     0.0453     3.7400     3.7400    -0.0000
  5 C      6.1323     6.0000    -0.1323     3.7978     3.7978    -0.0000
  6 C      5.9440     6.0000     0.0560     4.0492     4.0492    -0.0000
  7 O      8.2244     8.0000    -0.2244     2.3316     2.3316    -0.0000
  8 C      5.9650     6.0000     0.0350     3.6411     3.6411    -0.0000
  9 C      5.9677     6.0000     0.0323     4.1008     4.1008    -0.0000
 10 C      6.1279     6.0000    -0.1279     3.7154     3.7154     0.0000
 11 C      6.1279     6.0000    -0.1279     3.7155     3.7155     0.0000
 12 C      5.9677     6.0000     0.0323     4.1007     4.1007     0.0000
 13 C      5.9650     6.0000     0.0350     3.6411     3.6411    -0.0000
 14 C      5.9440     6.0000     0.0560     4.0492     4.0492     0.0000
 15 O      8.2244     8.0000    -0.2244     2.3316     2.3316     0.0000
 16 N      7.2677     7.0000    -0.2677     3.2290     3.2290    -0.0000
 17 N      7.2677     7.0000    -0.2677     3.2291     3.2291     0.0000
 18 H      0.9433     1.0000     0.0567     0.9505     0.9505     0.0000
 19 H      0.9432     1.0000     0.0568     0.9505     0.9505    -0.0000
 20 H      0.9467     1.0000     0.0533     0.9837     0.9837    -0.0000
 21 H      0.9467     1.0000     0.0533     0.9837     0.9837     0.0000
 22 H      0.9710     1.0000     0.0290     0.9647     0.9647     0.0000
 23 H      0.9710     1.0000     0.0290     0.9647     0.9647    -0.0000
 24 H      0.7845     1.0000     0.2155     0.9266     0.9266    -0.0000
 25 H      0.7494     1.0000     0.2506     0.9674     0.9674    -0.0000
 26 H      0.7494     1.0000     0.2506     0.9674     0.9674     0.0000
 27 H      0.7845     1.0000     0.2155     0.9266     0.9266     0.0000

  Mayer bond orders larger than 0.100000
B(  0-C ,  1-C ) :   1.3192 B(  0-C ,  5-C ) :   1.3463 B(  0-C , 18-H ) :   0.9663 
B(  1-C ,  2-C ) :   1.3464 B(  1-C , 19-H ) :   0.9663 B(  2-C ,  3-C ) :   1.3691 
B(  2-C , 20-H ) :   0.9552 B(  3-C ,  4-C ) :   1.3382 B(  3-C , 14-C ) :   0.9848 
B(  4-C ,  5-C ) :   1.3691 B(  4-C ,  6-C ) :   0.9848 B(  5-C , 21-H ) :   0.9552 
B(  6-C ,  7-O ) :   1.9626 B(  6-C ,  8-C ) :   1.0270 B(  7-O , 26-H ) :   0.1350 
B(  8-C ,  9-C ) :   1.2454 B(  8-C , 13-C ) :   1.2929 B(  9-C , 10-C ) :   1.1778 
B(  9-C , 17-N ) :   1.4462 B( 10-C , 11-C ) :   1.4354 B( 10-C , 22-H ) :   0.9631 
B( 11-C , 12-C ) :   1.1779 B( 11-C , 23-H ) :   0.9631 B( 12-C , 13-C ) :   1.2455 
B( 12-C , 16-N ) :   1.4461 B( 13-C , 14-C ) :   1.0270 B( 14-C , 15-O ) :   1.9626 
B( 15-O , 25-H ) :   0.1350 B( 16-N , 24-H ) :   0.8598 B( 16-N , 25-H ) :   0.7776 
B( 17-N , 26-H ) :   0.7776 B( 17-N , 27-H ) :   0.8598 

-------
TIMINGS
-------

Total SCF time: 0 days 0 hours 0 min 2 sec 

Total time                  ....       2.890 sec
Sum of individual times     ....       2.874 sec  ( 99.5%)

SCF preparation             ....       0.038 sec  (  1.3%)
Fock matrix formation       ....       2.649 sec  ( 91.7%)
  Startup                   ....       0.002 sec  (  0.1% of F)
  Split-RI-J                ....       1.586 sec  ( 59.9% of F)
  XC integration            ....       1.054 sec  ( 39.8% of F)
    Basis function eval.    ....       0.415 sec  ( 39.4% of XC)
    Density eval.           ....       0.260 sec  ( 24.6% of XC)
    XC-Functional eval.     ....       0.053 sec  (  5.1% of XC)
    XC-Potential eval.      ....       0.297 sec  ( 28.2% of XC)
Diagonalization             ....       0.000 sec  (  0.0%)
Density matrix formation    ....       0.004 sec  (  0.1%)
Total Energy calculation    ....       0.001 sec  (  0.0%)
Population analysis         ....       0.143 sec  (  4.9%)
Orbital Transformation      ....       0.008 sec  (  0.3%)
Orbital Orthonormalization  ....       0.000 sec  (  0.0%)
DIIS solution               ....       0.011 sec  (  0.4%)
  MO trafo                  ....       0.000 sec  (  0.0 % of DIIS)
  Orb grad                  ....       0.000 sec  (  0.0 % of DIIS)
  Energy W gradient         ....       0.000 sec  (  0.0 % of DIIS)
  DIIS error                ....       0.002 sec  ( 17.2 % of DIIS)
  DIIS work                 ....       0.009 sec  ( 81.4 % of DIIS)
  Form Q                    ....       0.000 sec  (  0.0 % of DIIS)
  Form QpQm                 ....       0.000 sec  (  0.0 % of DIIS)
  Exp/Cayley                ....       0.000 sec  (  0.0 % of DIIS)
  Orb update                ....       0.000 sec  (  0.0 % of DIIS)
  Wake-sleep                ....       0.000 sec  (  1.5 % of DIIS)
SOSCF solution              ....       0.021 sec  (  0.7%)
  MO trafo                  ....       0.014 sec  ( 67.2 % of SOSCF)
  Orb grad                  ....       0.000 sec  (  0.7 % of SOSCF)
  Rot update                ....       0.000 sec  (  1.6 % of SOSCF)
  Step                      ....       0.006 sec  ( 29.8 % of SOSCF)
Finished LeanSCF after   2.9 sec

Maximum memory used throughout the entire LEANSCF-calculation: 27.4 MB


-------------------------------------------------------------------------------
                          DFT DISPERSION CORRECTION                            
                                                                               
                                DFTD4 V3.4.0                                   
-------------------------------------------------------------------------------
The PBE functional is recognized
Active option DFTDOPT                   ...         5   

-------------------------   ----------------
Dispersion correction           -0.041828414
-------------------------   ----------------

------------------   -----------------
gCP correction             0.120189676
------------------   -----------------

-------------------------   --------------------
FINAL SINGLE POINT ENERGY      -797.881286102545
-------------------------   --------------------


------------------------------------------------------------------------------
                              ORCA PROPERTY CALCULATIONS
------------------------------------------------------------------------------

GBWName                                 ... sp.gbw
Number of atoms                         ...     28
Number of basis functions               ...    272
Max core memory                         ...   1024 MB

Electric properties:
Dipole moment                           ... YES
Quadrupole moment                       ...  NO
Static polarizability (Dipole/Dipole)   ...  NO
Static polarizability (Dipole/Quad.)    ...  NO
Static polarizability (Quad./Quad.)     ...  NO
Static polarizability (Velocity)        ...  NO

Atomic electric properties:
Dipole moment                           ...  NO
Quadrupole moment                       ...  NO
Static polarizability                   ...  NO

Choice of electric origin               ... Center of mass
Position of electric origin             ...     0.000014     0.000000     0.000000

General magnetic properties:
Magnetizability                         ...  NO

EPR properties:
g-Tensor (aka g-matrix)                 ...  NO
Zero-Field splitting spin-orbit         ...  NO
Zero-field splitting spin-spin          ...  NO
Hyperfine couplings                     ...  NO (   0 nuclei)
Quadrupole couplings                    ...  NO (   0 nuclei)
Contact density                         ...  NO (   0 nuclei)

NMR properties:
Chemical shifts                         ...  NO (   0 nuclei)
Spin-rotation constants                 ...  NO (   0 nuclei)
Spin-spin couplings                     ...  NO (   0 nuclei,    0 pairs)

Choice of magnetic origin               ... GIAO
Position of magnetic origin             ...     0.000000     0.000000     0.000000

Properties with geometric perturbations:
SCF Hessian                             ...  NO
IR spectrum                             ...  NO
VCD spectrum                            ...  NO
X-ray spectroscopy properties:
SCF XES/XAS/RIXS spectra                ...  NO


-------------
DIPOLE MOMENT
-------------

Method             : SCF
Type of density    : Electron Density
Multiplicity       :   1
Irrep              :   0
Energy             :  -797.9596473647013681 Eh
Relativity type    : 
Basis              : AO
                                X                 Y                 Z
Electronic contribution:     -0.545513728      -0.000254619      -0.036654719
Nuclear contribution   :      1.977039502       0.000112408       0.064186424
                        -----------------------------------------
Total Dipole Moment    :      1.431525774      -0.000142211       0.027531705
                        -----------------------------------------
Magnitude (a.u.)       :      1.431790507
Magnitude (Debye)      :      3.639322247



--------------------
Rotational spectrum 
--------------------
 
Rotational constants in cm-1:             0.024094             0.012987             0.008438 
Rotational constants in MHz :           722.311430           389.333387           252.978144 

Dipole components along the rotational axes: 
x,y,z [a.u.] :     1.431526     0.000142     0.027532 
x,y,z [Debye]:     3.638649     0.000361     0.069980 

 

Dipole moment calculation done in   0.0 sec 

Maximum memory used throughout the entire PROP-calculation: 19.2 MB

--------------------------------
SUGGESTED CITATIONS FOR THIS RUN
--------------------------------

Below you find a list of papers that are relevant to this ORCA run
We neither can nor want to force you to cite these papers, but we appreciate if you do
You receive ORCA, which is the product of decades of hard work by many enthusiastic individuals, for free
The only thing we kindly ask in return is that you cite our papers,
We deeply appreciate it, if you show your appreciation for ORCA by not just citing the generic ORCA reference.

Please note that relegating all ORCA citations to the supporting information does *not* help us.
SI sections are not indexed - citations you put there will not count into any citation statistics
But we need these citations in order to attract the funding resources that allow us to do what we are doing

Therefore, if you are a happy ORCA user, please consider citing a few of the papers listed below in the main body of your paper

In addition to the list printed below, the program has created the file sp.bibtex that contains the list in bibtex format
You can import this file easily into all common literature databanks and citation aid programs


List of essential papers. We consider these as the minimum necessary citations

  1. Neese,F.
     Software update: the ORCA program system, version 5.0
     WIRES Comput. Molec. Sci., 2022 12(1)e1606
     doi.org/10.1002/wcms.1606

List of papers to cite with high priority. The work reported in these papers was absolutely
necessary for this run to complete.
Our perspective: the developers of density functionals and basis sets usually get cited in chemistry papers
Good! But without the algorithms to do something with them, the functionals or basis sets would not do anything.
Hence, in our opinion, the algorithm design and method developments papers are equally worthy of getting cited

  1. Neese,F.
     An improvement of the resolution of the identity approximation for the formation of the Coulomb matrix
     J. Comp. Chem., 2003 24(14)1740-1747
     doi.org/10.1002/jcc.10318
  2. Neese,F.
     The SHARK Integral Generation and Digestion System
     J. Comp. Chem., 2022  1-16
     doi.org/10.1002/jcc.26942
  3. Caldeweyher,E.; Bannwarth,C.; Grimme,S.
     Extension of the D3 dispersion coefficient model
     J. Chem. Phys., 2017 147 034112
     doi.org/10.1063/1.4993215
  4. Caldeweyher,E.; Ehlert,S.; Hansen,A.; Neugebauer,H.; Spicher,S.; Bannwarth,C.; Grimme,S.
     A generally applicable atomic-charge dependent London dispersion correction
     J. Chem. Phys., 2019 150 154122
     doi.org/10.1063/1.5090222
  5. Caldeweyher,E.; Mewes,J.; Ehlert,S.; Grimme,S.
     Extension and evaluation of the D4 London-dispersion model for periodic systems
     Phys. Chem. Chem. Phys., 2020 22(16)8499-8512
     doi.org/10.1039/D0CP00502A
  6. Wittmann,L.; Gordiy,I.; Friede,M.; Helmich-Paris,B.; Grimme,S.; Hansen,A.; Bursch,M.
     Extension of the D3 and D4 London Dispersion Corrections to the full Actinides Series
     Phys. Chem. Chem. Phys., 2024 26(32)21379-21394
     doi.org/https://doi.org/10.1039/D4CP01514B 

List of suggested additional citations. These are papers that are important in the 'surrounding' of 
of this run, or papers that preceded the highly important papers. If you like your results we are grateful for a citation.

  1. Neese,F.
     The ORCA program system
     WIRES Comput. Molec. Sci., 2012 2(1)73-78
     doi.org/10.1002/wcms.81
  2. Neese,F.
     Software update: the ORCA program system, version 4.0
     WIRES Comput. Molec. Sci., 2018 8(1)1-6
     doi.org/10.1002/wcms.1327
  3. Neese,F.; Wennmohs,F.; Becker,U.; Riplinger,C.
     The ORCA quantum chemistry program package
     J. Chem. Phys., 2020 152 Art. No. L224108
     doi.org/10.1063/5.0004608

List of optional additional citations

  1. Neese,F.
     Approximate second-order SCF convergence for spin unrestricted wavefunctions
     Chem. Phys. Lett., 2000 325(1-3)93-98
     doi.org/10.1016/s0009-2614(00)00662-x

Timings for individual modules:

Sum of individual times          ...        3.592 sec (=   0.060 min)
Startup calculation              ...        0.573 sec (=   0.010 min)  16.0 %
SCF iterations                   ...        2.976 sec (=   0.050 min)  82.9 %
Property calculations            ...        0.043 sec (=   0.001 min)   1.2 %
                             ****ORCA TERMINATED NORMALLY****
TOTAL RUN TIME: 0 days 0 hours 0 minutes 3 seconds 662 msec
