14
 energy: -307.632714061004 gnorm: 0.003253527848 xtb: 6.7.1 (41059b4)
C           -2.24495309995881        0.23525969420231       -0.62281313725177
C           -1.30006319877234        0.56945436632769        0.53916152201996
C            0.02260910197665       -0.12723515967631        0.34579964347993
O            0.23053758937996       -1.29713884858401        0.56705529765779
O            0.95676365173620        0.71907781064780       -0.15882066191290
C            2.24439660716831        0.12109451532860       -0.42456596525401
H           -2.37813143175557       -0.84515938926884       -0.70795263217717
H           -3.22259024301502        0.69224221585191       -0.45575470590843
H           -1.84814451403098        0.61203928444721       -1.56846965241817
H           -1.72447055462797        0.20437506553599        1.47777770233528
H           -1.14693660172698        1.64792973923441        0.61032458140873
H            2.12545383604382       -0.83808021011990       -0.93177458945680
H            2.78404345912410       -0.03191411847021        0.51287426260338
H            2.77532933803246        0.83384812130983       -1.05402323742939
14
 energy: -307.632751940319 gnorm: 0.001313968957 xtb: 6.7.1 (41059b4)
C           -2.24484280046618        0.23390935982380       -0.62291038506026
C           -1.29986211030816        0.57020844997345        0.53934416424861
C            0.02394124862283       -0.12564168552609        0.34891629087706
O            0.23186547617197       -1.29525008735411        0.57386311004641
O            0.95675296099538        0.71879808143790       -0.15992976019882
C            2.24389997254438        0.12110771173530       -0.42623011183433
H           -2.37874810702477       -0.84747647589604       -0.70679998900665
H           -3.22356177040517        0.69187133146828       -0.45893729821793
H           -1.84667308654050        0.60900958485867       -1.56978652631136
H           -1.72432139985277        0.20709342855902        1.47942101052663
H           -1.14776569208033        1.64969649270378        0.61029391546402
H            2.12440049266386       -0.83374724060967       -0.94250244397250
H            2.78040228710813       -0.04263418302889        0.51258045074583
H            2.77835660602482        0.83884826561609       -1.04850428503165
14
 energy: -307.632805784305 gnorm: 0.009972611359 xtb: 6.7.1 (41059b4)
C           -2.24157634625570        0.22422844207617       -0.62232351203746
C           -1.29984787401224        0.57659119439617        0.54079053168655
C            0.02888139442015       -0.11517983528260        0.36117685541890
O            0.24274374533579       -1.27879226098078        0.61990381347286
O            0.95409653846539        0.71876280673486       -0.17102683052453
C            2.23854227903647        0.12003698043311       -0.43642482114317
H           -2.37925905295907       -0.86100348093071       -0.69373700579054
H           -3.22376772785606        0.68841702324396       -0.47520417103118
H           -1.83603441935048        0.58530809849486       -1.57578962817893
H           -1.72369359074796        0.22551553308486        1.48850973794656
H           -1.15465763097036        1.66084353770469        0.60467625035429
H            2.11812088081239       -0.80129603370054       -1.01960835054324
H            2.74929906511758       -0.11917939184286        0.50906365845737
H            2.80099808423294        0.87154029586263       -1.00119043144809
14
 energy: -307.632875655968 gnorm: 0.005780180131 xtb: 6.7.1 (41059b4)
C           -2.24072851854879        0.22534912884938       -0.62241836865774
C           -1.30019104217454        0.57602664578080        0.54103666876212
C            0.02879237129007       -0.11505537608367        0.36279836610033
O            0.24261170144009       -1.27902160854975        0.61580363692795
O            0.95316381105695        0.71922124097791       -0.17137618567339
C            2.23783504871669        0.11965237165934       -0.43603681225262
H           -2.37751243353726       -0.85876428910693       -0.69445739206355
H           -3.22188314530666        0.68839489817743       -0.47354075611791
H           -1.83545649342325        0.58750353628197       -1.57411665534953
H           -1.72524497957605        0.22243472163959        1.48625323568002
H           -1.15464650168772        1.65915182908071        0.60496708508344
H            2.11896184258368       -0.80318358473377       -1.01268573827161
H            2.74964220178834       -0.11197194733429        0.50673802771202
H            2.79850127544503        0.86605529651999       -1.00414883390696
14
 energy: -307.632938117764 gnorm: 0.001818208997 xtb: 6.7.1 (41059b4)
C           -2.23786360518285        0.22417264259945       -0.62188865782887
C           -1.30068863082075        0.57759085279947        0.54201492214659
C            0.02845395996999       -0.11263300542422        0.36426153725261
O            0.24645025051823       -1.27395946290865        0.62263954734401
O            0.95028212119394        0.72055505247023       -0.17688674803147
C            2.23497501874838        0.11857621758463       -0.43795576523821
H           -2.37368211195883       -0.85879344764234       -0.69050625154196
H           -3.21767725235648        0.68672854238789       -0.47387085889888
H           -1.83147592575890        0.58367759926210       -1.57222963909471
H           -1.72706657269976        0.22296682618261        1.48495179519933
H           -1.15587884609075        1.65962932061786        0.60260805847353
H            2.11792389158944       -0.79602234306873       -1.02453160851987
H            2.73804330685138       -0.12329081542147        0.50305166408193
H            2.80204968757321        0.86659488871182       -0.99284204768477
14
 energy: -307.633001258415 gnorm: 0.002708665450 xtb: 6.7.1 (41059b4)
C           -2.23079147090819        0.21779837073061       -0.62088895359533
C           -1.30168128504780        0.58338576001015        0.54452072029248
C            0.03054979321423       -0.10235584508771        0.37645606943226
O            0.25915281417440       -1.25628267341254        0.65608539708450
O            0.94363921774664        0.72385102903206       -0.19186748349803
C            2.22715186887793        0.11567333862909       -0.44707243099742
H           -2.36550217657004       -0.86454896793807       -0.67668903221027
H           -3.20986210095843        0.68127390419934       -0.48238837129285
H           -1.81886381568413        0.56578028193043       -1.57124679343492
H           -1.73113959075657        0.23182729062909        1.48565969325940
H           -1.16093056735148        1.66507906650340        0.59520183502900
H            2.11254682928995       -0.76751629355445       -1.08263926058681
H            2.70058154199173       -0.18005024747662        0.49355599599783
H            2.81899505075336        0.88187775650416       -0.94987299555395
14
 energy: -307.633017021800 gnorm: 0.001716489086 xtb: 6.7.1 (41059b4)
C           -2.22947675732302        0.21565018615919       -0.62056045593396
C           -1.30187117257696        0.58509767418150        0.54557907842400
C            0.02977621552159       -0.10082663817225        0.37661098565349
O            0.26221369394313       -1.25146563524437        0.66821538135020
O            0.94189974770164        0.72353501085099       -0.19636575430685
C            2.22602929543708        0.11539815587323       -0.44972061836556
H           -2.36451963081083       -0.86731983888204       -0.67348596393864
H           -3.20925269336454        0.68000231744609       -0.48579974843653
H           -1.81551078458625        0.56066637419091       -1.57173080125292
H           -1.73139153573571        0.23592303878521        1.48799211654719
H           -1.16153122072521        1.66733178150337        0.59417565678493
H            2.11318793282557       -0.75735791316724       -1.09957241580449
H            2.69019715612464       -0.19754898065081        0.49009351561427
H            2.82409616284685        0.88670723524579       -0.93661709052265
14
 energy: -307.633022075986 gnorm: 0.000866613424 xtb: 6.7.1 (41059b4)
C           -2.22863274298552        0.21389597298143       -0.62079142903770
C           -1.30187141250351        0.58618112010178        0.54618752811137
C            0.03040360916706       -0.09922192100624        0.38136632957908
O            0.26405683708358       -1.24763108162494        0.67958111720625
O            0.94106437278045        0.72244345044408       -0.19817396117385
C            2.22539961638586        0.11492763834371       -0.45258650259872
H           -2.36417709114829       -0.86999365129021       -0.67144112362085
H           -3.20964393437626        0.67907297107528       -0.49033768722096
H           -1.81243140121422        0.55636318752027       -1.57297940197759
H           -1.73228668386107        0.24010945438781        1.49010707468922
H           -1.16226464293533        1.66938061965393        0.59360019692525
H            2.11435543928698       -0.74793100948504       -1.11513575489103
H            2.68298612848763       -0.21318190602711        0.48499658053994
H            2.82688849169218        0.89137778663151       -0.92557953552739
14
 energy: -307.633023212278 gnorm: 0.000519494591 xtb: 6.7.1 (41059b4)
C           -2.22870659529404        0.21393790147474       -0.62077885780011
C           -1.30184211941658        0.58611884117425        0.54580295765263
C            0.03037848273630       -0.09973858453935        0.38130903008099
O            0.26357088733578       -1.24815559380791        0.67922355181046
O            0.94110442343511        0.72206455731347       -0.19762544642702
C            2.22552451382440        0.11480410951164       -0.45222208905074
H           -2.36420023722128       -0.86973748414834       -0.67172061048763
H           -3.20932225242422        0.67892970332771       -0.48936154370627
H           -1.81305777239929        0.55679292148707       -1.57277427203119
H           -1.73245736933067        0.24038597999272        1.48960459825392
H           -1.16196036427059        1.66920029241328        0.59273258259623
H            2.11457806799339       -0.74765988783591       -1.11441434244992
H            2.68381172770195       -0.21214865852969        0.48443682896497
H            2.82642520479233        0.89099852581653       -0.92539894674132
14
 energy: -307.633023212278 gnorm: 0.000519494591 xtb: 6.7.1 (41059b4)
C           -2.22870659529404        0.21393790147474       -0.62077885780011
C           -1.30184211941658        0.58611884117425        0.54580295765263
C            0.03037848273630       -0.09973858453935        0.38130903008099
O            0.26357088733578       -1.24815559380791        0.67922355181046
O            0.94110442343511        0.72206455731347       -0.19762544642702
C            2.22552451382440        0.11480410951164       -0.45222208905074
H           -2.36420023722128       -0.86973748414834       -0.67172061048763
H           -3.20932225242422        0.67892970332771       -0.48936154370627
H           -1.81305777239929        0.55679292148707       -1.57277427203119
H           -1.73245736933067        0.24038597999272        1.48960459825392
H           -1.16196036427059        1.66920029241328        0.59273258259623
H            2.11457806799339       -0.74765988783591       -1.11441434244992
H            2.68381172770195       -0.21214865852969        0.48443682896497
H            2.82642520479233        0.89099852581653       -0.92539894674132
