      -----------------------------------------------------------      
     |                   =====================                   |     
     |                           x T B                           |     
     |                   =====================                   |     
     |                         S. Grimme                         |     
     |          Mulliken Center for Theoretical Chemistry        |     
     |                    University of Bonn                     |     
      -----------------------------------------------------------      

   * xtb version 6.7.1 (41059b4) compiled by 'michael@archlinux' on 2025-03-24

   xtb is free software: you can redistribute it and/or modify it under
   the terms of the GNU Lesser General Public License as published by
   the Free Software Foundation, either version 3 of the License, or
   (at your option) any later version.
   
   xtb is distributed in the hope that it will be useful,
   but WITHOUT ANY WARRANTY; without even the implied warranty of
   MERCHANTABILITY or FITNESS FOR A PARTICULAR PURPOSE.  See the
   GNU Lesser General Public License for more details.
   
   Cite this work as:
   * C. Bannwarth, E. Caldeweyher, S. Ehlert, A. Hansen, P. Pracht,
     J. Seibert, S. Spicher, S. Grimme, WIREs Comput. Mol. Sci., 2020, 11,
     e01493. DOI: 10.1002/wcms.1493
   
   for GFN2-xTB:
   * C. Bannwarth, S. Ehlert and S. Grimme., J. Chem. Theory Comput., 2019,
     15, 1652-1671. DOI: 10.1021/acs.jctc.8b01176
   for GFN1-xTB:
   * S. Grimme, C. Bannwarth, P. Shushkov, J. Chem. Theory Comput., 2017,
     13, 1989-2009. DOI: 10.1021/acs.jctc.7b00118
   for GFN0-xTB:
   * P. Pracht, E. Caldeweyher, S. Ehlert, S. Grimme, ChemRxiv, 2019, preprint.
     DOI: 10.26434/chemrxiv.8326202.v1
   for GFN-FF:
   * S. Spicher and S. Grimme, Angew. Chem. Int. Ed., 2020, 59, 15665-15673.
     DOI: 10.1002/anie.202004239
   
   for ALPB and GBSA implicit solvation:
   * S. Ehlert, M. Stahn, S. Spicher, S. Grimme, J. Chem. Theory Comput.,
     2021, 17, 4250-4261. DOI: 10.1021/acs.jctc.1c00471
   
   for ddCOSMO and CPCM-X implicit solvation:
   * M. Stahn, S. Ehlert, S. Grimme, J. Phys. Chem. A,
     2023, XX, XXXX-XXXX. DOI: 10.1021/acs.jpca.3c04382
   
   for DFT-D4:
   * E. Caldeweyher, C. Bannwarth and S. Grimme, J. Chem. Phys., 2017,
     147, 034112. DOI: 10.1063/1.4993215
   * E. Caldeweyher, S. Ehlert, A. Hansen, H. Neugebauer, S. Spicher,
     C. Bannwarth and S. Grimme, J. Chem. Phys., 2019, 150, 154122.
     DOI: 10.1063/1.5090222
   * E. Caldeweyher, J.-M. Mewes, S. Ehlert and S. Grimme, Phys. Chem. Chem. Phys.
     2020, 22, 8499-8512. DOI: 10.1039/D0CP00502A
   
   for sTDA-xTB:
   * S. Grimme and C. Bannwarth, J. Chem. Phys., 2016, 145, 054103.
     DOI: 10.1063/1.4959605
   
   in the mass-spec context:
   * V. Asgeirsson, C. Bauer and S. Grimme, Chem. Sci., 2017, 8, 4879.
     DOI: 10.1039/c7sc00601b
   * J. Koopman and S. Grimme, ACS Omega 2019, 4, 12, 15120-15133.
     DOI: 10.1021/acsomega.9b02011
   
   for metadynamics refer to:
   * S. Grimme, J. Chem. Theory Comput., 2019, 155, 2847-2862
     DOI: 10.1021/acs.jctc.9b00143
   
   for SPH calculations refer to:
   * S. Spicher and S. Grimme, J. Chem. Theory Comput., 2021, 17, 1701-1714
     DOI: 10.1021/acs.jctc.0c01306
   
   for ONIOM refer to:
   * C. Plett, A. Katbashev, S. Ehlert, S. Grimme, M. Bursch,
     Phys. Chem. Chem. Phys., 2023, 25, 17860-17868. DOI: 10.1039/D3CP02178E
   
   for DIPRO refer to:
   * J. Kohn, N. Gildemeister, S. Grimme, D. Fazzi, A. Hansen,
     J. Chem. Phys., 2023, just accepted.
   
   for PTB refer to:
   * S. Grimme, M. Mueller, A. Hansen, J. Chem. Phys., 2023, 158, 124111.
     DOI: 10.1063/5.0137838
   
   with help from (in alphabetical order)
   P. Atkinson, C. Bannwarth, F. Bohle, G. Brandenburg, E. Caldeweyher
   M. Checinski, S. Dohm, S. Ehlert, S. Ehrlich, I. Gerasimov, C. Hölzer
   A. Katbashev, J. Kohn, J. Koopman, C. Lavigne, S. Lehtola, F. März, M. Müller,
   F. Musil, H. Neugebauer, J. Pisarek, C. Plett, P. Pracht, F. Pultar,
   J. Seibert, P. Shushkov, S. Spicher, M. Stahn, M. Steiner, T. Strunk,
   J. Stückrath, T. Rose, and J. Unsleber
   
 * started run on 2025/04/08 at 23:32:58.185     
   ID    Z sym.   atoms
    1    6 C      1, 2, 4, 5
    2    8 O      3
    3    7 N      6
    4    1 H      7-15

           -------------------------------------------------
          |                Calculation Setup                |
           -------------------------------------------------

          program call               : /usr/bin/xtb xtb_rrho.coord --gfn2 --ohess vtight --chrg 0 --enso --norestart -I rrho-xcontrol-inp --parallel 1
          coordinate file            : xtb_rrho.coord
          omp threads                :                     1


           -------------------------------------------------
          |                 G F N 2 - x T B                 |
           -------------------------------------------------

        Reference                      10.1021/acs.jctc.8b01176
      * Hamiltonian:
        H0-scaling (s, p, d)           1.850000    2.230000    2.230000
        zeta-weighting                 0.500000
      * Dispersion:
        s8                             2.700000
        a1                             0.520000
        a2                             5.000000
        s9                             5.000000
      * Repulsion:
        kExp                           1.500000    1.000000
        rExp                           1.000000
      * Coulomb:
        alpha                          2.000000
        third order                    shell-resolved
        anisotropic                    true
        a3                             3.000000
        a5                             4.000000
        cn-shift                       1.200000
        cn-exp                         4.000000
        max-rad                        5.000000


          ...................................................
          :                      SETUP                      :
          :.................................................:
          :  # basis functions                  33          :
          :  # atomic orbitals                  33          :
          :  # shells                           21          :
          :  # electrons                        36          :
          :  max. iterations                   250          :
          :  Hamiltonian                  GFN2-xTB          :
          :  restarted?                      false          :
          :  GBSA solvation                  false          :
          :  PC potential                    false          :
          :  electronic temp.          300.0000000     K    :
          :  accuracy                    1.0000000          :
          :  -> integral cutoff          0.2500000E+02      :
          :  -> integral neglect         0.1000000E-07      :
          :  -> SCF convergence          0.1000000E-05 Eh   :
          :  -> wf. convergence          0.1000000E-03 e    :
          :  Broyden damping             0.4000000          :
          :  net charge                          0          :
          :  unpaired electrons                  0          :
          ...................................................

 iter      E             dE          RMSdq      gap      omega  full diag
   1    -20.3007774 -0.203008E+02  0.368E+00    9.87       0.0  T
   2    -20.3349698 -0.341924E-01  0.196E+00   10.01       1.0  T
   3    -20.3357306 -0.760792E-03  0.807E-01   10.09       1.0  T
   4    -20.3359689 -0.238342E-03  0.113E-01   10.00       1.0  T
   5    -20.3360030 -0.340734E-04  0.534E-02    9.99       1.0  T
   6    -20.3360044 -0.146841E-05  0.167E-02    9.99       1.5  T
   7    -20.3360048 -0.363511E-06  0.395E-03    9.99       6.5  T
   8    -20.3360048 -0.696487E-08  0.760E-04    9.99      34.0  T
   9    -20.3360048 -0.328289E-08  0.288E-04    9.99      89.5  T

   *** convergence criteria satisfied after 9 iterations ***

         #    Occupation            Energy/Eh            Energy/eV
      -------------------------------------------------------------
         1        2.0000           -0.6970031             -18.9664
       ...           ...                  ...                  ...
        12        2.0000           -0.4854707             -13.2103
        13        2.0000           -0.4786144             -13.0238
        14        2.0000           -0.4582649             -12.4700
        15        2.0000           -0.4531163             -12.3299
        16        2.0000           -0.4402310             -11.9793
        17        2.0000           -0.4172285             -11.3534
        18        2.0000           -0.3603985              -9.8069 (HOMO)
        19                          0.0067837               0.1846 (LUMO)
        20                          0.0389923               1.0610
        21                          0.0570306               1.5519
        22                          0.0791674               2.1543
        23                          0.0962082               2.6180
       ...                                ...                  ...
        33                          0.2809345               7.6446
      -------------------------------------------------------------
                  HL-Gap            0.3671822 Eh            9.9915 eV
             Fermi-level           -0.1768074 Eh           -4.8112 eV

 SCC (total)                   0 d,  0 h,  0 min,  0.005 sec
 SCC setup                      ...        0 min,  0.000 sec (  1.157%)
 Dispersion                     ...        0 min,  0.000 sec (  1.012%)
 classical contributions        ...        0 min,  0.000 sec (  0.299%)
 integral evaluation            ...        0 min,  0.001 sec ( 14.116%)
 iterations                     ...        0 min,  0.002 sec ( 46.838%)
 molecular gradient             ...        0 min,  0.002 sec ( 35.244%)
 printout                       ...        0 min,  0.000 sec (  1.194%)

         :::::::::::::::::::::::::::::::::::::::::::::::::::::
         ::                     SUMMARY                     ::
         :::::::::::::::::::::::::::::::::::::::::::::::::::::
         :: total energy             -20.133355632395 Eh    ::
         :: gradient norm              0.025611962472 Eh/a0 ::
         :: HOMO-LUMO gap              9.991536635729 eV    ::
         ::.................................................::
         :: SCC energy               -20.335992522603 Eh    ::
         :: -> isotropic ES            0.027093285676 Eh    ::
         :: -> anisotropic ES          0.004670249370 Eh    ::
         :: -> anisotropic XC          0.009183794158 Eh    ::
         :: -> dispersion             -0.008891601669 Eh    ::
         :: repulsion energy           0.202636890208 Eh    ::
         :: add. restraining           0.000000000000 Eh    ::
         :: total charge              -0.000000000000 e     ::
         :::::::::::::::::::::::::::::::::::::::::::::::::::::

      ----------------------------------------------------------- 
     |                   =====================                   |
     |                        A N C O P T                        |
     |                   =====================                   |
     |               Approximate Normal Coordinate               |
     |                Rational Function Optimizer                |
      ----------------------------------------------------------- 

          ...................................................
          :                      SETUP                      :
          :.................................................:
          :   optimization level         verytight          :
          :   max. optcycles                   300          :
          :   ANC micro-cycles                  20          :
          :   degrees of freedom                39          :
          :.................................................:
          :   RF solver                   davidson          :
          :   write xtbopt.log                true          :
          :   linear?                        false          :
          :   energy convergence         0.1000000E-06 Eh   :
          :   grad. convergence          0.2000000E-03 Eh/α :
          :   maximum RF displ.          1.0000000          :
          :   Hlow (freq-cutoff)         0.1000000E-01      :
          :   Hmax (freq-cutoff)         5.0000000          :
          :   S6 in model hess.         20.0000000          :
          ...................................................

generating ANC from exact Hessian ...
Using Lindh-Hessian (1995)
 Shifting diagonal of input Hessian by    2.8853721801458572E-004
 Lowest  eigenvalues of input Hessian
    0.000000    0.000000    0.000000    0.000000    0.000000    0.000000
    0.010000    0.015838    0.024182    0.028319    0.030669    0.052779
    0.054792    0.056147    0.058747    0.062813    0.067937    0.074071
 Highest eigenvalues
    1.176841    1.190433    1.274883    1.370362    1.394351    1.458362


........................................................................
.............................. CYCLE    1 ..............................
........................................................................

 iter      E             dE          RMSdq      gap      omega  full diag
   1    -20.3360048 -0.203360E+02  0.338E-05    9.99       0.0  T
   2    -20.3360048 -0.174794E-11  0.183E-05    9.99    1410.6  T
   3    -20.3360048 -0.202505E-12  0.609E-06    9.99    4242.2  T
     SCC iter.                  ...        0 min,  0.001 sec
     gradient                   ...        0 min,  0.002 sec
 * total energy  :   -20.1333556 Eh     change       -0.2062031E-09 Eh
   gradient norm :     0.0256115 Eh/α   predicted     0.0000000E+00 (-100.00%)
   displ. norm   :     0.1296395 α      lambda       -0.1431623E-02
   maximum displ.:     0.0666189 α      in ANC's #2, #14, #11, ...

........................................................................
.............................. CYCLE    2 ..............................
........................................................................

 iter      E             dE          RMSdq      gap      omega  full diag
   1    -20.3417292 -0.203417E+02  0.126E-01   10.23       0.0  T
   2    -20.3417351 -0.589276E-05  0.763E-02   10.23       1.0  T
   3    -20.3417355 -0.438754E-06  0.797E-03   10.22       3.2  T
   4    -20.3417357 -0.226983E-06  0.270E-03   10.22       9.6  T
   5    -20.3417357 -0.139966E-07  0.900E-04   10.22      28.7  T
   6    -20.3417357 -0.511026E-09  0.264E-04   10.22      97.8  T
     SCC iter.                  ...        0 min,  0.001 sec
     gradient                   ...        0 min,  0.002 sec
 * total energy  :   -20.1342304 Eh     change       -0.8748169E-03 Eh
   gradient norm :     0.0116483 Eh/α   predicted    -0.7278419E-03 ( -16.80%)
   displ. norm   :     0.0612113 α      lambda       -0.2335175E-03
   maximum displ.:     0.0500480 α      in ANC's #2, #12, #5, ...

........................................................................
.............................. CYCLE    3 ..............................
........................................................................

 iter      E             dE          RMSdq      gap      omega  full diag
   1    -20.3440857 -0.203441E+02  0.459E-02   10.33       0.0  T
   2    -20.3440873 -0.156403E-05  0.277E-02   10.33       1.0  T
   3    -20.3440874 -0.820570E-07  0.529E-03   10.33       4.9  T
   4    -20.3440874 -0.598230E-07  0.137E-03   10.33      18.9  T
   5    -20.3440874 -0.422503E-08  0.501E-04   10.33      51.5  T
   6    -20.3440874 -0.191239E-09  0.196E-04   10.33     131.5  T
     SCC iter.                  ...        0 min,  0.001 sec
     gradient                   ...        0 min,  0.002 sec
 * total energy  :   -20.1343619 Eh     change       -0.1314727E-03 Eh
   gradient norm :     0.0031674 Eh/α   predicted    -0.1171978E-03 ( -10.86%)
   displ. norm   :     0.0187187 α      lambda       -0.1930025E-04
   maximum displ.:     0.0170823 α      in ANC's #2, #11, #36, ...

........................................................................
.............................. CYCLE    4 ..............................
........................................................................

 iter      E             dE          RMSdq      gap      omega  full diag
   1    -20.3439636 -0.203440E+02  0.138E-02   10.36       0.0  T
   2    -20.3439636 -0.555076E-07  0.820E-03   10.36       3.1  T
   3    -20.3439636 -0.419693E-08  0.833E-04   10.36      31.0  T
   4    -20.3439636 -0.217785E-08  0.280E-04   10.36      92.1  T
     SCC iter.                  ...        0 min,  0.001 sec
     gradient                   ...        0 min,  0.002 sec
 * total energy  :   -20.1343736 Eh     change       -0.1170794E-04 Eh
   gradient norm :     0.0008127 Eh/α   predicted    -0.9655932E-05 ( -17.53%)
   displ. norm   :     0.0075536 α      lambda       -0.2137396E-05
   maximum displ.:     0.0052379 α      in ANC's #2, #25, #11, ...

........................................................................
.............................. CYCLE    5 ..............................
........................................................................

 iter      E             dE          RMSdq      gap      omega  full diag
   1    -20.3436344 -0.203436E+02  0.762E-03   10.37       0.0  T
   2    -20.3436344 -0.140121E-07  0.447E-03   10.37       5.8  T
   3    -20.3436344 -0.803976E-09  0.420E-04   10.37      61.4  T
   4    -20.3436344 -0.458552E-09  0.120E-04   10.37     215.4  T
     SCC iter.                  ...        0 min,  0.001 sec
     gradient                   ...        0 min,  0.002 sec
 * total energy  :   -20.1343746 Eh     change       -0.9705377E-06 Eh
   gradient norm :     0.0003453 Eh/α   predicted    -0.1069398E-05 (  10.19%)
   displ. norm   :     0.0030964 α      lambda       -0.3001550E-06
   maximum displ.:     0.0023570 α      in ANC's #2, #3, #14, ...

........................................................................
.............................. CYCLE    6 ..............................
........................................................................

 iter      E             dE          RMSdq      gap      omega  full diag
   1    -20.3436927 -0.203437E+02  0.259E-03   10.37       0.0  T
   2    -20.3436927 -0.128697E-08  0.154E-03   10.37      16.8  T
   3    -20.3436927 -0.936708E-10  0.110E-04   10.37     233.8  T
   4    -20.3436927 -0.476135E-10  0.393E-05   10.37     657.4  T
     SCC iter.                  ...        0 min,  0.001 sec
     gradient                   ...        0 min,  0.002 sec
 * total energy  :   -20.1343748 Eh     change       -0.2158102E-06 Eh
   gradient norm :     0.0000400 Eh/α   predicted    -0.1497285E-06 ( -30.62%)
   displ. norm   :     0.0004438 α      lambda       -0.4625114E-08
   maximum displ.:     0.0002139 α      in ANC's #11, #5, #8, ...

........................................................................
.............................. CYCLE    7 ..............................
........................................................................

 iter      E             dE          RMSdq      gap      omega  full diag
   1    -20.3437088 -0.203437E+02  0.583E-04   10.37       0.0  T
   2    -20.3437088 -0.150887E-09  0.341E-04   10.37      75.6  T
   3    -20.3437088 -0.358114E-11  0.467E-05   10.37     553.4  T
     SCC iter.                  ...        0 min,  0.001 sec
     gradient                   ...        0 min,  0.002 sec
 * total energy  :   -20.1343748 Eh     change       -0.2166836E-08 Eh
   gradient norm :     0.0000224 Eh/α   predicted    -0.3574821E-08 (  64.98%)
   displ. norm   :     0.0001884 α      lambda       -0.6013284E-08
   maximum displ.:     0.0001111 α      in ANC's #11, #2, #8, ...

   *** GEOMETRY OPTIMIZATION CONVERGED AFTER 7 ITERATIONS ***

------------------------------------------------------------------------
 total energy gain   :        -0.0010192 Eh       -0.6395 kcal/mol
 total RMSD          :         0.0492727 a0        0.0261 Å
 total power (kW/mol):        -0.3822676 (step)  -98.2161 (real)
------------------------------------------------------------------------

 ANCopt (total)                0 d,  0 h,  0 min,  0.027 sec
 optimizer setup                ...        0 min,  0.000 sec (  0.139%)
 model hessian                  ...        0 min,  0.003 sec ( 10.109%)
 ANC generation                 ...        0 min,  0.000 sec (  0.557%)
 coordinate transformation      ...        0 min,  0.000 sec (  0.070%)
 single point calculation       ...        0 min,  0.023 sec ( 84.997%)
 optimization log               ...        0 min,  0.000 sec (  0.841%)
 hessian update                 ...        0 min,  0.000 sec (  0.089%)
 rational function              ...        0 min,  0.000 sec (  1.309%)

================
 final structure:
================
$coord
       -1.39584143307790       -2.24812573766783        0.43595352105066      C
        1.37531242900749       -2.20476973088958       -0.41503388563882      C
        2.61228824532114        0.00072664129534        0.44033016239792      O
        1.37418072937742        2.20557580942894       -0.41506486595859      C
       -1.39699600902315        2.24752151759242        0.43591950372598      C
       -2.75012042084739       -0.00065596402159       -0.38318812869848      N
       -1.47238539167197       -2.29646836458550        2.50069729837819      H
       -2.34741055992287       -3.91877427942853       -0.30997504867244      H
        2.42668524443198       -3.79135031713277        0.37767074357553      H
        1.46790335376279       -2.29733024950367       -2.49632339845512      H
        2.42473804290066        3.79270673683629        0.37761925172971      H
        1.46672598757513        2.29815570987323       -2.49635554701105      H
       -1.47356692181137        2.29585752706773        2.50066249492414      H
       -2.34942190962126        3.91766960427027       -0.31003637517937      H
       -2.87795246432898       -0.00070335085311       -2.30243107159168      H
$end

 Bond Distances (Angstroems)
 ---------------------------
C1-C2=1.5342         C1-N6=1.4546         C1-H7=1.0937         C1-H8=1.0913         C2-C1=1.5342         C2-O3=1.4126         
C2-H9=1.0911         C2-H10=1.1035        O3-C2=1.4126         O3-C4=1.4126         C4-O3=1.4126         C4-C5=1.5342         
C4-H11=1.0911        C4-H12=1.1035        C5-C4=1.5342         C5-N6=1.4546         C5-H13=1.0937        C5-H14=1.0913        
N6-C1=1.4546         N6-C5=1.4546         N6-H15=1.0179        H7-C1=1.0937         H8-C1=1.0913         H9-C2=1.0911         
H10-C2=1.1035        H11-C4=1.0911        H12-C4=1.1035        H13-C5=1.0937        H14-C5=1.0913        H15-N6=1.0179        
 C  H  Rav=1.0949 sigma=0.0051  Rmin=1.0911  Rmax=1.1035     8
 C  C  Rav=1.5342 sigma=0.0000  Rmin=1.5342  Rmax=1.5342     2
 N  H  Rav=1.0179 sigma=0.0000  Rmin=1.0179  Rmax=1.0179     1
 N  C  Rav=1.4546 sigma=0.0000  Rmin=1.4546  Rmax=1.4546     2
 O  C  Rav=1.4126 sigma=0.0000  Rmin=1.4126  Rmax=1.4126     2

 selected bond angles (degree)
 --------------------
N6-C1-C2=111.79                H7-C1-C2=109.21                H7-C1-N6=107.37                H8-C1-C2=110.30                
H8-C1-N6=109.10                H8-C1-H7=108.98                O3-C2-C1=111.18                H9-C2-C1=111.29                
H9-C2-O3=106.04                H10-C2-C1=109.56               H10-C2-O3=109.63               H10-C2-H9=109.08               
C4-O3-C2=111.40                C5-C4-O3=111.18                H11-C4-O3=106.04               H11-C4-C5=111.29               
H12-C4-O3=109.63               H12-C4-C5=109.56               H12-C4-H11=109.08              N6-C5-C4=111.79                
H13-C5-C4=109.21               H13-C5-N6=107.37               H14-C5-C4=110.30               H14-C5-N6=109.10               
H14-C5-H13=108.98              C5-N6-C1=109.72                H15-N6-C1=109.27               H15-N6-C5=109.27               

 selected dihedral angles (degree)
 ---------------------------------
O3-C2-C1-N6= 55.87            O3-C2-C1-H7=297.20            O3-C2-C1-H8=177.45            H9-C2-C1-N6=173.83            
H9-C2-C1-H7= 55.16            H9-C2-C1-H8=295.41            H10-C2-C1-N6=294.55           H10-C2-C1-H7=175.87           
H10-C2-C1-H8= 56.12           C4-O3-C2-C1=302.67            C4-O3-C2-H9=181.58            C4-O3-C2-H10= 63.95           
C5-C4-O3-C2= 57.33            H11-C4-O3-C2=178.42           H12-C4-O3-C2=296.05           N6-C5-C4-O3=304.13            
N6-C5-C4-H11=186.17           N6-C5-C4-H12= 65.45           H13-C5-C4-O3= 62.80           H13-C5-C4-H11=304.84          
H13-C5-C4-H12=184.13          H14-C5-C4-O3=182.55           H14-C5-C4-H11= 64.59          H14-C5-C4-H12=303.88          
C5-N6-C1-C2=306.55            C5-N6-C1-H7= 66.30            C5-N6-C1-H8=184.28            H15-N6-C1-C2= 66.33           
H15-N6-C1-H7=186.09           H15-N6-C1-H8=304.06           C1-N6-C5-C4= 53.45            C1-N6-C5-H13=293.70           
C1-N6-C5-H14=175.72           H15-N6-C5-C4=293.67           H15-N6-C5-H13=173.91          H15-N6-C5-H14= 55.94          
           -------------------------------------------------
          |                Final Singlepoint                |
           -------------------------------------------------

          ...................................................
          :                      SETUP                      :
          :.................................................:
          :  # basis functions                  33          :
          :  # atomic orbitals                  33          :
          :  # shells                           21          :
          :  # electrons                        36          :
          :  max. iterations                   250          :
          :  Hamiltonian                  GFN2-xTB          :
          :  restarted?                      false          :
          :  GBSA solvation                  false          :
          :  PC potential                    false          :
          :  electronic temp.          300.0000000     K    :
          :  accuracy                    1.0000000          :
          :  -> integral cutoff          0.2500000E+02      :
          :  -> integral neglect         0.1000000E-07      :
          :  -> SCF convergence          0.1000000E-05 Eh   :
          :  -> wf. convergence          0.1000000E-03 e    :
          :  Broyden damping             0.4000000          :
          :  net charge                          0          :
          :  unpaired electrons                  0          :
          ...................................................

 iter      E             dE          RMSdq      gap      omega  full diag
   1    -20.3437088 -0.203437E+02  0.102E-05   10.37       0.0  T
   2    -20.3437088 -0.195399E-12  0.537E-06   10.37    4805.8  T
   3    -20.3437088 -0.106581E-13  0.180E-06   10.37   14318.2  T

   *** convergence criteria satisfied after 3 iterations ***

         #    Occupation            Energy/Eh            Energy/eV
      -------------------------------------------------------------
         1        2.0000           -0.7002519             -19.0548
       ...           ...                  ...                  ...
        12        2.0000           -0.4837250             -13.1628
        13        2.0000           -0.4783432             -13.0164
        14        2.0000           -0.4584928             -12.4762
        15        2.0000           -0.4534026             -12.3377
        16        2.0000           -0.4423829             -12.0379
        17        2.0000           -0.4166971             -11.3389
        18        2.0000           -0.3571202              -9.7177 (HOMO)
        19                          0.0238112               0.6479 (LUMO)
        20                          0.0542046               1.4750
        21                          0.0727881               1.9807
        22                          0.0813500               2.2136
        23                          0.1006496               2.7388
       ...                                ...                  ...
        33                          0.2971052               8.0846
      -------------------------------------------------------------
                  HL-Gap            0.3809314 Eh           10.3657 eV
             Fermi-level           -0.1666545 Eh           -4.5349 eV

 SCC (total)                   0 d,  0 h,  0 min,  0.003 sec
 SCC setup                      ...        0 min,  0.000 sec (  1.286%)
 Dispersion                     ...        0 min,  0.000 sec (  0.730%)
 classical contributions        ...        0 min,  0.000 sec (  0.335%)
 integral evaluation            ...        0 min,  0.001 sec ( 19.748%)
 iterations                     ...        0 min,  0.001 sec ( 24.114%)
 molecular gradient             ...        0 min,  0.002 sec ( 52.619%)
 printout                       ...        0 min,  0.000 sec (  0.955%)

         :::::::::::::::::::::::::::::::::::::::::::::::::::::
         ::                     SUMMARY                     ::
         :::::::::::::::::::::::::::::::::::::::::::::::::::::
         :: total energy             -20.134374818623 Eh    ::
         :: gradient norm              0.000022341796 Eh/a0 ::
         :: HOMO-LUMO gap             10.365671098740 eV    ::
         ::.................................................::
         :: SCC energy               -20.343696891271 Eh    ::
         :: -> isotropic ES            0.026521251392 Eh    ::
         :: -> anisotropic ES          0.004266630500 Eh    ::
         :: -> anisotropic XC          0.008955033224 Eh    ::
         :: -> dispersion             -0.008930555919 Eh    ::
         :: repulsion energy           0.209322072649 Eh    ::
         :: add. restraining           0.000000000000 Eh    ::
         :: total charge              -0.000000000000 e     ::
         :::::::::::::::::::::::::::::::::::::::::::::::::::::

           ------------------------------------------------- 
          |                Numerical Hessian                |
           ------------------------------------------------- 
step length          :   0.00500
SCC accuracy         :   0.30000
Hessian scale factor :   1.00000
frozen atoms in %    :   0.00000    0
RMS gradient         :   0.00002
estimated CPU  time      0.01 min
estimated wall time      0.01 min

writing file <hessian>, containing the non-mass-weighted Hessian matrix in atomic units (Eₕ/Bohr²).

 projected vibrational frequencies (cm⁻¹)
eigval :       -0.00    -0.00     0.00     0.00     0.00     0.00
eigval :      226.82   275.94   400.16   439.25   461.25   595.83
eigval :      852.90   865.99   879.39   928.99   939.51  1021.74
eigval :     1021.97  1042.77  1101.62  1136.04  1140.57  1152.91
eigval :     1204.19  1269.64  1275.70  1284.64  1312.69  1320.84
eigval :     1344.47  1402.95  1457.11  1462.42  1463.65  1469.78
eigval :     2831.61  2835.73  2965.01  2968.29  2984.20  2984.87
eigval :     2987.78  2991.52  3331.39
           -------------------------------------------------
          |                Property Printout                |
           -------------------------------------------------

    * Orbital Energies and Occupations

         #    Occupation            Energy/Eh            Energy/eV
      -------------------------------------------------------------
         1        2.0000           -0.7002519             -19.0548
       ...           ...                  ...                  ...
         6        2.0000           -0.5813183             -15.8185
         7        2.0000           -0.5549687             -15.1015
         8        2.0000           -0.5424094             -14.7597
         9        2.0000           -0.5363941             -14.5960
        10        2.0000           -0.5210312             -14.1780
        11        2.0000           -0.5209386             -14.1755
        12        2.0000           -0.4837250             -13.1628
        13        2.0000           -0.4783432             -13.0164
        14        2.0000           -0.4584928             -12.4762
        15        2.0000           -0.4534026             -12.3377
        16        2.0000           -0.4423829             -12.0379
        17        2.0000           -0.4166972             -11.3389
        18        2.0000           -0.3571202              -9.7177 (HOMO)
        19                          0.0238112               0.6479 (LUMO)
        20                          0.0542046               1.4750
        21                          0.0727881               1.9807
        22                          0.0813500               2.2136
        23                          0.1006496               2.7388
        24                          0.1198733               3.2619
        25                          0.1341457               3.6503
        26                          0.1545025               4.2042
        27                          0.1823069               4.9608
        28                          0.1833745               4.9899
        29                          0.1862226               5.0674
       ...                                ...                  ...
        33                          0.2971052               8.0846
      -------------------------------------------------------------
                  HL-Gap            0.3809314 Eh           10.3657 eV
             Fermi-level           -0.1666545 Eh           -4.5349 eV

     #   Z          covCN         q      C6AA      α(0)
     1   6          3.752     0.003    20.594     6.472
     2   6          3.710     0.077    19.426     6.299
     3   8          1.700    -0.320    19.343     5.938
     4   6          3.710     0.077    19.426     6.299
     5   6          3.752     0.003    20.594     6.472
     6   7          2.678    -0.258    26.695     7.674
     7   1          0.924     0.048     2.341     2.393
     8   1          0.924     0.035     2.519     2.482
     9   1          0.924     0.045     2.387     2.416
    10   1          0.923     0.014     2.828     2.630
    11   1          0.924     0.045     2.387     2.416
    12   1          0.923     0.014     2.828     2.630
    13   1          0.924     0.048     2.341     2.393
    14   1          0.924     0.035     2.519     2.482
    15   1          0.860     0.135     1.506     1.922

 Mol. C6AA /au·bohr⁶  :       1704.562474
 Mol. C8AA /au·bohr⁸  :      35452.772936
 Mol. α(0) /au        :         60.916376


Wiberg/Mayer (AO) data.
largest (>0.10) Wiberg bond orders for each atom

 ---------------------------------------------------------------------------
     #   Z sym  total        # sym  WBO       # sym  WBO       # sym  WBO
 ---------------------------------------------------------------------------
     1   6      3.988 --     6      1.016     2      0.987     8      0.975
                             7      0.972
     2   6      3.957 --     1      0.987     3      0.986     9      0.971
                            10      0.966
     3   8      2.074 --     4      0.986     2      0.986
     4   6      3.957 --     5      0.987     3      0.986    11      0.971
                            12      0.966
     5   6      3.988 --     6      1.016     4      0.987    14      0.975
                            13      0.972
     6   7      3.069 --     5      1.016     1      1.016    15      0.957
     7   1      0.998 --     1      0.972
     8   1      0.999 --     1      0.975
     9   1      0.998 --     2      0.971
    10   1      1.000 --     2      0.966
    11   1      0.998 --     4      0.971
    12   1      1.000 --     4      0.966
    13   1      0.998 --     5      0.972
    14   1      0.999 --     5      0.975
    15   1      0.982 --     6      0.957
 ---------------------------------------------------------------------------

Topologies differ in total number of bonds
Writing topology from bond orders to xtbtopo.mol

molecular dipole:
                 x           y           z       tot (Debye)
 q only:       -0.359      -0.000      -0.231
   full:       -0.160      -0.000      -0.538       1.426
molecular quadrupole (traceless):
                xx          xy          yy          xz          yz          zz
 q only:       -4.146      -0.002       3.832      -0.240      -0.000       0.315
  q+dip:       -7.194      -0.003       3.466      -0.129      -0.000       3.728
   full:       -7.205      -0.003       4.416       0.126      -0.000       2.789

           -------------------------------------------------
          |                Geometry Summary                 |
           -------------------------------------------------

      molecular mass/u    :       87.1205185
   center of mass at/Å    :       -0.0000125       0.0000281       0.0000240
  moments of inertia/u·Å² :        0.1019997E+03   0.1098420E+03   0.1867203E+03
rotational constants/cm⁻¹ :        0.1652714E+00   0.1534717E+00   0.9028279E-01

 * 15 selected distances

     #   Z          #   Z                                           value/Å
     1   6          2   6                                         1.5341900
     2   6          3   8                                         1.4126130
     3   8          4   6                                         1.4126130
     4   6          5   6                                         1.5341901 (max)
     1   6          6   7                                         1.4546297
     5   6          6   7                                         1.4546297
     1   6          7   1                                         1.0936652
     1   6          8   1                                         1.0913067
     2   6          9   1                                         1.0910556
     2   6         10   1                                         1.1035480
     4   6         11   1                                         1.0910556
     4   6         12   1                                         1.1035480
     5   6         13   1                                         1.0936653
     5   6         14   1                                         1.0913067
     6   7         15   1                                         1.0178700 (min)

 * 5 distinct bonds (by element types)

   Z      Z             #   av. dist./Å        max./Å        min./Å
   1 H    6 C           8     1.0948939     1.1035480     1.0910556
   6 C    6 C           2     1.5341901     1.5341901     1.5341900
Molecule has the following symmetry elements: (sigma) 
It seems to be the Cs point group
   1 H    7 N           1     1.0178700     1.0178700     1.0178700
   6 C    7 N           2     1.4546297     1.4546297     1.4546297
   6 C    8 O           2     1.4126130     1.4126130     1.4126130

           -------------------------------------------------
          |               Frequency Printout                |
           -------------------------------------------------
 projected vibrational frequencies (cm⁻¹)
eigval :       -0.00    -0.00     0.00     0.00     0.00     0.00
eigval :      226.82   275.94   400.16   439.25   461.25   595.83
eigval :      852.90   865.99   879.39   928.99   939.51  1021.74
eigval :     1021.97  1042.77  1101.62  1136.04  1140.57  1152.91
eigval :     1204.19  1269.64  1275.70  1284.64  1312.69  1320.84
eigval :     1344.47  1402.95  1457.11  1462.42  1463.65  1469.78
eigval :     2831.61  2835.73  2965.01  2968.29  2984.20  2984.87
eigval :     2987.78  2991.52  3331.39
 reduced masses (amu)
    1:      3.22    2:      5.51    3:      4.98    4:      4.63    5:      4.54    6:      4.31
    7:      1.76    8:      2.56    9:      1.80   10:      5.14   11:      2.90   12:      1.53
   13:      1.51   14:      1.46   15:      3.79   16:      2.52   17:      2.10   18:      2.29
   19:      1.47   20:      2.49   21:      5.65   22:      3.04   23:      1.85   24:      1.20
   25:      1.36   26:      1.38   27:      1.32   28:      1.28   29:      1.39   30:      1.21
   31:      1.29   32:      1.21   33:      1.08   34:      1.09   35:      1.08   36:      1.09
   37:      1.07   38:      1.07   39:      1.08   40:      1.07   41:      1.07   42:      1.07
   43:      1.07   44:      1.07   45:      1.07
 IR intensities (km·mol⁻¹)
    1:      0.60    2:      0.10    3:      0.11    4:      0.12    5:      0.15    6:      0.52
    7:      0.33    8:     15.50    9:      6.06   10:      1.31   11:      0.67   12:      1.42
   13:      0.22   14:    140.05   15:      3.01   16:      4.61   17:     30.09   18:     10.79
   19:     11.53   20:      2.13   21:     69.44   22:      5.88   23:     12.85   24:      0.32
   25:     18.02   26:     10.07   27:      9.07   28:      0.03   29:     27.33   30:      8.56
   31:      3.95   32:     18.46   33:      0.55   34:      1.20   35:      0.15   36:      1.34
   37:     10.37   38:    138.62   39:      0.05   40:     72.02   41:     34.91   42:     17.56
   43:      8.75   44:    112.72   45:     17.83
 Raman intensities (Ä⁴*amu⁻¹)
    1:      0.00    2:      0.00    3:      0.00    4:      0.00    5:      0.00    6:      0.00
    7:      0.00    8:      0.00    9:      0.00   10:      0.00   11:      0.00   12:      0.00
   13:      0.00   14:      0.00   15:      0.00   16:      0.00   17:      0.00   18:      0.00
   19:      0.00   20:      0.00   21:      0.00   22:      0.00   23:      0.00   24:      0.00
   25:      0.00   26:      0.00   27:      0.00   28:      0.00   29:      0.00   30:      0.00
   31:      0.00   32:      0.00   33:      0.00   34:      0.00   35:      0.00   36:      0.00
   37:      0.00   38:      0.00   39:      0.00   40:      0.00   41:      0.00   42:      0.00
   43:      0.00   44:      0.00   45:      0.00
 output can be read by thermo (or use thermo option).
 writing <g98.out> molden fake output.
 recommended (thermochemical) frequency scaling factor: 1.0
           -------------------------------------------------
          |             Thermodynamic Functions             |
           -------------------------------------------------

cs  symmetry found (for desy threshold:  0.10E+00) used in thermo

          ...................................................
          :                      SETUP                      :
          :.................................................:
          :  # frequencies                          39      :
          :  # imaginary freq.                       0      :
          :  linear?                             false      :
          :  only rotor calc.                    false      :
          :  symmetry                               cs      :
          :  rotational number                       1      :
          :  scaling factor                  1.0000000      :
          :  rotor cutoff                    0.0000000 cm⁻¹ :
          :  imag. cutoff                 -100.0000000 cm⁻¹ :
          :.................................................:

    mode    ω/cm⁻¹     T·S(HO)/kcal·mol⁻¹    T·S(FR)/kcal·mol⁻¹   T·S(vib)
   ------------------------------------------------------------------------
       1    226.82    -0.56766 (100.00%)    -0.60842 (  0.00%)    -0.56766
       2    275.94    -0.46472 (100.00%)    -0.55038 (  0.00%)    -0.46472
   ------------------------------------------------------------------------

   temp. (K)  partition function   enthalpy   heat capacity  entropy
                                   cal/mol     cal/K/mol   cal/K/mol   J/K/mol
 298.15  VIB   3.66                 1599.947     14.895      7.943
         ROT  0.110E+06              888.727      2.981     26.058
         INT  0.404E+06             2488.674     17.876     34.000
         TR   0.249E+26             1481.212      4.968     39.307
         TOT                        3969.8868    22.8438    73.3071   306.7169

       T/K    H(0)-H(T)+PV         H(T)/Eh          T*S/Eh         G(T)/Eh
   ------------------------------------------------------------------------
    298.15    0.632642E-02    0.137622E+00    0.348306E-01    0.102792E+00
   ------------------------------------------------------------------------

         :::::::::::::::::::::::::::::::::::::::::::::::::::::
         ::                  THERMODYNAMIC                  ::
         :::::::::::::::::::::::::::::::::::::::::::::::::::::
         :: total free energy         -20.031583281748 Eh   ::
         ::.................................................::
         :: total energy              -20.134374818623 Eh   ::
         :: zero point energy           0.131295691314 Eh   ::
         :: G(RRHO) w/o ZPVE           -0.028504154439 Eh   ::
         :: G(RRHO) contrib.            0.102791536875 Eh   ::
         :::::::::::::::::::::::::::::::::::::::::::::::::::::

optimized geometry written to: xtbopt.coord


           -------------------------------------------------
          | TOTAL ENERGY              -20.134374818623 Eh   |
          | TOTAL ENTHALPY            -19.996752709996 Eh   |
          | TOTAL FREE ENERGY         -20.031583281748 Eh   |
          | GRADIENT NORM               0.000022345820 Eh/α |
          | HOMO-LUMO GAP              10.365671227657 eV   |
           -------------------------------------------------

------------------------------------------------------------------------
 * finished run on 2025/04/08 at 23:32:58.541     
------------------------------------------------------------------------
 total:
 * wall-time:     0 d,  0 h,  0 min,  0.356 sec
 *  cpu-time:     0 d,  0 h,  0 min,  0.352 sec
 * ratio c/w:     0.990 speedup
 SCF:
 * wall-time:     0 d,  0 h,  0 min,  0.005 sec
 *  cpu-time:     0 d,  0 h,  0 min,  0.005 sec
 * ratio c/w:     0.993 speedup
 ANC optimizer:
 * wall-time:     0 d,  0 h,  0 min,  0.031 sec
 *  cpu-time:     0 d,  0 h,  0 min,  0.031 sec
 * ratio c/w:     0.994 speedup
 analytical hessian:
 * wall-time:     0 d,  0 h,  0 min,  0.316 sec
 *  cpu-time:     0 d,  0 h,  0 min,  0.312 sec
 * ratio c/w:     0.989 speedup

