15
 energy: -20.133355632601 gnorm: 0.025611454126 xtb: 6.7.1 (41059b4)
C           -0.73394156047983       -1.20333758309224        0.22448647747429
C            0.72551595912519       -1.17606054113714       -0.21663477515133
O            1.38250147891195        0.00037769199022        0.25674830351351
C            0.72491983077476        1.17648382123549       -0.21663393760109
C           -0.73456392608027        1.20301778694764        0.22445479532284
N           -1.47275180788233       -0.00035698627950       -0.18714330878774
H           -0.77592337596469       -1.26660655149755        1.32021822330621
H           -1.23625334097427       -2.09135949561135       -0.17866370225640
H            1.28490177482793       -2.02466075028112        0.19200626977112
H            0.78620215899013       -1.21669672160140       -1.32024334029414
H            1.28386091061426        2.02536482875512        0.19203344708871
H            0.78561237724108        1.21716715814677       -1.32023972765759
H           -0.77660730747230        1.26631292686526        1.32018216861281
H           -1.23732053217680        2.09076404253257       -0.17874754458492
H           -1.54915987205786       -0.00039081351551       -1.20169310215088
15
 energy: -20.134230449506 gnorm: 0.011648303415 xtb: 6.7.1 (41059b4)
C           -0.73499879546040       -1.19466263776038        0.23086763198091
C            0.72533018558689       -1.16814661075523       -0.22038420950088
O            1.38362186674969        0.00037962326901        0.24205134585494
C            0.72473560986913        1.16856964935783       -0.22038780343264
C           -0.73561614315087        1.19434375227167        0.23083952568898
N           -1.45989549894339       -0.00035198405720       -0.19273862079304
H           -0.78158119531271       -1.23470411811578        1.32465922228769
H           -1.24267553551887       -2.07423683521686       -0.17362248219125
H            1.28443951231658       -2.00921133656291        0.19501579824769
H            0.78392869921533       -1.20767558491415       -1.32193255372574
H            1.28340631823229        2.00991797015983        0.19502824507944
H            0.78333362383082        1.20813616974011       -1.32193447614650
H           -0.78224054240027        1.23440045296080        1.32462866299014
H           -1.24373619274749        2.07364308066793       -0.17369168047040
H           -1.53105914486978       -0.00038277758744       -1.20826835926394
15
 energy: -20.134361922163 gnorm: 0.003167428502 xtb: 6.7.1 (41059b4)
C           -0.73709528812600       -1.19083982764555        0.23060036560647
C            0.72683097754389       -1.16694024490917       -0.21939301675602
O            1.38219470677775        0.00038158027556        0.23490006218620
C            0.72623486041605        1.16736497322623       -0.21940203419355
C           -0.73770903620212        1.19052014978206        0.23057661105159
N           -1.45499234070777       -0.00034919001159       -0.19953159289772
H           -0.77911264377497       -1.21868136269208        1.32303731196162
H           -1.24306621059403       -2.07168273028322       -0.16805335415955
H            1.28491246769762       -2.00574907139999        0.19908349745905
H            0.77714044828518       -1.21154345720052       -1.32022951393668
H            1.28388148304017        2.00646060410570        0.19907892417739
H            0.77653298741695        1.21199188367599       -1.32023802874182
H           -0.77975365881644        1.21837023400590        1.32301266599042
H           -1.24412695314880        2.07109289287660       -0.16810681772866
H           -1.52487903241052       -0.00037762034866       -1.21520483341334
15
 energy: -20.134373630102 gnorm: 0.000812673140 xtb: 6.7.1 (41059b4)
C           -0.73822792887771       -1.19001982588558        0.23079114020826
C            0.72745825510845       -1.16685173824274       -0.21965693978138
O            1.38184757996890        0.00038279328891        0.23328391508573
C            0.72686084772433        1.16727726641227       -0.21966933172897
C           -0.73884032019442        1.18969989512068        0.23077007555171
N           -1.45456412975377       -0.00034808467912       -0.20232084894815
H           -0.77917676654460       -1.21553353746861        1.32326647046032
H           -1.24252099237497       -2.07306065094635       -0.16475453205429
H            1.28455936016452       -2.00575186723493        0.19980915429945
H            0.77665132875715       -1.21496952755028       -1.32082280034353
H            1.28352868972854        2.00646614160186        0.19979412171085
H            0.77603575127650        1.21541237193192       -1.32083519660827
H           -0.77980984257269        1.21521699789993        1.32324485087222
H           -1.24358364131858        2.07247345037231       -0.16479833186847
H           -1.52322542369469       -0.00037487116305       -1.21797150025010
15
 energy: -20.134374600639 gnorm: 0.000345294340 xtb: 6.7.1 (41059b4)
C           -0.73882839183373       -1.18953739827604        0.23061333682758
C            0.72795106766062       -1.16678857936252       -0.21961083983472
O            1.38246171698227        0.00038424052338        0.23277575507733
C            0.72735250880249        1.16721504837503       -0.21962644299725
C           -0.73943954039044        1.18921742226718        0.23059473559971
N           -1.45546149024725       -0.00034739627059       -0.20318197819589
H           -0.77913236983126       -1.21480761148221        1.32324660474115
H           -1.24223390883994       -2.07399141323944       -0.16352118331745
H            1.28426687645821       -2.00637589366343        0.20002306787801
H            0.77680164912005       -1.21642605803826       -1.32104956523559
H            1.28323636284777        2.00709305732182        0.19999818466019
H            0.77617958651838        1.21686408917836       -1.32106566949908
H           -0.77975888918439        1.21448570841870        1.32322753577689
H           -1.24329811951300        2.07340630949072       -0.16355584023454
H           -1.52310429115283       -0.00037271178546       -1.21873745464094
15
 energy: -20.134374816450 gnorm: 0.000039989292 xtb: 6.7.1 (41059b4)
C           -0.73865223797611       -1.18969572502849        0.23071352617494
C            0.72776429704929       -1.16672871279816       -0.21965974856255
O            1.38235295058065        0.00038428661625        0.23299021187950
C            0.72716563596767        1.16715511534556       -0.21967557958401
C           -0.73926342403742        1.18937593224624        0.23069509196515
N           -1.45525669046144       -0.00034726346925       -0.20278665066811
H           -0.77915442737514       -1.21528881836850        1.32334299792917
H           -1.24216964997504       -2.07380038048498       -0.16401314938404
H            1.28408217329376       -2.00631865210082        0.19988365037481
H            0.77681021478835       -1.21575548174007       -1.32104134487814
H            1.28305165282736        2.00703587630943        0.19985813416809
H            0.77618817260672        1.21619317655098       -1.32105771495766
H           -0.77978078683238        1.21496652940208        1.32332410320246
H           -1.24323386415483        2.07321546716220       -0.16404720303082
H           -1.52291124890450       -0.00037253618523       -1.21839607802342
15
 energy: -20.134374818616 gnorm: 0.000022359252 xtb: 6.7.1 (41059b4)
C           -0.73864747642109       -1.18965690762167        0.23069666835358
C            0.72778399530447       -1.16671389687879       -0.21962647403320
O            1.38236340773763        0.00038452201399        0.23301268721485
C            0.72718512565064        1.16714045527202       -0.21964286811242
C           -0.73925845169958        1.18933716812739        0.23067866716059
N           -1.45530105395551       -0.00034712121140       -0.20277442519637
H           -0.77915279494149       -1.21523872410176        1.32331202167217
H           -1.24219617294774       -2.07372604335225       -0.16403173170647
H            1.28414652939160       -2.00629618638218        0.19985475072552
H            0.77678100262154       -1.21569481395887       -1.32099745351011
H            1.28311611471619        2.00701397277771        0.19982750241417
H            0.77615796726615        1.21613162877495       -1.32101446579327
H           -0.77977803376526        1.21491548280779        1.32329360447742
H           -1.24326053337129        2.07314147443305       -0.16406418429636
H           -1.52294685818932       -0.00037219724274       -1.21839405276473
