 Entering Gaussian System
 *********************************************
 Gaussian 98:
 frequency output generated by the xtb code
 *********************************************
                         Standard orientation:
 --------------------------------------------------------------------
  Center     Atomic     Atomic              Coordinates (Angstroms)
  Number     Number      Type              X           Y           Z
 --------------------------------------------------------------------
    1          6             0        0.851119    1.371107   -0.637280
    2          6             0        1.588232    0.162552   -0.048695
    3          1             0        2.568627    0.063300   -0.537488
    4          6             0        0.776172   -1.112249   -0.331719
    5          1             0        1.218325   -1.936233    0.250758
    6          6             0       -0.679865   -0.916979    0.130902
    7          1             0       -1.301454   -1.751677   -0.217524
    8          6             0       -1.265599    0.393950   -0.450920
    9          1             0       -1.333216    0.326523   -1.548410
   10          8             0       -0.438236    1.488760   -0.094647
   11          8             0       -2.530990    0.616602    0.034548
   12          8             0       -0.787964   -0.901025    1.529720
   13          8             0        0.865086   -1.361000   -1.712890
   14          8             0        1.735822    0.271993    1.351715
   15          1             0        0.808580    1.258617   -1.729080
   16          1             0        1.367861    2.301128   -0.385679
   17          1             0       -2.500219    0.473501    0.993736
   18          1             0       -0.063234   -0.349892    1.868834
   19          1             0        0.397804   -2.179270   -1.914960
   20          1             0        2.064204    1.153778    1.562142
 --------------------------------------------------------------------
     1 basis functions        1 primitive gaussians
     1 alpha electrons        1 beta electrons

 Harmonic frequencies (cm**-1), IR intensities (km*mol⁻¹),
 Raman scattering activities (A**4/amu), Raman depolarization ratios,
 reduced masses (AMU), force constants (mDyne/A) and normal coordinates:
                      1                      2                      3
                        a                      a                      a 
 Frequencies --    88.1610               139.5493               192.5176
 Red. masses --     4.3647                 4.6799                 3.9141
 Frc consts  --     0.0000                 0.0000                 0.0000
 IR Inten    --     1.7068                 0.0706                23.3959
 Raman Activ --     0.0000                 0.0000                 0.0000
 Depolar     --     0.0000                 0.0000                 0.0000
 Atom AN      X      Y      Z        X      Y      Z        X      Y      Z
   1   6     0.06  -0.10  -0.24    -0.12   0.15   0.08     0.00  -0.06   0.06
   2   6    -0.01  -0.01   0.03    -0.03   0.09  -0.14    -0.00  -0.06   0.12
   3   1     0.03  -0.01   0.08    -0.03   0.03  -0.10    -0.01  -0.01   0.02
   4   6     0.03  -0.02  -0.02     0.00   0.03   0.03    -0.00  -0.01  -0.01
   5   1    -0.01  -0.00   0.01    -0.02   0.07   0.11    -0.03  -0.02  -0.00
   6   6    -0.00  -0.02  -0.12    -0.07   0.07  -0.18    -0.02   0.05  -0.12
   7   1    -0.00   0.01  -0.08    -0.01   0.03  -0.09     0.00  -0.01   0.02
   8   6    -0.01   0.08   0.07    -0.07   0.15   0.03    -0.16  -0.04  -0.13
   9   1    -0.09   0.03   0.02    -0.03   0.10   0.00    -0.14  -0.01  -0.03
  10   8     0.13   0.06  -0.17    -0.07   0.09   0.25    -0.16   0.00  -0.34
  11   8     0.16   0.16   0.51    -0.08   0.07   0.11    -0.00  -0.17   0.40
  12   8    -0.10  -0.28  -0.14    -0.20  -0.11  -0.21    -0.07   0.45  -0.13
  13   8     0.20  -0.05  -0.00     0.34  -0.51   0.17     0.22   0.12  -0.02
  14   8    -0.41   0.21   0.07     0.26  -0.00  -0.18     0.09  -0.25   0.14
  15   1    -0.00  -0.10  -0.06    -0.07   0.08   0.02     0.08  -0.02   0.01
  16   1     0.03  -0.02  -0.14    -0.03   0.03   0.04    -0.02  -0.01   0.05
  17   1     0.10  -0.04   0.11    -0.02  -0.05   0.02     0.10  -0.14   0.09
  18   1    -0.02  -0.09  -0.00    -0.09   0.00  -0.02    -0.01   0.13  -0.06
  19   1     0.07  -0.02  -0.01     0.12  -0.16   0.10     0.02   0.06  -0.05
  20   1    -0.25   0.11   0.01     0.17  -0.04  -0.05     0.28  -0.16   0.04
                      4                      5                      6
                        a                      a                      a 
 Frequencies --   221.3067               246.5367               263.6168
 Red. masses --     2.9886                 3.3313                 3.2148
 Frc consts  --     0.0000                 0.0000                 0.0000
 IR Inten    --     5.1834                21.7855                34.3207
 Raman Activ --     0.0000                 0.0000                 0.0000
 Depolar     --     0.0000                 0.0000                 0.0000
 Atom AN      X      Y      Z        X      Y      Z        X      Y      Z
   1   6    -0.04   0.08   0.12    -0.05   0.11   0.04    -0.11  -0.28  -0.04
   2   6    -0.07  -0.02  -0.05    -0.11   0.05   0.04    -0.01  -0.15   0.08
   3   1     0.00   0.04   0.03    -0.03   0.04   0.01    -0.02  -0.06  -0.02
   4   6     0.02  -0.06  -0.15    -0.03   0.02  -0.03    -0.10  -0.08   0.00
   5   1     0.00   0.00  -0.01    -0.01   0.02   0.02    -0.08  -0.05  -0.01
   6   6     0.07   0.09  -0.05    -0.01   0.01   0.08    -0.16  -0.03  -0.05
   7   1    -0.01   0.03   0.05    -0.02   0.01   0.03    -0.05  -0.02   0.03
   8   6     0.02   0.07  -0.01    -0.08   0.00   0.02    -0.20  -0.01   0.02
   9   1     0.02   0.06  -0.00    -0.04  -0.09   0.01    -0.06   0.02   0.00
  10   8    -0.02   0.07   0.20    -0.21   0.19  -0.37    -0.05  -0.20   0.14
  11   8    -0.00  -0.11  -0.00    -0.10   0.27  -0.06    -0.22   0.27  -0.06
  12   8     0.36   0.41  -0.03     0.42  -0.32   0.13     0.16   0.10  -0.02
  13   8     0.06  -0.32  -0.11     0.15  -0.12   0.02     0.37   0.23  -0.02
  14   8    -0.33  -0.23   0.01    -0.12  -0.21   0.08     0.33   0.07   0.03
  15   1    -0.02   0.07   0.03     0.07   0.05   0.01    -0.08  -0.15  -0.00
  16   1     0.01   0.00   0.07    -0.03   0.03   0.07    -0.02  -0.06  -0.10
  17   1     0.00  -0.06  -0.01    -0.00   0.33   0.02    -0.06   0.18   0.00
  18   1     0.19   0.02  -0.07     0.15  -0.14   0.02     0.11  -0.03  -0.06
  19   1     0.04  -0.10   0.01     0.06  -0.05   0.02     0.19   0.02  -0.09
  20   1    -0.45   0.06   0.08     0.21  -0.15   0.05    -0.27   0.16  -0.03
                      7                      8                      9
                        a                      a                      a 
 Frequencies --   280.6583               302.3361               351.0444
 Red. masses --     2.0622                 1.1206                 2.5571
 Frc consts  --     0.0000                 0.0000                 0.0000
 IR Inten    --    26.2760               167.2321                19.3191
 Raman Activ --     0.0000                 0.0000                 0.0000
 Depolar     --     0.0000                 0.0000                 0.0000
 Atom AN      X      Y      Z        X      Y      Z        X      Y      Z
   1   6    -0.06  -0.11  -0.10     0.02   0.03  -0.01     0.06   0.18   0.23
   2   6    -0.05  -0.06  -0.02     0.00   0.02  -0.02     0.02   0.07  -0.05
   3   1     0.01  -0.03   0.04     0.01   0.01   0.00     0.01   0.01  -0.00
   4   6    -0.02  -0.06  -0.07     0.00   0.03  -0.03     0.03   0.01  -0.05
   5   1    -0.02  -0.03  -0.02     0.03   0.02  -0.03     0.05   0.02  -0.01
   6   6    -0.02  -0.03  -0.01    -0.01  -0.03   0.05    -0.02  -0.23  -0.05
   7   1    -0.02  -0.02   0.04     0.01  -0.02   0.02     0.04  -0.11   0.03
   8   6     0.02   0.01   0.08     0.02  -0.06   0.00    -0.04  -0.28  -0.14
   9   1     0.03   0.05   0.02     0.01  -0.03   0.00    -0.06  -0.08  -0.03
  10   8     0.12  -0.16   0.34     0.03  -0.06   0.00    -0.06  -0.43   0.01
  11   8    -0.03   0.08  -0.07     0.05   0.05   0.02     0.17   0.31   0.13
  12   8     0.20   0.11  -0.01    -0.07   0.05   0.06    -0.08   0.11  -0.07
  13   8     0.18   0.01  -0.09    -0.19   0.15  -0.09    -0.05  -0.09  -0.05
  14   8    -0.45   0.18  -0.02    -0.07  -0.06  -0.01    -0.04   0.18  -0.05
  15   1    -0.11  -0.06  -0.02     0.01   0.01  -0.00     0.11   0.24   0.04
  16   1     0.00  -0.03  -0.09    -0.00   0.01   0.00    -0.06   0.04   0.27
  17   1    -0.03   0.05  -0.01     0.01  -0.01   0.00     0.15   0.33   0.06
  18   1    -0.08   0.24  -0.06    -0.07   0.09   0.01    -0.05   0.09  -0.05
  19   1    -0.04   0.06  -0.07     0.79  -0.47   0.12    -0.10   0.02   0.00
  20   1     0.55  -0.19  -0.07     0.07  -0.05   0.01    -0.07   0.07  -0.02
                     10                     11                     12
                        a                      a                      a 
 Frequencies --   373.6269               420.3723               444.6742
 Red. masses --     4.9618                 2.5863                 1.4844
 Frc consts  --     0.0000                 0.0000                 0.0000
 IR Inten    --    13.0259                24.0284                76.2227
 Raman Activ --     0.0000                 0.0000                 0.0000
 Depolar     --     0.0000                 0.0000                 0.0000
 Atom AN      X      Y      Z        X      Y      Z        X      Y      Z
   1   6    -0.10   0.06  -0.19     0.15   0.12   0.15    -0.06  -0.04   0.01
   2   6     0.02   0.12  -0.22    -0.21  -0.22  -0.13    -0.09  -0.08   0.01
   3   1     0.01   0.07  -0.07    -0.08  -0.14  -0.07    -0.03  -0.02  -0.01
   4   6     0.13   0.08   0.01    -0.26  -0.21   0.01    -0.02  -0.12   0.01
   5   1     0.08   0.05   0.01    -0.08  -0.07  -0.01    -0.00  -0.05  -0.02
   6   6     0.08  -0.04   0.22    -0.18  -0.06   0.13     0.03   0.02  -0.05
   7   1     0.06  -0.03   0.06    -0.13   0.03   0.06    -0.04   0.05  -0.04
   8   6     0.05  -0.10   0.11     0.10   0.01   0.04     0.14   0.08   0.01
   9   1     0.03  -0.06   0.03     0.06  -0.03   0.01     0.02   0.04   0.00
  10   8    -0.00  -0.06   0.04     0.05   0.15  -0.11    -0.02   0.17   0.11
  11   8     0.05   0.10  -0.02     0.09  -0.11   0.00     0.11  -0.39   0.01
  12   8    -0.35   0.10   0.25    -0.04  -0.02   0.21    -0.19   0.13  -0.07
  13   8     0.34   0.15   0.04     0.30   0.13  -0.02    -0.01   0.03  -0.03
  14   8    -0.15  -0.44  -0.25    -0.06   0.19  -0.26    -0.00   0.10  -0.01
  15   1    -0.08  -0.02  -0.05     0.12   0.25   0.02    -0.06  -0.04   0.01
  16   1    -0.04   0.03  -0.11     0.09  -0.05   0.26     0.03  -0.03  -0.04
  17   1     0.00   0.13   0.01    -0.02  -0.23  -0.03     0.24   0.67   0.11
  18   1    -0.08  -0.01   0.11     0.03  -0.04   0.03     0.17  -0.28   0.03
  19   1    -0.04   0.12  -0.06     0.10   0.05  -0.15     0.06  -0.03  -0.03
  20   1    -0.14  -0.11   0.07    -0.01   0.07  -0.16     0.09   0.01  -0.05
                     13                     14                     15
                        a                      a                      a 
 Frequencies --   479.4775               497.9487               520.8166
 Red. masses --     1.4066                 4.5837                 3.3604
 Frc consts  --     0.0000                 0.0000                 0.0000
 IR Inten    --   198.8231                14.7074                82.9370
 Raman Activ --     0.0000                 0.0000                 0.0000
 Depolar     --     0.0000                 0.0000                 0.0000
 Atom AN      X      Y      Z        X      Y      Z        X      Y      Z
   1   6     0.10  -0.05   0.08     0.38   0.06  -0.06    -0.01   0.08  -0.11
   2   6     0.09  -0.11   0.02     0.27   0.03  -0.11    -0.16   0.03  -0.06
   3   1     0.03  -0.00   0.01     0.09  -0.07   0.02    -0.07  -0.06  -0.06
   4   6     0.10  -0.08  -0.11    -0.07   0.25   0.01    -0.20   0.06   0.26
   5   1     0.00  -0.04  -0.05    -0.06   0.08   0.05    -0.06   0.05   0.13
   6   6     0.08   0.07   0.07    -0.12   0.14  -0.01    -0.13  -0.03  -0.13
   7   1     0.01   0.03   0.03     0.01   0.01  -0.01    -0.05   0.00  -0.03
   8   6    -0.05   0.07   0.13    -0.25   0.04   0.05     0.09   0.00  -0.13
   9   1    -0.04  -0.01   0.04    -0.11   0.03   0.02     0.02   0.04  -0.04
  10   8    -0.02   0.21  -0.09     0.31  -0.23  -0.02     0.06  -0.03   0.05
  11   8    -0.20  -0.15   0.02    -0.44  -0.25   0.04     0.17  -0.14   0.01
  12   8    -0.03  -0.13   0.06     0.01  -0.00   0.02     0.30  -0.12  -0.20
  13   8     0.05  -0.09  -0.20     0.02   0.02   0.11    -0.07   0.24   0.45
  14   8     0.05   0.02   0.01    -0.14  -0.02  -0.10    -0.03  -0.21  -0.14
  15   1     0.06   0.02   0.02     0.15   0.11  -0.03    -0.03   0.02  -0.03
  16   1     0.05  -0.03   0.06     0.05   0.02   0.09     0.01   0.02  -0.04
  17   1    -0.04   0.30   0.05    -0.08   0.13   0.04     0.13   0.13   0.03
  18   1    -0.47   0.57   0.01     0.12  -0.16   0.01    -0.14   0.32  -0.14
  19   1    -0.02  -0.00  -0.04     0.02  -0.01   0.06     0.01   0.05   0.07
  20   1    -0.16   0.08  -0.02     0.02  -0.04   0.02    -0.13  -0.02   0.03
                     16                     17                     18
                        a                      a                      a 
 Frequencies --   588.9955               698.4164               805.3719
 Red. masses --     5.2898                 4.6004                 4.2981
 Frc consts  --     0.0000                 0.0000                 0.0000
 IR Inten    --    39.7081                10.9973                30.2808
 Raman Activ --     0.0000                 0.0000                 0.0000
 Depolar     --     0.0000                 0.0000                 0.0000
 Atom AN      X      Y      Z        X      Y      Z        X      Y      Z
   1   6    -0.08  -0.21   0.18     0.12   0.24  -0.17    -0.01   0.28  -0.26
   2   6     0.17  -0.24  -0.14    -0.15   0.07   0.03    -0.07   0.02   0.00
   3   1     0.05   0.02  -0.05    -0.04   0.00   0.01     0.00   0.04   0.04
   4   6     0.35  -0.23   0.22     0.12  -0.25   0.08     0.18  -0.40   0.10
   5   1     0.08  -0.09   0.03     0.14  -0.04  -0.01     0.09  -0.12  -0.03
   6   6     0.31   0.09  -0.06     0.01  -0.50  -0.08     0.02  -0.01   0.04
   7   1     0.13   0.01  -0.07    -0.00  -0.13  -0.02    -0.03  -0.00   0.07
   8   6    -0.10   0.09  -0.02     0.00  -0.11   0.35    -0.19   0.24  -0.48
   9   1    -0.05   0.04  -0.01    -0.01  -0.00   0.10    -0.09   0.17  -0.13
  10   8    -0.17   0.08  -0.02     0.15   0.23  -0.03     0.11  -0.08   0.13
  11   8    -0.14   0.15   0.01    -0.23   0.06  -0.01    -0.14  -0.00   0.05
  12   8     0.02   0.01  -0.15    -0.03   0.17  -0.24     0.02  -0.09   0.24
  13   8    -0.13   0.20   0.26    -0.06   0.04   0.06    -0.02   0.01  -0.05
  14   8    -0.19   0.03  -0.28     0.06  -0.02   0.08     0.07  -0.02   0.15
  15   1     0.00   0.08   0.04     0.04   0.06  -0.05    -0.03   0.15  -0.08
  16   1     0.02  -0.11   0.18     0.07   0.05  -0.05    -0.00   0.06  -0.01
  17   1    -0.06  -0.03  -0.01    -0.22   0.03   0.00     0.17  -0.03   0.00
  18   1     0.03  -0.07   0.02     0.08  -0.00  -0.17    -0.02   0.00   0.08
  19   1     0.04   0.01   0.04     0.00   0.01  -0.03     0.02   0.01  -0.10
  20   1     0.01  -0.01  -0.10     0.01  -0.01   0.04     0.00  -0.01   0.06
                     19                     20                     21
                        a                      a                      a 
 Frequencies --   845.7237               870.8700               943.7647
 Red. masses --     3.8812                 2.9676                 2.6216
 Frc consts  --     0.0000                 0.0000                 0.0000
 IR Inten    --    21.8863                 6.4751                34.9483
 Raman Activ --     0.0000                 0.0000                 0.0000
 Depolar     --     0.0000                 0.0000                 0.0000
 Atom AN      X      Y      Z        X      Y      Z        X      Y      Z
   1   6    -0.10   0.04  -0.24    -0.13   0.23  -0.19     0.12   0.28  -0.12
   2   6    -0.44  -0.06   0.05     0.53  -0.06  -0.09     0.08  -0.32  -0.00
   3   1    -0.13  -0.03   0.01     0.18  -0.02   0.06     0.02  -0.32   0.05
   4   6    -0.02  -0.03   0.00    -0.07  -0.27   0.05    -0.20   0.14  -0.04
   5   1    -0.04  -0.02   0.01    -0.19  -0.16   0.02    -0.16  -0.02  -0.00
   6   6     0.34   0.41   0.00    -0.19   0.18  -0.02     0.29   0.03   0.04
   7   1     0.09   0.14  -0.06    -0.16   0.15  -0.05     0.26  -0.14   0.04
   8   6     0.10  -0.03   0.22     0.15  -0.05   0.23    -0.19  -0.32  -0.13
   9   1    -0.01  -0.08   0.06     0.06  -0.10   0.06    -0.01  -0.10  -0.03
  10   8     0.12  -0.33  -0.06    -0.22  -0.09  -0.03    -0.15   0.24   0.20
  11   8    -0.04   0.01  -0.00     0.10  -0.01  -0.02     0.01   0.07   0.00
  12   8    -0.01   0.01  -0.17     0.01   0.00  -0.09    -0.01   0.00  -0.08
  13   8    -0.00   0.00  -0.01    -0.02   0.01   0.03     0.02  -0.01   0.03
  14   8     0.10  -0.03   0.15    -0.01   0.01   0.14    -0.00  -0.01   0.10
  15   1     0.07   0.21  -0.09    -0.08   0.16  -0.06    -0.12   0.02  -0.02
  16   1    -0.04  -0.04   0.17    -0.17   0.12   0.02     0.11   0.06  -0.16
  17   1    -0.14   0.03   0.00    -0.07   0.01  -0.00     0.07  -0.02  -0.00
  18   1    -0.07  -0.03   0.14     0.02   0.01  -0.07    -0.03  -0.04   0.11
  19   1     0.01  -0.00  -0.01     0.04   0.01  -0.13     0.01  -0.00  -0.00
  20   1     0.00   0.02  -0.04    -0.01  -0.01   0.12    -0.00   0.04  -0.14
                     22                     23                     24
                        a                      a                      a 
 Frequencies --   968.6444              1037.7619              1069.5502
 Red. masses --     2.1360                 2.5950                 2.0370
 Frc consts  --     0.0000                 0.0000                 0.0000
 IR Inten    --     6.2654                75.8104                 6.0406
 Raman Activ --     0.0000                 0.0000                 0.0000
 Depolar     --     0.0000                 0.0000                 0.0000
 Atom AN      X      Y      Z        X      Y      Z        X      Y      Z
   1   6     0.24   0.26   0.31     0.10   0.16  -0.05     0.17   0.07  -0.12
   2   6    -0.09   0.17   0.16     0.00  -0.21   0.14    -0.13  -0.16   0.11
   3   1    -0.05   0.06  -0.02    -0.00  -0.32   0.08     0.01  -0.04   0.10
   4   6    -0.04  -0.30   0.06     0.01   0.13  -0.04     0.42   0.05  -0.03
   5   1    -0.03  -0.08   0.03     0.13   0.07  -0.05     0.23   0.05  -0.06
   6   6     0.10   0.22   0.03     0.10  -0.22  -0.14    -0.35   0.20   0.08
   7   1    -0.06   0.11   0.02    -0.00  -0.01  -0.08    -0.29   0.21  -0.00
   8   6     0.03  -0.11  -0.02     0.26   0.42   0.08    -0.02  -0.19  -0.03
   9   1    -0.02  -0.10   0.00    -0.03   0.20   0.01     0.10  -0.22  -0.00
  10   8     0.01  -0.16  -0.05    -0.31  -0.26  -0.09    -0.16   0.02   0.13
  11   8    -0.09   0.02   0.04    -0.04  -0.02   0.01    -0.02   0.02   0.03
  12   8     0.01  -0.01  -0.10    -0.01   0.03   0.18     0.01  -0.02  -0.08
  13   8    -0.03  -0.01  -0.00     0.02   0.01   0.02     0.03   0.06  -0.05
  14   8    -0.04  -0.00  -0.28    -0.02  -0.04  -0.06     0.01  -0.05  -0.04
  15   1     0.02  -0.40   0.12     0.03  -0.08   0.00    -0.01   0.03  -0.02
  16   1    -0.04   0.23  -0.34    -0.20   0.18  -0.07     0.15  -0.04  -0.04
  17   1    -0.04  -0.00   0.01    -0.09   0.02   0.00     0.07  -0.03   0.00
  18   1    -0.03  -0.03   0.09     0.01   0.02  -0.00     0.03  -0.00  -0.08
  19   1     0.04   0.01  -0.17    -0.02  -0.02   0.15    -0.08  -0.02   0.32
  20   1    -0.00  -0.00  -0.06    -0.02   0.04  -0.20     0.00   0.03  -0.21
                     25                     26                     27
                        a                      a                      a 
 Frequencies --  1088.6777              1097.1371              1113.4612
 Red. masses --     3.1482                 3.7313                 3.5496
 Frc consts  --     0.0000                 0.0000                 0.0000
 IR Inten    --    93.6885                30.3681               167.1470
 Raman Activ --     0.0000                 0.0000                 0.0000
 Depolar     --     0.0000                 0.0000                 0.0000
 Atom AN      X      Y      Z        X      Y      Z        X      Y      Z
   1   6    -0.20   0.14   0.02    -0.32   0.14   0.24    -0.28   0.04  -0.09
   2   6    -0.01  -0.10   0.24     0.05  -0.20  -0.23     0.11  -0.03   0.47
   3   1     0.03   0.15   0.09     0.01   0.03  -0.07     0.05   0.01   0.14
   4   6     0.15  -0.02  -0.12     0.02   0.01  -0.33    -0.04   0.11   0.24
   5   1    -0.21  -0.13  -0.03     0.10   0.02  -0.12    -0.13  -0.11  -0.05
   6   6    -0.08   0.07  -0.40    -0.03  -0.04   0.19    -0.03  -0.08   0.27
   7   1     0.07  -0.02  -0.15    -0.09   0.02   0.13     0.07  -0.11   0.14
   8   6    -0.24  -0.18   0.12     0.06   0.05  -0.07     0.04   0.07  -0.05
   9   1    -0.20   0.12   0.03     0.07  -0.04  -0.02     0.16  -0.03  -0.01
  10   8     0.25   0.06  -0.06     0.37  -0.03  -0.19     0.20   0.06  -0.02
  11   8     0.24  -0.05  -0.10    -0.13  -0.01   0.05    -0.10   0.00   0.04
  12   8    -0.01   0.01   0.36    -0.01  -0.01  -0.15     0.02  -0.00  -0.25
  13   8    -0.02   0.03   0.09     0.02   0.05   0.27     0.03  -0.04  -0.22
  14   8    -0.01  -0.05  -0.13    -0.02  -0.01   0.25    -0.01  -0.06  -0.34
  15   1     0.01   0.01   0.00    -0.14  -0.05   0.06     0.08   0.07  -0.03
  16   1    -0.06   0.05  -0.01    -0.15   0.12  -0.09    -0.20   0.05   0.12
  17   1    -0.13   0.03  -0.01     0.03  -0.00   0.01     0.10  -0.02   0.00
  18   1     0.02   0.03  -0.02    -0.02  -0.01   0.03    -0.01  -0.03   0.02
  19   1    -0.03  -0.01   0.12    -0.01   0.01   0.12    -0.03  -0.03   0.09
  20   1     0.00   0.03  -0.21     0.00   0.07  -0.24    -0.02   0.00  -0.11
                     28                     29                     30
                        a                      a                      a 
 Frequencies --  1118.5413              1135.4615              1175.4219
 Red. masses --     3.1084                 2.1527                 1.1766
 Frc consts  --     0.0000                 0.0000                 0.0000
 IR Inten    --    34.2320               151.9714               156.0464
 Raman Activ --     0.0000                 0.0000                 0.0000
 Depolar     --     0.0000                 0.0000                 0.0000
 Atom AN      X      Y      Z        X      Y      Z        X      Y      Z
   1   6    -0.15   0.10   0.18     0.07  -0.02  -0.03     0.12  -0.03  -0.08
   2   6    -0.01  -0.14  -0.21     0.02   0.04   0.00    -0.05  -0.04  -0.06
   3   1    -0.08  -0.24  -0.15     0.02  -0.05   0.04     0.11   0.34   0.15
   4   6     0.13   0.10   0.54    -0.01  -0.05  -0.03     0.03   0.02  -0.02
   5   1     0.12   0.14   0.22     0.17   0.05  -0.05     0.03   0.14   0.17
   6   6    -0.11   0.09  -0.00    -0.03   0.01   0.28    -0.13   0.04   0.13
   7   1     0.07   0.00  -0.13    -0.11  -0.03   0.31     0.25  -0.13  -0.13
   8   6    -0.09  -0.01   0.04    -0.36   0.12   0.13    -0.09   0.12   0.09
   9   1    -0.08   0.00   0.01    -0.40   0.21   0.04     0.15  -0.03   0.02
  10   8     0.19  -0.02  -0.12    -0.07  -0.01   0.03    -0.11  -0.03   0.05
  11   8     0.09  -0.03  -0.03     0.44  -0.09  -0.17     0.05  -0.02  -0.04
  12   8     0.01  -0.02   0.03     0.02  -0.02  -0.28    -0.01  -0.01  -0.03
  13   8     0.00  -0.03  -0.42     0.01   0.00   0.02    -0.07  -0.06   0.07
  14   8    -0.04  -0.01   0.15    -0.00  -0.01  -0.01     0.00  -0.10   0.12
  15   1    -0.13  -0.05   0.05     0.07  -0.02  -0.01     0.18  -0.05  -0.02
  16   1    -0.05   0.07  -0.08    -0.08   0.04   0.02    -0.09   0.05   0.02
  17   1    -0.08   0.02  -0.00    -0.19   0.03  -0.02     0.16  -0.03  -0.01
  18   1     0.05   0.02  -0.13    -0.05  -0.05   0.12     0.06   0.02  -0.16
  19   1    -0.01  -0.01  -0.08     0.01  -0.00   0.01     0.08   0.04  -0.41
  20   1    -0.01   0.02  -0.05     0.00   0.01  -0.04     0.01   0.10  -0.48
                     31                     32                     33
                        a                      a                      a 
 Frequencies --  1192.3011              1200.7352              1222.1126
 Red. masses --     1.3117                 1.3635                 1.2869
 Frc consts  --     0.0000                 0.0000                 0.0000
 IR Inten    --    26.2553                10.4218                19.2205
 Raman Activ --     0.0000                 0.0000                 0.0000
 Depolar     --     0.0000                 0.0000                 0.0000
 Atom AN      X      Y      Z        X      Y      Z        X      Y      Z
   1   6     0.12   0.13   0.04     0.06   0.05   0.02    -0.10   0.03   0.04
   2   6    -0.04  -0.10  -0.10    -0.07  -0.03  -0.04     0.03   0.01   0.20
   3   1    -0.00   0.42  -0.10    -0.09  -0.08  -0.15     0.10  -0.04   0.24
   4   6     0.03   0.05   0.12    -0.01  -0.05  -0.07    -0.10   0.08  -0.08
   5   1    -0.32  -0.22  -0.06    -0.04  -0.22  -0.28     0.19   0.07  -0.11
   6   6    -0.12  -0.01   0.14     0.04   0.03   0.24     0.07  -0.00   0.25
   7   1     0.20  -0.20   0.10     0.23  -0.00  -0.31     0.01   0.16  -0.30
   8   6     0.21   0.14  -0.04    -0.31   0.20   0.13     0.11  -0.00  -0.18
   9   1    -0.14   0.09  -0.01     0.10  -0.17   0.04    -0.28  -0.05  -0.02
  10   8    -0.14  -0.16  -0.07     0.00  -0.07  -0.01     0.05  -0.04  -0.04
  11   8     0.01  -0.03   0.04     0.12  -0.03  -0.10     0.01  -0.01   0.05
  12   8     0.00  -0.01  -0.08    -0.06  -0.03   0.00    -0.05  -0.03   0.01
  13   8     0.05   0.03  -0.11     0.06   0.01   0.05    -0.02  -0.08   0.10
  14   8    -0.01  -0.01   0.08     0.01   0.07  -0.02     0.03  -0.01  -0.14
  15   1    -0.18   0.01   0.02     0.07  -0.08   0.01    -0.31   0.15   0.01
  16   1     0.34  -0.11  -0.11    -0.08   0.07  -0.03     0.24  -0.13  -0.02
  17   1    -0.20   0.03   0.02     0.24  -0.05  -0.03    -0.25   0.04   0.02
  18   1     0.01  -0.02  -0.02     0.11   0.08  -0.38     0.10   0.05  -0.31
  19   1    -0.05  -0.03   0.26    -0.04  -0.02   0.21     0.06   0.02  -0.28
  20   1     0.00   0.02  -0.07    -0.00  -0.04   0.26     0.00  -0.01   0.01
                     34                     35                     36
                        a                      a                      a 
 Frequencies --  1244.0358              1259.0294              1287.6518
 Red. masses --     1.4626                 1.6740                 1.3507
 Frc consts  --     0.0000                 0.0000                 0.0000
 IR Inten    --    28.4585                 5.2271                 6.6688
 Raman Activ --     0.0000                 0.0000                 0.0000
 Depolar     --     0.0000                 0.0000                 0.0000
 Atom AN      X      Y      Z        X      Y      Z        X      Y      Z
   1   6    -0.00  -0.06  -0.11    -0.04   0.02  -0.00     0.06  -0.13   0.11
   2   6     0.04  -0.01  -0.10    -0.11  -0.09   0.03    -0.19   0.18  -0.31
   3   1    -0.06   0.10  -0.18    -0.03  -0.24   0.03     0.28  -0.11   0.63
   4   6    -0.10   0.02   0.07     0.26  -0.04  -0.21    -0.04  -0.16  -0.00
   5   1    -0.01  -0.08  -0.13     0.05   0.03   0.02    -0.19  -0.01   0.19
   6   6     0.07   0.02   0.18    -0.35   0.28   0.04     0.06  -0.00   0.07
   7   1    -0.05   0.16  -0.19     0.37  -0.34   0.17     0.04  -0.01  -0.02
   8   6     0.20  -0.27  -0.25     0.21  -0.10  -0.06     0.02  -0.02  -0.06
   9   1    -0.17   0.23  -0.06     0.06   0.20  -0.03    -0.02  -0.00  -0.01
  10   8    -0.02   0.16   0.18    -0.02   0.04  -0.01     0.03   0.06  -0.00
  11   8    -0.05   0.03   0.10    -0.02  -0.01   0.08    -0.01   0.00   0.02
  12   8    -0.03  -0.02   0.02    -0.01  -0.04  -0.02    -0.03  -0.02   0.01
  13   8     0.04   0.00  -0.03    -0.05  -0.02   0.12     0.05   0.10  -0.10
  14   8    -0.03  -0.02   0.10     0.03   0.08  -0.09     0.09  -0.01  -0.01
  15   1     0.44  -0.16  -0.03     0.08  -0.07   0.00    -0.08  -0.00   0.03
  16   1    -0.25   0.10   0.07    -0.09   0.04   0.01    -0.19   0.08   0.00
  17   1    -0.26   0.05   0.03    -0.17   0.05   0.02    -0.05   0.01   0.01
  18   1     0.07   0.03  -0.19     0.04  -0.01  -0.08     0.03   0.01  -0.10
  19   1    -0.02  -0.01   0.11     0.03   0.02  -0.15    -0.06  -0.02   0.30
  20   1     0.00   0.03  -0.12    -0.00  -0.06   0.31     0.01  -0.00   0.01
                     37                     38                     39
                        a                      a                      a 
 Frequencies --  1301.6663              1306.0569              1319.1530
 Red. masses --     1.2465                 1.3445                 1.3269
 Frc consts  --     0.0000                 0.0000                 0.0000
 IR Inten    --    26.5943                19.3417                47.4580
 Raman Activ --     0.0000                 0.0000                 0.0000
 Depolar     --     0.0000                 0.0000                 0.0000
 Atom AN      X      Y      Z        X      Y      Z        X      Y      Z
   1   6    -0.09   0.12   0.04     0.05  -0.08   0.04    -0.35   0.24   0.00
   2   6    -0.01  -0.04  -0.02     0.01   0.20  -0.11     0.03  -0.04  -0.16
   3   1     0.04  -0.03   0.10     0.07  -0.04   0.14     0.14  -0.07   0.24
   4   6     0.05   0.05  -0.02    -0.20  -0.02   0.26    -0.05   0.04   0.06
   5   1    -0.10   0.01   0.08     0.36  -0.22  -0.58     0.07  -0.02  -0.08
   6   6     0.08  -0.01   0.18    -0.13   0.15  -0.15     0.01  -0.03  -0.09
   7   1    -0.13   0.16  -0.08     0.16  -0.10  -0.04    -0.02  -0.02   0.05
   8   6    -0.07  -0.22   0.18    -0.01  -0.12   0.06    -0.04   0.15  -0.02
   9   1     0.18   0.71  -0.01     0.19   0.17  -0.01     0.06  -0.22   0.00
  10   8    -0.05  -0.11  -0.15    -0.01   0.01  -0.06    -0.00  -0.08   0.06
  11   8    -0.07   0.04  -0.07    -0.01   0.01   0.02     0.05  -0.02   0.03
  12   8    -0.01  -0.01  -0.05     0.06   0.02   0.01     0.01   0.01   0.01
  13   8    -0.01  -0.00  -0.01     0.05  -0.06   0.02     0.01  -0.01   0.01
  14   8     0.02   0.02  -0.03    -0.00  -0.06   0.05     0.03   0.02  -0.01
  15   1     0.04  -0.06   0.01    -0.11   0.07   0.00     0.51  -0.32   0.01
  16   1     0.25  -0.11  -0.04     0.01  -0.01  -0.01     0.39  -0.21   0.02
  17   1     0.29  -0.04  -0.03    -0.00   0.01   0.01    -0.13   0.03   0.01
  18   1     0.01   0.01  -0.05    -0.05  -0.01   0.16    -0.02  -0.00   0.05
  19   1     0.01   0.00  -0.03    -0.00  -0.01   0.02     0.00   0.00  -0.02
  20   1     0.00  -0.01   0.06     0.00   0.03  -0.18     0.00  -0.01   0.06
                     40                     41                     42
                        a                      a                      a 
 Frequencies --  1332.6680              1346.9938              1358.1856
 Red. masses --     1.4627                 1.2943                 1.6833
 Frc consts  --     0.0000                 0.0000                 0.0000
 IR Inten    --    90.1709                70.3974                28.9334
 Raman Activ --     0.0000                 0.0000                 0.0000
 Depolar     --     0.0000                 0.0000                 0.0000
 Atom AN      X      Y      Z        X      Y      Z        X      Y      Z
   1   6    -0.02  -0.08   0.03    -0.01   0.03   0.00     0.13   0.00   0.02
   2   6    -0.03   0.40  -0.06    -0.08  -0.14  -0.10    -0.20  -0.29  -0.13
   3   1    -0.09  -0.44  -0.07     0.06   0.07   0.13     0.06   0.17   0.15
   4   6     0.32   0.13  -0.01     0.06   0.12   0.08     0.20   0.35   0.13
   5   1    -0.39  -0.30  -0.13     0.01  -0.07  -0.13    -0.16  -0.18  -0.19
   6   6    -0.01  -0.05   0.04    -0.14  -0.04   0.01     0.03  -0.15  -0.01
   7   1    -0.10   0.02   0.10     0.04  -0.00  -0.15    -0.21   0.13  -0.01
   8   6     0.05   0.05  -0.00     0.26  -0.05   0.12    -0.15   0.03  -0.09
   9   1    -0.10  -0.05   0.01    -0.59  -0.09   0.08     0.24  -0.01  -0.04
  10   8    -0.01  -0.00   0.01     0.03   0.05   0.05     0.00   0.01  -0.00
  11   8    -0.01  -0.00  -0.02    -0.16   0.05  -0.15     0.09  -0.02   0.07
  12   8    -0.02  -0.02  -0.01     0.07   0.05  -0.04     0.03   0.03  -0.02
  13   8    -0.06  -0.07   0.08    -0.01  -0.04   0.02    -0.05  -0.09   0.07
  14   8    -0.03  -0.10   0.10     0.03   0.04  -0.03     0.04   0.07  -0.04
  15   1     0.01  -0.00   0.01     0.05  -0.09   0.01    -0.08  -0.02   0.01
  16   1     0.07  -0.07   0.04    -0.08   0.04   0.03    -0.20   0.13  -0.02
  17   1     0.04  -0.01  -0.01     0.45  -0.12  -0.06    -0.22   0.06   0.03
  18   1     0.02   0.01  -0.08    -0.08  -0.02   0.23    -0.04  -0.02   0.13
  19   1     0.05   0.01  -0.22     0.02   0.00  -0.09     0.06   0.02  -0.29
  20   1    -0.01   0.05  -0.29    -0.00  -0.02   0.14     0.01  -0.05   0.25
                     43                     44                     45
                        a                      a                      a 
 Frequencies --  1358.5382              1447.4148              2861.4880
 Red. masses --     1.3213                 1.0869                 1.0725
 Frc consts  --     0.0000                 0.0000                 0.0000
 IR Inten    --   114.2645                 1.8504                50.2293
 Raman Activ --     0.0000                 0.0000                 0.0000
 Depolar     --     0.0000                 0.0000                 0.0000
 Atom AN      X      Y      Z        X      Y      Z        X      Y      Z
   1   6    -0.02  -0.01  -0.00    -0.10  -0.18   0.17     0.00  -0.00   0.01
   2   6     0.03   0.11   0.02    -0.02  -0.03   0.00     0.02   0.01  -0.01
   3   1    -0.04  -0.12  -0.06     0.00  -0.00   0.02    -0.07   0.01   0.03
   4   6     0.08  -0.11  -0.13     0.02   0.02   0.01    -0.10   0.20  -0.12
   5   1    -0.09   0.02   0.13    -0.01  -0.01  -0.01     0.39  -0.72   0.50
   6   6    -0.24  -0.16   0.22    -0.01  -0.01  -0.00    -0.01   0.00  -0.01
   7   1     0.16   0.05  -0.57    -0.00  -0.00   0.01     0.01   0.02   0.01
   8   6    -0.07   0.04  -0.08     0.02   0.02   0.02     0.00  -0.00   0.03
   9   1     0.11   0.01  -0.03    -0.03  -0.01   0.01    -0.01  -0.01  -0.09
  10   8    -0.00  -0.00   0.00    -0.03  -0.02   0.02     0.00   0.00   0.00
  11   8     0.07  -0.03   0.04    -0.00   0.00  -0.01    -0.00   0.00   0.00
  12   8     0.17   0.14  -0.10     0.00   0.00  -0.00     0.00  -0.00   0.00
  13   8     0.00   0.03   0.00    -0.00  -0.00  -0.00    -0.00   0.00  -0.01
  14   8    -0.01  -0.01   0.01     0.00   0.01  -0.01     0.00  -0.00  -0.00
  15   1     0.02   0.01  -0.00     0.38   0.57  -0.06    -0.00  -0.00  -0.03
  16   1     0.04  -0.03  -0.00     0.06   0.13  -0.66     0.00   0.00   0.00
  17   1    -0.16   0.04   0.02     0.02  -0.00  -0.00     0.00   0.00   0.00
  18   1    -0.16  -0.06   0.52    -0.00  -0.00   0.01    -0.00   0.00   0.00
  19   1    -0.02   0.00   0.07     0.01  -0.00  -0.02     0.00  -0.00  -0.00
  20   1    -0.00   0.00  -0.02     0.00  -0.01   0.03     0.00   0.00   0.00
                     46                     47                     48
                        a                      a                      a 
 Frequencies --  2871.9882              2881.7113              2899.3995
 Red. masses --     1.0707                 1.0722                 1.0721
 Frc consts  --     0.0000                 0.0000                 0.0000
 IR Inten    --    56.7097                48.0471                47.0824
 Raman Activ --     0.0000                 0.0000                 0.0000
 Depolar     --     0.0000                 0.0000                 0.0000
 Atom AN      X      Y      Z        X      Y      Z        X      Y      Z
   1   6    -0.00  -0.00  -0.00    -0.01  -0.00  -0.04     0.03   0.03   0.25
   2   6     0.00  -0.00   0.00    -0.23   0.02   0.10    -0.04   0.01   0.03
   3   1     0.00  -0.00  -0.00     0.85  -0.09  -0.42     0.15  -0.02  -0.07
   4   6     0.01  -0.02   0.01    -0.02   0.02  -0.01    -0.00  -0.00   0.00
   5   1    -0.04   0.07  -0.05     0.03  -0.06   0.04    -0.01   0.01  -0.01
   6   6    -0.01  -0.01   0.01     0.00  -0.00  -0.00     0.00   0.00   0.00
   7   1     0.03   0.04   0.01    -0.00   0.00  -0.00    -0.00  -0.00  -0.00
   8   6     0.01   0.00   0.25     0.00  -0.00   0.00     0.00   0.00  -0.00
   9   1    -0.06  -0.06  -0.96     0.00   0.00  -0.01    -0.00  -0.00   0.01
  10   8     0.01   0.01   0.01     0.00   0.00  -0.00    -0.01   0.00   0.01
  11   8    -0.01   0.00   0.01    -0.00   0.00  -0.00     0.00  -0.00  -0.00
  12   8    -0.00  -0.00  -0.00     0.00   0.00   0.00     0.00  -0.00  -0.00
  13   8    -0.00   0.00   0.00     0.00   0.00  -0.00     0.00   0.00  -0.00
  14   8     0.00  -0.00  -0.00    -0.00   0.00   0.01    -0.00  -0.00   0.00
  15   1     0.01   0.00  -0.01     0.01   0.02   0.17    -0.04  -0.10  -0.94
  16   1     0.01   0.02   0.00    -0.01  -0.01  -0.01    -0.01  -0.03   0.03
  17   1     0.00   0.00   0.01     0.00  -0.00   0.00     0.00   0.00   0.00
  18   1     0.00   0.00  -0.00    -0.00  -0.00  -0.00    -0.00   0.00  -0.00
  19   1     0.00  -0.00   0.00    -0.00  -0.00  -0.00    -0.00  -0.00  -0.00
  20   1    -0.00   0.00  -0.00     0.00   0.00   0.00     0.00   0.00   0.00
                     49                     50                     51
                        a                      a                      a 
 Frequencies --  2924.6323              2963.4640              3402.0516
 Red. masses --     1.0739                 1.0711                 1.0657
 Frc consts  --     0.0000                 0.0000                 0.0000
 IR Inten    --    51.1779                36.4217               129.9174
 Raman Activ --     0.0000                 0.0000                 0.0000
 Depolar     --     0.0000                 0.0000                 0.0000
 Atom AN      X      Y      Z        X      Y      Z        X      Y      Z
   1   6    -0.00  -0.01  -0.00     0.12   0.22   0.06     0.00   0.00  -0.00
   2   6     0.00  -0.00  -0.00     0.01   0.01   0.00     0.00   0.00   0.00
   3   1    -0.00   0.00   0.00    -0.02   0.00   0.01     0.00  -0.00  -0.00
   4   6     0.00   0.01   0.00    -0.00  -0.00  -0.00     0.00   0.00  -0.00
   5   1     0.01  -0.01   0.01     0.00   0.00   0.00     0.00  -0.00   0.00
   6   6     0.15   0.20   0.07     0.00   0.00   0.00    -0.00  -0.00  -0.01
   7   1    -0.55  -0.73  -0.30    -0.01  -0.02  -0.01     0.01   0.01   0.00
   8   6     0.01   0.01   0.01    -0.00  -0.00   0.00     0.00   0.00  -0.00
   9   1    -0.00  -0.00  -0.05    -0.00  -0.00  -0.02     0.00  -0.00   0.00
  10   8    -0.00   0.00  -0.00     0.01   0.00  -0.00    -0.00  -0.00  -0.00
  11   8    -0.00  -0.00   0.00     0.00  -0.00   0.00    -0.00   0.00  -0.02
  12   8    -0.00   0.00   0.01     0.00   0.00   0.00    -0.18  -0.14  -0.08
  13   8    -0.00  -0.00  -0.00    -0.00  -0.00  -0.00    -0.00  -0.00   0.00
  14   8     0.00  -0.00  -0.00     0.00  -0.00  -0.00    -0.00  -0.01  -0.00
  15   1     0.00  -0.00   0.00     0.02   0.03   0.04    -0.00   0.00  -0.00
  16   1     0.01   0.02   0.01    -0.45  -0.82  -0.23    -0.00  -0.00  -0.00
  17   1     0.00   0.00  -0.00    -0.00   0.00  -0.00    -0.00  -0.01   0.08
  18   1     0.01   0.01   0.00    -0.00  -0.00  -0.00     0.71   0.54   0.36
  19   1     0.00  -0.00  -0.00     0.00   0.00  -0.00     0.00   0.00  -0.00
  20   1    -0.00   0.00  -0.00    -0.00  -0.00  -0.00     0.02   0.04   0.01
                     52                     53                     54
                        a                      a                      a 
 Frequencies --  3437.8948              3536.0802              3546.0539
 Red. masses --     1.0650                 1.0653                 1.0655
 Frc consts  --     0.0000                 0.0000                 0.0000
 IR Inten    --    40.3628                15.1314                15.9676
 Raman Activ --     0.0000                 0.0000                 0.0000
 Depolar     --     0.0000                 0.0000                 0.0000
 Atom AN      X      Y      Z        X      Y      Z        X      Y      Z
   1   6     0.00   0.00  -0.00    -0.00  -0.00   0.00    -0.00  -0.00   0.00
   2   6    -0.00  -0.00   0.00     0.00   0.00   0.00    -0.00   0.00  -0.00
   3   1    -0.00   0.00   0.00     0.00  -0.00  -0.00     0.00   0.00  -0.00
   4   6     0.00  -0.00  -0.00    -0.00   0.00   0.00    -0.00  -0.00  -0.00
   5   1    -0.00   0.00  -0.00     0.00  -0.00   0.00     0.00   0.00  -0.00
   6   6    -0.00   0.00   0.00    -0.00  -0.00  -0.00     0.00   0.00  -0.00
   7   1    -0.00  -0.00  -0.00     0.00  -0.00   0.00     0.00  -0.00  -0.00
   8   6     0.01  -0.00  -0.01     0.00   0.00   0.00    -0.00  -0.00  -0.00
   9   1     0.00   0.00   0.00    -0.00  -0.00  -0.00     0.00  -0.00   0.00
  10   8    -0.00  -0.00   0.00     0.00   0.00  -0.00     0.00   0.00   0.00
  11   8    -0.01   0.04  -0.24    -0.00  -0.00   0.00    -0.00   0.00  -0.00
  12   8     0.02   0.01   0.01    -0.01  -0.01  -0.00     0.00   0.00   0.00
  13   8     0.00   0.00  -0.00    -0.00  -0.00  -0.00    -0.12  -0.20  -0.05
  14   8     0.00   0.00   0.00     0.08   0.22   0.05    -0.00  -0.00  -0.00
  15   1    -0.00   0.00   0.00    -0.00   0.00  -0.00    -0.00   0.00  -0.00
  16   1    -0.00  -0.00   0.00     0.00   0.00   0.00     0.00   0.00   0.00
  17   1     0.01  -0.13   0.96     0.00   0.00  -0.00     0.00  -0.00   0.00
  18   1    -0.06  -0.05  -0.03     0.03   0.03   0.02    -0.00  -0.00  -0.00
  19   1    -0.00  -0.00  -0.00     0.00   0.00   0.00     0.47   0.82   0.21
  20   1    -0.00  -0.00  -0.00    -0.33  -0.88  -0.22     0.00   0.00   0.00
