14
 energy: -46.550754604989 gnorm: 0.042796326436 xtb: 6.7.1 (41059b4)
C           -1.23674589244540       -0.00013657274159        0.00008331825141
C           -0.56704871738514       -1.21324020887940       -0.06877635882760
C            0.83237259526023       -1.21603284854013       -0.06902992924383
C            1.52808798615231        0.00017415626467       -0.00007575378271
C            0.83210686950169        1.21622992934135        0.06894243198509
C           -0.56731107619736        1.21310965190707        0.06882717031474
Cl          -1.46983047290625        2.68147588934672        0.15165705402374
Cl           1.68734626143907        2.70932345570225        0.15345913737530
Cl           3.25188742575222        0.00034411847835       -0.00015743142546
Cl           1.68796753800103       -2.70891343263396       -0.15365073283209
Cl          -1.46921739539087       -2.68182581768556       -0.15147314467512
N           -2.72105123456452       -0.00027835276434        0.00023377503840
O           -3.25896144063566        0.05944099815185       -1.08924516010706
O           -3.25877197557981       -0.06023609252623        1.08977214029455
14
 energy: -46.552116043089 gnorm: 0.014367998508 xtb: 6.7.1 (41059b4)
C           -1.24342657365245       -0.00015598782661        0.00009777242213
C           -0.56799291687461       -1.21146967657870       -0.06855783962365
C            0.82868772878251       -1.21146661479503       -0.06868655671560
C            1.52046259229437        0.00017497778686       -0.00008423432377
C            0.82841236103442        1.21165461348563        0.06859736843523
C           -0.56826841958783        1.21131727983061        0.06865009460397
Cl          -1.45649213846350        2.68215279990333        0.15183896614766
Cl           1.68675816452944        2.69510486339199        0.15263061161402
Cl           3.23673997564045        0.00037213165679       -0.00016913162418
Cl           1.68737735900414       -2.69470898950797       -0.15282999112066
Cl          -1.45586654118802       -2.68251726308348       -0.15164649126908
N           -2.71951878606799       -0.00034520027293        0.00021713240984
O           -3.25310560145409        0.05870895931792       -1.07653414897177
O           -3.25293673299529       -0.05938701988735        1.07704296440523
14
 energy: -46.552290977921 gnorm: 0.005554702796 xtb: 6.7.1 (41059b4)
C           -1.24777293705735       -0.00012368501350        0.00010204828255
C           -0.56832799607153       -1.21049468266889       -0.06852162818322
C            0.82811652814529       -1.21040875164269       -0.06861963491383
C            1.51954721010079        0.00017527549181       -0.00008147510248
C            0.82786231160696        1.21060898713623        0.06853875691377
C           -0.56858052410985        1.21039081895160        0.06862772304952
Cl          -1.44930634858238        2.68082527016204        0.15184367445562
Cl           1.68485517966651        2.68872424806896        0.15220055039367
Cl           3.23013067988127        0.00036175966720       -0.00018608748687
Cl           1.68542539029519       -2.68833409314361       -0.15240135770969
Cl          -1.44873691110354       -2.68112280496116       -0.15162646455078
N           -2.71968464437374       -0.00024482126618        0.00021148811511
O           -3.25143037876958        0.05831087770953       -1.07199625682256
O           -3.25126708862649       -0.05923352507029        1.07247517994854
14
 energy: -46.552309770405 gnorm: 0.002845878468 xtb: 6.7.1 (41059b4)
C           -1.24868031043445       -0.00017602633257        0.00010051001279
C           -0.56832324083948       -1.21036113859769       -0.06851424613664
C            0.82850180881299       -1.21075554808652       -0.06862745932094
C            1.52050674910166        0.00017490921232       -0.00008402754804
C            0.82820941591928        1.21093319812678        0.06854770090483
C           -0.56861711595935        1.21018446989917        0.06862189135605
Cl          -1.44792527653324        2.67981743239072        0.15183778472770
Cl           1.68392487295297        2.68763222800487        0.15212025326738
Cl           3.22910291855278        0.00038642358222       -0.00019168568104
Cl           1.68456856470540       -2.68724332374529       -0.15231828221368
Cl          -1.44727902508592       -2.68020840076368       -0.15161733920554
N           -2.71989345623630       -0.00042064374601        0.00019807395830
O           -3.25171327052037        0.05847438052298       -1.07242474584627
O           -3.25155216343442       -0.05900308704626        1.07291808811444
14
 energy: -46.552315013773 gnorm: 0.000362774245 xtb: 6.7.1 (41059b4)
C           -1.24895131131680       -0.00005929383567        0.00010706372127
C           -0.56842967104796       -1.21027739560446       -0.06852653853227
C            0.82876557828394       -1.21115715541341       -0.06865311284666
C            1.52136640016200        0.00017562649635       -0.00008459799887
C            0.82855548248596        1.21138293624702        0.06857862433051
C           -0.56863420984862        1.21026446745260        0.06864540995977
Cl          -1.44728540748217        2.67922158785885        0.15185053525148
Cl           1.68337810318985        2.68705672352718        0.15207353942754
Cl           3.22850555288036        0.00033360745340       -0.00020160036385
Cl           1.68385992935966       -2.68666927920500       -0.15226751024505
Cl          -1.44681421161134       -2.67940298372983       -0.15161149556236
N           -2.71978138045239       -0.00002173619533        0.00021732558671
O           -3.25193195300225        0.05798047013595       -1.07315033824924
O           -3.25177243059868       -0.05939270176662        1.07358921191037
14
 energy: -46.552314711192 gnorm: 0.000531842826 xtb: 6.7.1 (41059b4)
C           -1.24874526094897       -0.00034758144636        0.00009009915198
C           -0.56837514914519       -1.21056776218992       -0.06855368741352
C            0.82884547378941       -1.21129613644974       -0.06866592534815
C            1.52136828161877        0.00017393644514       -0.00008495159464
C            0.82843035582348        1.21140153042424        0.06858441074800
C           -0.56880176924743        1.21015064426337        0.06864860970576
Cl          -1.44768843216078        2.67899800255665        0.15185800124170
Cl           1.68319055120370        2.68702400095915        0.15207900726857
Cl           3.22838410979291        0.00046511951354       -0.00019463934505
Cl           1.68407478041847       -2.68663541150103       -0.15227085119366
Cl          -1.44678650270933       -2.67969955517863       -0.15164877612478
N           -2.71952904717119       -0.00099572001266        0.00016459185451
O           -3.25184882241313        0.05898854178915       -1.07313094581124
O           -3.25168809784917       -0.05822473575185        1.07369157324987
14
 energy: -46.552315199530 gnorm: 0.000045110181 xtb: 6.7.1 (41059b4)
C           -1.24869948949814       -0.00014671804546        0.00010172527479
C           -0.56845968318630       -1.21044351594703       -0.06854933771623
C            0.82874969026837       -1.21123849161892       -0.06866520970740
C            1.52130803861495        0.00017588514424       -0.00008515568978
C            0.82847736158662        1.21142857345506        0.06858830748908
C           -0.56873109971186        1.21030811207210        0.06866092173815
Cl          -1.44758901396609        2.67922990277918        0.15187694016141
Cl           1.68337246146288        2.68703499202075        0.15208502152169
Cl           3.22837642173194        0.00037357284345       -0.00019978858406
Cl           1.68397610716093       -2.68664747211448       -0.15227708519339
Cl          -1.44698823035266       -2.67956962208016       -0.15164714397104
N           -2.71948434134983       -0.00032013465493        0.00020139425885
O           -3.25181875236626        0.05819445684934       -1.07311773157995
O           -3.25165899939300       -0.05894466728209        1.07359365838723
14
 energy: -46.552315202900 gnorm: 0.000020832098 xtb: 6.7.1 (41059b4)
C           -1.24869918628501       -0.00014635328899        0.00010177363269
C           -0.56846038918541       -1.21044917695102       -0.06855835041204
C            0.82875094689889       -1.21124008187164       -0.06867227449507
C            1.52130339547288        0.00017550209101       -0.00008494967585
C            0.82847931306429        1.21142990163193        0.06859559644907
C           -0.56873213527330        1.21031464465467        0.06867006824774
Cl          -1.44757724351591        2.67922987957081        0.15189240936538
Cl           1.68337198933457        2.68700789535807        0.15209493525124
Cl           3.22833828072544        0.00037216744429       -0.00020029175705
Cl           1.68397649472511       -2.68662146722488       -0.15228722609983
Cl          -1.44697216957684       -2.67957056893221       -0.15166221417140
N           -2.71945977807922       -0.00031512122165        0.00020157879722
O           -3.25182416918547        0.05810852172607       -1.07309924759313
O           -3.25166487811847       -0.05886086956542        1.07357470885039
