      -----------------------------------------------------------      
     |                   =====================                   |     
     |                           x T B                           |     
     |                   =====================                   |     
     |                         S. Grimme                         |     
     |          Mulliken Center for Theoretical Chemistry        |     
     |                    University of Bonn                     |     
      -----------------------------------------------------------      

   * xtb version 6.7.1 (41059b4) compiled by 'michael@archlinux' on 2025-03-24

   xtb is free software: you can redistribute it and/or modify it under
   the terms of the GNU Lesser General Public License as published by
   the Free Software Foundation, either version 3 of the License, or
   (at your option) any later version.
   
   xtb is distributed in the hope that it will be useful,
   but WITHOUT ANY WARRANTY; without even the implied warranty of
   MERCHANTABILITY or FITNESS FOR A PARTICULAR PURPOSE.  See the
   GNU Lesser General Public License for more details.
   
   Cite this work as:
   * C. Bannwarth, E. Caldeweyher, S. Ehlert, A. Hansen, P. Pracht,
     J. Seibert, S. Spicher, S. Grimme, WIREs Comput. Mol. Sci., 2020, 11,
     e01493. DOI: 10.1002/wcms.1493
   
   for GFN2-xTB:
   * C. Bannwarth, S. Ehlert and S. Grimme., J. Chem. Theory Comput., 2019,
     15, 1652-1671. DOI: 10.1021/acs.jctc.8b01176
   for GFN1-xTB:
   * S. Grimme, C. Bannwarth, P. Shushkov, J. Chem. Theory Comput., 2017,
     13, 1989-2009. DOI: 10.1021/acs.jctc.7b00118
   for GFN0-xTB:
   * P. Pracht, E. Caldeweyher, S. Ehlert, S. Grimme, ChemRxiv, 2019, preprint.
     DOI: 10.26434/chemrxiv.8326202.v1
   for GFN-FF:
   * S. Spicher and S. Grimme, Angew. Chem. Int. Ed., 2020, 59, 15665-15673.
     DOI: 10.1002/anie.202004239
   
   for ALPB and GBSA implicit solvation:
   * S. Ehlert, M. Stahn, S. Spicher, S. Grimme, J. Chem. Theory Comput.,
     2021, 17, 4250-4261. DOI: 10.1021/acs.jctc.1c00471
   
   for ddCOSMO and CPCM-X implicit solvation:
   * M. Stahn, S. Ehlert, S. Grimme, J. Phys. Chem. A,
     2023, XX, XXXX-XXXX. DOI: 10.1021/acs.jpca.3c04382
   
   for DFT-D4:
   * E. Caldeweyher, C. Bannwarth and S. Grimme, J. Chem. Phys., 2017,
     147, 034112. DOI: 10.1063/1.4993215
   * E. Caldeweyher, S. Ehlert, A. Hansen, H. Neugebauer, S. Spicher,
     C. Bannwarth and S. Grimme, J. Chem. Phys., 2019, 150, 154122.
     DOI: 10.1063/1.5090222
   * E. Caldeweyher, J.-M. Mewes, S. Ehlert and S. Grimme, Phys. Chem. Chem. Phys.
     2020, 22, 8499-8512. DOI: 10.1039/D0CP00502A
   
   for sTDA-xTB:
   * S. Grimme and C. Bannwarth, J. Chem. Phys., 2016, 145, 054103.
     DOI: 10.1063/1.4959605
   
   in the mass-spec context:
   * V. Asgeirsson, C. Bauer and S. Grimme, Chem. Sci., 2017, 8, 4879.
     DOI: 10.1039/c7sc00601b
   * J. Koopman and S. Grimme, ACS Omega 2019, 4, 12, 15120-15133.
     DOI: 10.1021/acsomega.9b02011
   
   for metadynamics refer to:
   * S. Grimme, J. Chem. Theory Comput., 2019, 155, 2847-2862
     DOI: 10.1021/acs.jctc.9b00143
   
   for SPH calculations refer to:
   * S. Spicher and S. Grimme, J. Chem. Theory Comput., 2021, 17, 1701-1714
     DOI: 10.1021/acs.jctc.0c01306
   
   for ONIOM refer to:
   * C. Plett, A. Katbashev, S. Ehlert, S. Grimme, M. Bursch,
     Phys. Chem. Chem. Phys., 2023, 25, 17860-17868. DOI: 10.1039/D3CP02178E
   
   for DIPRO refer to:
   * J. Kohn, N. Gildemeister, S. Grimme, D. Fazzi, A. Hansen,
     J. Chem. Phys., 2023, just accepted.
   
   for PTB refer to:
   * S. Grimme, M. Mueller, A. Hansen, J. Chem. Phys., 2023, 158, 124111.
     DOI: 10.1063/5.0137838
   
   with help from (in alphabetical order)
   P. Atkinson, C. Bannwarth, F. Bohle, G. Brandenburg, E. Caldeweyher
   M. Checinski, S. Dohm, S. Ehlert, S. Ehrlich, I. Gerasimov, C. Hölzer
   A. Katbashev, J. Kohn, J. Koopman, C. Lavigne, S. Lehtola, F. März, M. Müller,
   F. Musil, H. Neugebauer, J. Pisarek, C. Plett, P. Pracht, F. Pultar,
   J. Seibert, P. Shushkov, S. Spicher, M. Stahn, M. Steiner, T. Strunk,
   J. Stückrath, T. Rose, and J. Unsleber
   
 * started run on 2025/04/09 at 01:25:54.437     
   ID    Z sym.   atoms
    1    6 C      1, 2
    2   16 S      3
    3    1 H      4-9

           -------------------------------------------------
          |                Calculation Setup                |
           -------------------------------------------------

          program call               : /usr/bin/xtb xtb_rrho.coord --gfn2 --ohess vtight --chrg 0 --enso --norestart -I rrho-xcontrol-inp --parallel 1
          coordinate file            : xtb_rrho.coord
          omp threads                :                     1


           -------------------------------------------------
          |                 G F N 2 - x T B                 |
           -------------------------------------------------

        Reference                      10.1021/acs.jctc.8b01176
      * Hamiltonian:
        H0-scaling (s, p, d)           1.850000    2.230000    2.230000
        zeta-weighting                 0.500000
      * Dispersion:
        s8                             2.700000
        a1                             0.520000
        a2                             5.000000
        s9                             5.000000
      * Repulsion:
        kExp                           1.500000    1.000000
        rExp                           1.000000
      * Coulomb:
        alpha                          2.000000
        third order                    shell-resolved
        anisotropic                    true
        a3                             3.000000
        a5                             4.000000
        cn-shift                       1.200000
        cn-exp                         4.000000
        max-rad                        5.000000


          ...................................................
          :                      SETUP                      :
          :.................................................:
          :  # basis functions                  24          :
          :  # atomic orbitals                  23          :
          :  # shells                           13          :
          :  # electrons                        20          :
          :  max. iterations                   250          :
          :  Hamiltonian                  GFN2-xTB          :
          :  restarted?                      false          :
          :  GBSA solvation                  false          :
          :  PC potential                    false          :
          :  electronic temp.          300.0000000     K    :
          :  accuracy                    1.0000000          :
          :  -> integral cutoff          0.2500000E+02      :
          :  -> integral neglect         0.1000000E-07      :
          :  -> SCF convergence          0.1000000E-05 Eh   :
          :  -> wf. convergence          0.1000000E-03 e    :
          :  Broyden damping             0.4000000          :
          :  net charge                          0          :
          :  unpaired electrons                  0          :
          ...................................................

 iter      E             dE          RMSdq      gap      omega  full diag
   1    -10.6576029 -0.106576E+02  0.433E+00    5.26       0.0  T
   2    -10.6838015 -0.261986E-01  0.256E+00    4.68       1.0  T
   3    -10.6849779 -0.117642E-02  0.918E-01    4.58       1.0  T
   4    -10.6859464 -0.968481E-03  0.340E-01    4.44       1.0  T
   5    -10.6859513 -0.488483E-05  0.130E-01    4.45       1.0  T
   6    -10.6859657 -0.143424E-04  0.371E-02    4.44       1.0  T
   7    -10.6859660 -0.343132E-06  0.585E-03    4.44       5.7  T
   8    -10.6859660 -0.829743E-08  0.176E-03    4.44      19.0  T
   9    -10.6859660 -0.234646E-08  0.538E-04    4.44      61.9  T
  10    -10.6859660 -0.901341E-10  0.131E-04    4.44     254.5  T

   *** convergence criteria satisfied after 10 iterations ***

         #    Occupation            Energy/Eh            Energy/eV
      -------------------------------------------------------------
         1        2.0000           -0.7089188             -19.2907
       ...           ...                  ...                  ...
         4        2.0000           -0.5216463             -14.1947
         5        2.0000           -0.5182928             -14.1035
         6        2.0000           -0.4893298             -13.3153
         7        2.0000           -0.4674768             -12.7207
         8        2.0000           -0.4582245             -12.4689
         9        2.0000           -0.4476028             -12.1799
        10        2.0000           -0.3680359             -10.0148 (HOMO)
        11                         -0.2047232              -5.5708 (LUMO)
        12                         -0.1258057              -3.4233
        13                         -0.0171097              -0.4656
        14                         -0.0068094              -0.1853
        15                          0.0108069               0.2941
       ...                                ...                  ...
        23                          0.5018111              13.6550
      -------------------------------------------------------------
                  HL-Gap            0.1633128 Eh            4.4440 eV
             Fermi-level           -0.2863796 Eh           -7.7928 eV

 SCC (total)                   0 d,  0 h,  0 min,  0.002 sec
 SCC setup                      ...        0 min,  0.000 sec (  1.765%)
 Dispersion                     ...        0 min,  0.000 sec (  0.800%)
 classical contributions        ...        0 min,  0.000 sec (  0.286%)
 integral evaluation            ...        0 min,  0.000 sec ( 13.957%)
 iterations                     ...        0 min,  0.001 sec ( 54.352%)
 molecular gradient             ...        0 min,  0.001 sec ( 26.569%)
 printout                       ...        0 min,  0.000 sec (  2.012%)

         :::::::::::::::::::::::::::::::::::::::::::::::::::::
         ::                     SUMMARY                     ::
         :::::::::::::::::::::::::::::::::::::::::::::::::::::
         :: total energy             -10.575530564511 Eh    ::
         :: gradient norm              0.013305541001 Eh/a0 ::
         :: HOMO-LUMO gap              4.443967085442 eV    ::
         ::.................................................::
         :: SCC energy               -10.685965218705 Eh    ::
         :: -> isotropic ES            0.005169803119 Eh    ::
         :: -> anisotropic ES          0.002070247568 Eh    ::
         :: -> anisotropic XC          0.007935726694 Eh    ::
         :: -> dispersion             -0.003766351187 Eh    ::
         :: repulsion energy           0.110434654194 Eh    ::
         :: add. restraining           0.000000000000 Eh    ::
         :: total charge               0.000000000000 e     ::
         :::::::::::::::::::::::::::::::::::::::::::::::::::::

      ----------------------------------------------------------- 
     |                   =====================                   |
     |                        A N C O P T                        |
     |                   =====================                   |
     |               Approximate Normal Coordinate               |
     |                Rational Function Optimizer                |
      ----------------------------------------------------------- 

          ...................................................
          :                      SETUP                      :
          :.................................................:
          :   optimization level         verytight          :
          :   max. optcycles                   200          :
          :   ANC micro-cycles                  20          :
          :   degrees of freedom                21          :
          :.................................................:
          :   RF solver                   davidson          :
          :   write xtbopt.log                true          :
          :   linear?                        false          :
          :   energy convergence         0.1000000E-06 Eh   :
          :   grad. convergence          0.2000000E-03 Eh/α :
          :   maximum RF displ.          1.0000000          :
          :   Hlow (freq-cutoff)         0.1000000E-01      :
          :   Hmax (freq-cutoff)         5.0000000          :
          :   S6 in model hess.         20.0000000          :
          ...................................................

generating ANC from exact Hessian ...
Using Lindh-Hessian (1995)
 Shifting diagonal of input Hessian by    4.6587561430321001E-003
 Lowest  eigenvalues of input Hessian
    0.000000    0.000000    0.000000    0.000000    0.000000    0.000000
    0.010000    0.017019    0.017424    0.028753    0.044339    0.054239
    0.061745    0.073053    0.093370    0.122014    0.134889    0.137931
 Highest eigenvalues
    0.799780    0.957212    1.030340    1.108681    1.139058    1.207412


........................................................................
.............................. CYCLE    1 ..............................
........................................................................

 iter      E             dE          RMSdq      gap      omega  full diag
   1    -10.6859660 -0.106860E+02  0.510E-05    4.44       0.0  T
   2    -10.6859660 -0.610711E-11  0.267E-05    4.44    1249.7  T
   3    -10.6859660 -0.689226E-12  0.170E-05    4.44    1959.3  T
     SCC iter.                  ...        0 min,  0.001 sec
     gradient                   ...        0 min,  0.001 sec
 * total energy  :   -10.5755306 Eh     change       -0.3007194E-10 Eh
   gradient norm :     0.0133054 Eh/α   predicted     0.0000000E+00 (-100.00%)
   displ. norm   :     0.1054588 α      lambda       -0.7460936E-03
   maximum displ.:     0.0723098 α      in ANC's #4, #3, #10, ...

........................................................................
.............................. CYCLE    2 ..............................
........................................................................

 iter      E             dE          RMSdq      gap      omega  full diag
   1    -10.6902796 -0.106903E+02  0.136E-01    4.47       0.0  T
   2    -10.6902813 -0.173870E-05  0.757E-02    4.47       1.0  T
   3    -10.6902818 -0.466041E-06  0.993E-03    4.46       3.4  T
   4    -10.6902819 -0.585177E-07  0.497E-03    4.46       6.7  T
   5    -10.6902819 -0.745534E-08  0.193E-03    4.46      17.3  T
   6    -10.6902819 -0.211677E-08  0.673E-04    4.46      49.5  T
   7    -10.6902819 -0.109898E-09  0.156E-04    4.46     214.3  T
     SCC iter.                  ...        0 min,  0.001 sec
     gradient                   ...        0 min,  0.001 sec
 * total energy  :   -10.5759540 Eh     change       -0.4234823E-03 Eh
   gradient norm :     0.0044201 Eh/α   predicted    -0.3771956E-03 ( -10.93%)
   displ. norm   :     0.0162683 α      lambda       -0.3969593E-04
   maximum displ.:     0.0087817 α      in ANC's #4, #14, #16, ...

........................................................................
.............................. CYCLE    3 ..............................
........................................................................

 iter      E             dE          RMSdq      gap      omega  full diag
   1    -10.6916348 -0.106916E+02  0.258E-02    4.47       0.0  T
   2    -10.6916350 -0.275831E-06  0.131E-02    4.47       2.5  T
   3    -10.6916351 -0.274481E-07  0.306E-03    4.47      10.9  T
   4    -10.6916351 -0.184205E-08  0.104E-03    4.47      31.9  T
   5    -10.6916351 -0.351106E-09  0.370E-04    4.47      90.1  T
   6    -10.6916351 -0.658673E-11  0.105E-04    4.47     317.0  T
     SCC iter.                  ...        0 min,  0.001 sec
     gradient                   ...        0 min,  0.001 sec
 * total energy  :   -10.5759776 Eh     change       -0.2352619E-04 Eh
   gradient norm :     0.0014495 Eh/α   predicted    -0.1985434E-04 ( -15.61%)
   displ. norm   :     0.0113722 α      lambda       -0.4603923E-05
   maximum displ.:     0.0086765 α      in ANC's #1, #16, #2, ...

........................................................................
.............................. CYCLE    4 ..............................
........................................................................

 iter      E             dE          RMSdq      gap      omega  full diag
   1    -10.6919335 -0.106919E+02  0.162E-02    4.48       0.0  T
   2    -10.6919336 -0.925895E-07  0.807E-03    4.48       4.1  T
   3    -10.6919336 -0.133786E-07  0.157E-03    4.48      21.2  T
   4    -10.6919336 -0.153216E-08  0.762E-04    4.48      43.8  T
   5    -10.6919336 -0.509253E-09  0.253E-04    4.48     131.9  T
     SCC iter.                  ...        0 min,  0.001 sec
     gradient                   ...        0 min,  0.001 sec
 * total energy  :   -10.5759804 Eh     change       -0.2803268E-05 Eh
   gradient norm :     0.0004630 Eh/α   predicted    -0.2301392E-05 ( -17.90%)
   displ. norm   :     0.0053654 α      lambda       -0.5471903E-06
   maximum displ.:     0.0044123 α      in ANC's #1, #4, #2, ...

........................................................................
.............................. CYCLE    5 ..............................
........................................................................

 iter      E             dE          RMSdq      gap      omega  full diag
   1    -10.6917338 -0.106917E+02  0.634E-03    4.48       0.0  T
   2    -10.6917338 -0.871357E-08  0.308E-03    4.48      10.8  T
   3    -10.6917338 -0.137764E-08  0.562E-04    4.48      59.3  T
   4    -10.6917338 -0.611724E-10  0.269E-04    4.48     123.7  T
     SCC iter.                  ...        0 min,  0.001 sec
     gradient                   ...        0 min,  0.001 sec
 * total energy  :   -10.5759808 Eh     change       -0.4518249E-06 Eh
   gradient norm :     0.0001366 Eh/α   predicted    -0.2724192E-06 ( -39.71%)
   displ. norm   :     0.0053227 α      lambda       -0.1687112E-06
   maximum displ.:     0.0047535 α      in ANC's #1, #2, #4, ...

........................................................................
.............................. CYCLE    6 ..............................
........................................................................

 iter      E             dE          RMSdq      gap      omega  full diag
   1    -10.6917012 -0.106917E+02  0.593E-03    4.47       0.0  T
   2    -10.6917012 -0.516792E-08  0.284E-03    4.47      11.7  T
   3    -10.6917012 -0.113473E-08  0.435E-04    4.47      76.6  T
   4    -10.6917012 -0.178844E-10  0.947E-05    4.47     351.8  T
     SCC iter.                  ...        0 min,  0.001 sec
     gradient                   ...        0 min,  0.001 sec
 * total energy  :   -10.5759810 Eh     change       -0.1599715E-06 Eh
   gradient norm :     0.0001363 Eh/α   predicted    -0.8434503E-07 ( -47.27%)
   displ. norm   :     0.0051831 α      lambda       -0.1130258E-06
   maximum displ.:     0.0044613 α      in ANC's #1, #2, #3, ...

........................................................................
.............................. CYCLE    7 ..............................
........................................................................

 iter      E             dE          RMSdq      gap      omega  full diag
   1    -10.6917394 -0.106917E+02  0.483E-03    4.48       0.0  T
   2    -10.6917394 -0.347258E-08  0.230E-03    4.48      14.5  T
   3    -10.6917394 -0.754888E-09  0.352E-04    4.48      94.7  T
   4    -10.6917394 -0.257501E-10  0.173E-04    4.48     192.1  T
     SCC iter.                  ...        0 min,  0.001 sec
     gradient                   ...        0 min,  0.001 sec
 * total energy  :   -10.5759811 Eh     change       -0.1257505E-06 Eh
   gradient norm :     0.0000786 Eh/α   predicted    -0.5774518E-07 ( -54.08%)
   displ. norm   :     0.0043092 α      lambda       -0.5980263E-07
   maximum displ.:     0.0037662 α      in ANC's #1, #2, #3, ...

........................................................................
.............................. CYCLE    8 ..............................
........................................................................

 iter      E             dE          RMSdq      gap      omega  full diag
   1    -10.6917573 -0.106918E+02  0.410E-03    4.47       0.0  T
   2    -10.6917573 -0.252668E-08  0.192E-03    4.47      17.4  T
   3    -10.6917573 -0.546533E-09  0.283E-04    4.47     117.8  T
   4    -10.6917573 -0.123972E-10  0.134E-04    4.47     249.6  T
     SCC iter.                  ...        0 min,  0.001 sec
     gradient                   ...        0 min,  0.001 sec
 * total energy  :   -10.5759812 Eh     change       -0.6090603E-07 Eh
   gradient norm :     0.0000221 Eh/α   predicted    -0.2858566E-07 ( -53.07%)
   displ. norm   :     0.0023643 α      lambda       -0.1814231E-07
   maximum displ.:     0.0022334 α      in ANC's #1, #2, #8, ...

   *** GEOMETRY OPTIMIZATION CONVERGED AFTER 8 ITERATIONS ***

------------------------------------------------------------------------
 total energy gain   :        -0.0004506 Eh       -0.2828 kcal/mol
 total RMSD          :         0.0416549 a0        0.0220 Å
 total power (kW/mol):        -0.1478846 (step)  -80.7866 (real)
------------------------------------------------------------------------

 ANCopt (total)                0 d,  0 h,  0 min,  0.015 sec
 optimizer setup                ...        0 min,  0.000 sec (  0.265%)
 model hessian                  ...        0 min,  0.000 sec (  2.032%)
 ANC generation                 ...        0 min,  0.000 sec (  0.503%)
 coordinate transformation      ...        0 min,  0.000 sec (  0.119%)
 single point calculation       ...        0 min,  0.013 sec ( 90.452%)
 optimization log               ...        0 min,  0.000 sec (  1.535%)
 hessian update                 ...        0 min,  0.000 sec (  0.154%)
 rational function              ...        0 min,  0.000 sec (  1.449%)

================
 final structure:
================
$coord
       -3.26831268318314        0.77014953587675        0.04824532506656      C
       -1.17205866041434       -1.17616500214998       -0.09109234914335      C
        1.86306290607750        0.42126578872230       -0.65724733485996      S
       -3.38435906113834        1.82508507899159       -1.71205643447080      H
       -5.06986404075243       -0.16260654849227        0.38228905954210      H
       -2.91443335955036        2.09591235400735        1.57863983206444      H
       -1.48001485934248       -2.49048774057613       -1.64676916214093      H
       -1.00424287919318       -2.21640729493191        1.67873993186830      H
        3.25305316104035       -1.67530975016353       -0.69426621211819      H
$end

 Bond Distances (Angstroems)
 ---------------------------
C1-C2=1.5155         C1-H4=1.0877         C1-H5=1.0880         C1-H6=1.0877         C2-C1=1.5155         C2-S3=1.8395         
C2-H7=1.0900         C2-H8=1.0900         S3-C2=1.8395         S3-H9=1.3313         H4-C1=1.0877         H5-C1=1.0880         
H6-C1=1.0877         H7-C2=1.0900         H8-C2=1.0900         H9-S3=1.3313         
 C  H  Rav=1.0887 sigma=0.0011  Rmin=1.0877  Rmax=1.0900     5
 C  C  Rav=1.5155 sigma=0.0000  Rmin=1.5155  Rmax=1.5155     1
 S  H  Rav=1.3313 sigma=0.0000  Rmin=1.3313  Rmax=1.3313     1
 S  C  Rav=1.8395 sigma=0.0000  Rmin=1.8395  Rmax=1.8395     1

 selected bond angles (degree)
 --------------------
H4-C1-C2=110.39                H5-C1-C2=109.94                H5-C1-H4=108.81                H6-C1-C2=110.40                
H6-C1-H4=108.44                H6-C1-H5=108.81                S3-C2-C1=109.55                H7-C2-C1=111.16                
H7-C2-S3=107.50                H8-C2-C1=111.16                H8-C2-S3=107.51                H8-C2-H7=109.81                
H9-S3-C2= 95.85                

 selected dihedral angles (degree)
 ---------------------------------
S3-C2-C1-H4= 59.92            S3-C2-C1-H5=179.98            S3-C2-C1-H6=300.04            H7-C2-C1-H4=301.26            
H7-C2-C1-H5= 61.31            H7-C2-C1-H6=181.37            H8-C2-C1-H4=178.60            H8-C2-C1-H5=298.66            
H8-C2-C1-H6= 58.72            H9-S3-C2-C1=180.25            H9-S3-C2-H7=301.16            H9-S3-C2-H8= 59.33            
           -------------------------------------------------
          |                Final Singlepoint                |
           -------------------------------------------------

          ...................................................
          :                      SETUP                      :
          :.................................................:
          :  # basis functions                  24          :
          :  # atomic orbitals                  23          :
          :  # shells                           13          :
          :  # electrons                        20          :
          :  max. iterations                   250          :
          :  Hamiltonian                  GFN2-xTB          :
          :  restarted?                      false          :
          :  GBSA solvation                  false          :
          :  PC potential                    false          :
          :  electronic temp.          300.0000000     K    :
          :  accuracy                    1.0000000          :
          :  -> integral cutoff          0.2500000E+02      :
          :  -> integral neglect         0.1000000E-07      :
          :  -> SCF convergence          0.1000000E-05 Eh   :
          :  -> wf. convergence          0.1000000E-03 e    :
          :  Broyden damping             0.4000000          :
          :  net charge                          0          :
          :  unpaired electrons                  0          :
          ...................................................

 iter      E             dE          RMSdq      gap      omega  full diag
   1    -10.6917573 -0.106918E+02  0.293E-05    4.47       0.0  T
   2    -10.6917573 -0.239808E-12  0.169E-05    4.47    1973.4  T
   3    -10.6917573  0.159872E-13  0.531E-06    4.47    6274.0  T

   *** convergence criteria satisfied after 3 iterations ***

         #    Occupation            Energy/Eh            Energy/eV
      -------------------------------------------------------------
         1        2.0000           -0.7100433             -19.3213
       ...           ...                  ...                  ...
         4        2.0000           -0.5235993             -14.2479
         5        2.0000           -0.5194564             -14.1351
         6        2.0000           -0.4909527             -13.3595
         7        2.0000           -0.4681621             -12.7393
         8        2.0000           -0.4591007             -12.4928
         9        2.0000           -0.4477069             -12.1827
        10        2.0000           -0.3679392             -10.0121 (HOMO)
        11                         -0.2034863              -5.5371 (LUMO)
        12                         -0.1202180              -3.2713
        13                         -0.0171279              -0.4661
        14                         -0.0076985              -0.2095
        15                          0.0117239               0.3190
       ...                                ...                  ...
        23                          0.5265976              14.3294
      -------------------------------------------------------------
                  HL-Gap            0.1644529 Eh            4.4750 eV
             Fermi-level           -0.2857128 Eh           -7.7746 eV

 SCC (total)                   0 d,  0 h,  0 min,  0.001 sec
 SCC setup                      ...        0 min,  0.000 sec (  1.722%)
 Dispersion                     ...        0 min,  0.000 sec (  0.719%)
 classical contributions        ...        0 min,  0.000 sec (  0.329%)
 integral evaluation            ...        0 min,  0.000 sec ( 22.342%)
 iterations                     ...        0 min,  0.000 sec ( 27.179%)
 molecular gradient             ...        0 min,  0.001 sec ( 44.703%)
 printout                       ...        0 min,  0.000 sec (  2.560%)

         :::::::::::::::::::::::::::::::::::::::::::::::::::::
         ::                     SUMMARY                     ::
         :::::::::::::::::::::::::::::::::::::::::::::::::::::
         :: total energy             -10.575981174763 Eh    ::
         :: gradient norm              0.000022240627 Eh/a0 ::
         :: HOMO-LUMO gap              4.474992008935 eV    ::
         ::.................................................::
         :: SCC energy               -10.691756545813 Eh    ::
         :: -> isotropic ES            0.005311297116 Eh    ::
         :: -> anisotropic ES          0.001866473822 Eh    ::
         :: -> anisotropic XC          0.007893436683 Eh    ::
         :: -> dispersion             -0.003768541406 Eh    ::
         :: repulsion energy           0.115775371050 Eh    ::
         :: add. restraining           0.000000000000 Eh    ::
         :: total charge              -0.000000000000 e     ::
         :::::::::::::::::::::::::::::::::::::::::::::::::::::

           ------------------------------------------------- 
          |                Numerical Hessian                |
           ------------------------------------------------- 
step length          :   0.00500
SCC accuracy         :   0.30000
Hessian scale factor :   1.00000
frozen atoms in %    :   0.00000    0
RMS gradient         :   0.00002
estimated CPU  time      0.00 min
estimated wall time      0.00 min

writing file <hessian>, containing the non-mass-weighted Hessian matrix in atomic units (Eₕ/Bohr²).

 projected vibrational frequencies (cm⁻¹)
eigval :       -0.00    -0.00    -0.00    -0.00    -0.00     0.00
eigval :      149.60   219.01   288.46   681.25   802.11   825.13
eigval :     1024.15  1026.77  1101.55  1226.15  1253.15  1407.78
eigval :     1452.82  1484.78  1495.06  2435.60  2977.53  2984.84
eigval :     3029.58  3039.23  3043.32
           -------------------------------------------------
          |                Property Printout                |
           -------------------------------------------------

    * Orbital Energies and Occupations

         #    Occupation            Energy/Eh            Energy/eV
      -------------------------------------------------------------
         1        2.0000           -0.7100433             -19.3213
         2        2.0000           -0.6275344             -17.0761
         3        2.0000           -0.5821971             -15.8424
         4        2.0000           -0.5235993             -14.2479
         5        2.0000           -0.5194564             -14.1351
         6        2.0000           -0.4909527             -13.3595
         7        2.0000           -0.4681621             -12.7393
         8        2.0000           -0.4591007             -12.4928
         9        2.0000           -0.4477069             -12.1827
        10        2.0000           -0.3679392             -10.0121 (HOMO)
        11                         -0.2034863              -5.5371 (LUMO)
        12                         -0.1202180              -3.2713
        13                         -0.0171279              -0.4661
        14                         -0.0076985              -0.2095
        15                          0.0117239               0.3190
        16                          0.1043945               2.8407
        17                          0.1511905               4.1141
        18                          0.1578980               4.2966
        19                          0.1764618               4.8018
        20                          0.2288652               6.2277
        21                          0.2311801               6.2907
       ...                                ...                  ...
        23                          0.5265976              14.3294
      -------------------------------------------------------------
                  HL-Gap            0.1644529 Eh            4.4750 eV
             Fermi-level           -0.2857127 Eh           -7.7746 eV

     #   Z          covCN         q      C6AA      α(0)
     1   6          3.790    -0.100    22.416     6.743
     2   6          3.792     0.008    20.456     6.441
     3  16          1.930    -0.292   153.697    20.866
     4   1          0.925     0.050     2.317     2.381
     5   1          0.925     0.042     2.421     2.433
     6   1          0.925     0.050     2.318     2.381
     7   1          0.925     0.043     2.413     2.429
     8   1          0.925     0.043     2.413     2.429
     9   1          0.923     0.156     1.350     1.817

 Mol. C6AA /au·bohr⁶  :        927.328149
 Mol. C8AA /au·bohr⁸  :      27880.966825
 Mol. α(0) /au        :         47.919541


Wiberg/Mayer (AO) data.
largest (>0.10) Wiberg bond orders for each atom

 ---------------------------------------------------------------------------
     #   Z sym  total        # sym  WBO       # sym  WBO       # sym  WBO
 ---------------------------------------------------------------------------
     1   6      3.994 --     2      1.029     6      0.986     4      0.986
                             5      0.980
     2   6      3.978 --     1      1.029     3      0.986     7      0.979
                             8      0.979
     3  16      1.995 --     2      0.986     9      0.966
     4   1      0.997 --     1      0.986
     5   1      0.998 --     1      0.980
     6   1      0.997 --     1      0.986
     7   1      0.998 --     2      0.979
     8   1      0.998 --     2      0.979
     9   1      0.976 --     3      0.966
 ---------------------------------------------------------------------------

Topologies differ in total number of bonds
Writing topology from bond orders to xtbtopo.mol

molecular dipole:
                 x           y           z       tot (Debye)
 q only:       -0.355      -0.482       0.089
   full:       -0.515      -0.745       0.133       2.327
molecular quadrupole (traceless):
                xx          xy          yy          xz          yz          zz
 q only:        0.972      -1.723       0.068       0.048       0.424      -1.040
  q+dip:       -0.395      -2.514       0.398       0.557       0.748      -0.003
   full:        0.465      -2.601       0.632       0.275       0.650      -1.097

           -------------------------------------------------
          |                Geometry Summary                 |
           -------------------------------------------------

      molecular mass/u    :       62.1339037
   center of mass at/Å    :       -0.0364302       0.0509861      -0.1874175
  moments of inertia/u·Å² :        0.1744050E+02   0.9333592E+02   0.1044304E+03
rotational constants/cm⁻¹ :        0.9665797E+00   0.1806125E+00   0.1614246E+00

 * 7 selected distances

     #   Z          #   Z                                           value/Å
     1   6          2   6                                         1.5155027 (max)
Molecule has the following symmetry elements: (sigma) 
It seems to be the Cs point group
     1   6          4   1                                         1.0877159
     1   6          5   1                                         1.0879975
     1   6          6   1                                         1.0877116 (min)
     2   6          7   1                                         1.0899525
     2   6          8   1                                         1.0899732
     3  16          9   1                                         1.3312855

 * 3 distinct bonds (by element types)

   Z      Z             #   av. dist./Å        max./Å        min./Å
   1 H    6 C           5     1.0886701     1.0899732     1.0877116
   6 C    6 C           1     1.5155027     1.5155027     1.5155027
   1 H   16 S           1     1.3312855     1.3312855     1.3312855

           -------------------------------------------------
          |               Frequency Printout                |
           -------------------------------------------------
 projected vibrational frequencies (cm⁻¹)
eigval :       -0.00    -0.00    -0.00    -0.00    -0.00     0.00
eigval :      149.60   219.01   288.46   681.25   802.11   825.13
eigval :     1024.15  1026.77  1101.55  1226.15  1253.15  1407.78
eigval :     1452.82  1484.78  1495.06  2435.60  2977.53  2984.84
eigval :     3029.58  3039.23  3043.32
 reduced masses (amu)
    1:      2.48    2:      3.30    3:      6.99    4:      3.68    5:      5.54    6:      4.36
    7:      1.07    8:      1.09    9:      3.20   10:      4.14   11:      1.12   12:      1.11
   13:      1.17   14:      1.52   15:      2.65   16:      1.26   17:      1.27   18:      1.21
   19:      1.11   20:      1.05   21:      1.06   22:      1.04   23:      1.10   24:      1.05
   25:      1.08   26:      1.10   27:      1.04
 IR intensities (km·mol⁻¹)
    1:      0.51    2:      2.45    3:      1.33    4:      1.60    5:      3.43    6:      2.35
    7:     37.68    8:      0.00    9:      3.55   10:      4.28   11:      3.01   12:      6.43
   13:      2.64   14:      3.61   15:      0.44   16:      0.01   17:     29.13   18:      7.11
   19:      0.77   20:      5.58   21:      2.62   22:    135.31   23:     16.13   24:     11.76
   25:     30.70   26:     24.96   27:     12.55
 Raman intensities (Ä⁴*amu⁻¹)
    1:      0.00    2:      0.00    3:      0.00    4:      0.00    5:      0.00    6:      0.00
    7:      0.00    8:      0.00    9:      0.00   10:      0.00   11:      0.00   12:      0.00
   13:      0.00   14:      0.00   15:      0.00   16:      0.00   17:      0.00   18:      0.00
   19:      0.00   20:      0.00   21:      0.00   22:      0.00   23:      0.00   24:      0.00
   25:      0.00   26:      0.00   27:      0.00
 output can be read by thermo (or use thermo option).
 writing <g98.out> molden fake output.
 recommended (thermochemical) frequency scaling factor: 1.0
           -------------------------------------------------
          |             Thermodynamic Functions             |
           -------------------------------------------------

cs  symmetry found (for desy threshold:  0.10E+00) used in thermo

          ...................................................
          :                      SETUP                      :
          :.................................................:
          :  # frequencies                          21      :
          :  # imaginary freq.                       0      :
          :  linear?                             false      :
          :  only rotor calc.                    false      :
          :  symmetry                               cs      :
          :  rotational number                       1      :
          :  scaling factor                  1.0000000      :
          :  rotor cutoff                    0.0000000 cm⁻¹ :
          :  imag. cutoff                 -100.0000000 cm⁻¹ :
          :.................................................:

    mode    ω/cm⁻¹     T·S(HO)/kcal·mol⁻¹    T·S(FR)/kcal·mol⁻¹   T·S(vib)
   ------------------------------------------------------------------------
       1    149.60    -0.79825 (100.00%)    -0.73143 (  0.00%)    -0.79825
       2    219.01    -0.58655 (100.00%)    -0.61866 (  0.00%)    -0.58655
       3    288.46    -0.44214 (100.00%)    -0.53713 (  0.00%)    -0.44214
   ------------------------------------------------------------------------

   temp. (K)  partition function   enthalpy   heat capacity  entropy
                                   cal/mol     cal/K/mol   cal/K/mol   J/K/mol
 298.15  VIB   4.41                 1269.913      9.223      7.208
         ROT  0.315E+05              888.727      2.981     23.564
         INT  0.139E+06             2158.640     12.204     30.771
         TR   0.150E+26             1481.212      4.968     38.300
         TOT                        3639.8523    17.1719    69.0708   288.9921

       T/K    H(0)-H(T)+PV         H(T)/Eh          T*S/Eh         G(T)/Eh
   ------------------------------------------------------------------------
    298.15    0.580047E-02    0.785831E-01    0.328177E-01    0.457653E-01
   ------------------------------------------------------------------------

         :::::::::::::::::::::::::::::::::::::::::::::::::::::
         ::                  THERMODYNAMIC                  ::
         :::::::::::::::::::::::::::::::::::::::::::::::::::::
         :: total free energy         -10.530215869843 Eh   ::
         ::.................................................::
         :: total energy              -10.575981174763 Eh   ::
         :: zero point energy           0.072782578928 Eh   ::
         :: G(RRHO) w/o ZPVE           -0.027017274008 Eh   ::
         :: G(RRHO) contrib.            0.045765304920 Eh   ::
         :::::::::::::::::::::::::::::::::::::::::::::::::::::

optimized geometry written to: xtbopt.coord


           -------------------------------------------------
          | TOTAL ENERGY              -10.575981174763 Eh   |
          | TOTAL ENTHALPY            -10.497398121901 Eh   |
          | TOTAL FREE ENERGY         -10.530215869843 Eh   |
          | GRADIENT NORM               0.000022239242 Eh/α |
          | HOMO-LUMO GAP               4.474992456097 eV   |
           -------------------------------------------------

------------------------------------------------------------------------
 * finished run on 2025/04/09 at 01:25:54.537     
------------------------------------------------------------------------
 total:
 * wall-time:     0 d,  0 h,  0 min,  0.100 sec
 *  cpu-time:     0 d,  0 h,  0 min,  0.099 sec
 * ratio c/w:     0.990 speedup
 SCF:
 * wall-time:     0 d,  0 h,  0 min,  0.003 sec
 *  cpu-time:     0 d,  0 h,  0 min,  0.003 sec
 * ratio c/w:     0.996 speedup
 ANC optimizer:
 * wall-time:     0 d,  0 h,  0 min,  0.016 sec
 *  cpu-time:     0 d,  0 h,  0 min,  0.016 sec
 * ratio c/w:     0.985 speedup
 analytical hessian:
 * wall-time:     0 d,  0 h,  0 min,  0.078 sec
 *  cpu-time:     0 d,  0 h,  0 min,  0.077 sec
 * ratio c/w:     0.990 speedup

