
                                 *****************
                                 * O   R   C   A *
                                 *****************

                                            #,                                       
                                            ###                                      
                                            ####                                     
                                            #####                                    
                                            ######                                   
                                           ########,                                 
                                     ,,################,,,,,                         
                               ,,#################################,,                 
                          ,,##########################################,,             
                       ,#########################################, ''#####,          
                    ,#############################################,,   '####,        
                  ,##################################################,,,,####,       
                ,###########''''           ''''###############################       
              ,#####''   ,,,,##########,,,,          '''####'''          '####       
            ,##' ,,,,###########################,,,                        '##       
           ' ,,###''''                  '''############,,,                           
         ,,##''                                '''############,,,,        ,,,,,,###''
      ,#''                                            '''#######################'''  
     '                                                          ''''####''''         
             ,#######,   #######,   ,#######,      ##                                
            ,#'     '#,  ##    ##  ,#'     '#,    #''#        ,####,   ,####,        
            ##       ##  ##   ,#'  ##            #'  '#       #'       #'  '#        
            ##       ##  #######   ##           ,######,      #####,   #    #        
            '#,     ,#'  ##    ##  '#,     ,#' ,#      #,     #,   #   #,  ,#        
             '#######'   ##     ##  '#######'  #'      '#     '####' # '####'        



                #########################################################
                #                        -***-                          #
                #          Department of theory and spectroscopy        #
                #                                                       #
                #                      Frank Neese                      #
                #                                                       #
                #     Directorship, Architecture, Infrastructure        #
                #                    SHARK, DRIVERS                     #
                #        Core code/Algorithms in most modules           #
                #                                                       #
                #        Max Planck Institute fuer Kohlenforschung      #
                #                Kaiser Wilhelm Platz 1                 #
                #                 D-45470 Muelheim/Ruhr                 #
                #                      Germany                          #
                #                                                       #
                #                  All rights reserved                  #
                #                        -***-                          #
                #########################################################


                         Program Version 6.0.1  -  RELEASE   -


 With contributions from (in alphabetic order):
[Max-Planck-Institut fuer Kohlenforschung]                               
  Daniel Aravena         : Magnetic Suceptibility                        
  Michael Atanasov       : Ab Initio Ligand Field Theory (pilot matlab implementation)
  Alexander A. Auer      : GIAO ZORA, VPT2 properties, NMR spectrum      
  Ute Becker             : All parallelization in ORCA, NUMFREQ, NUMCALC 
  Giovanni Bistoni       : ED, misc. LED, open-shell LED, HFLD           
  Martin Brehm           : Molecular dynamics                            
  Dmytro Bykov           : pre 5.0 version of the SCF Hessian            
  Marcos Casanova-Páez   : Triplet and SCS-CIS(D). UHF-(DLPNO)-IP/EA/STEOM-CCSD. UHF-CVS-IP/STEOM-CCSD   
  Vijay G. Chilkuri      : MRCI spin determinant printing, contributions to CSF-ICE 
  Pauline Colinet        : FMM embedding                                 
  Dipayan Datta          : RHF DLPNO-CCSD density                        
  Achintya Kumar Dutta   : EOM-CC, STEOM-CC                              
  Nicolas Foglia         : Exact transition moments, OPA infrastructure, MCD improvements    
  Dmitry Ganyushin       : Spin-Orbit,Spin-Spin,Magnetic field MRCI      
  Miquel Garcia-Rates    : C-PCM and meta-GGA Hessian, CCSD/C-PCM, Gaussian charge scheme 
  Tiago L. C. Gouveia    : GS-ROHF, GS-ROCIS                             
  Yang Guo               : DLPNO-NEVPT2, F12-NEVPT2, CIM, IAO-localization        
  Andreas Hansen         : Spin unrestricted coupled pair/coupled cluster methods 
  Ingolf Harden          : AUTO-CI MPn and infrastructure                
  Benjamin Helmich-Paris : MC-RPA, TRAH-(SCF,CASSCF), AVAS, COSX integrals, SCF dyn. polar. 
  Lee Huntington         : MR-EOM, pCC                                   
  Robert Izsak           : Overlap fitted RIJCOSX, COSX-SCS-MP3, EOM     
  Riya Kayal             : Wick's Theorem for AUTO-CI, AUTO-CI UHF-CCSDT 
  Emily Kempfer          : AUTO-CI, RHF CISDT and CCSDT                  
  Christian Kollmar      : KDIIS, OOCD, Brueckner-CCSD(T), CCSD density, CASPT2, CASPT2-K, improved NEVPT2 
  Axel Koslowski         : Symmetry handling                             
  Simone Kossmann        : meta-GGA functionals, TD-DFT gradient, OOMP2, (MP2 Hessian; deprecated post 5.0) 
  Lucas Lang             : DCDCAS                                        
  Marvin Lechner         : AUTO-CI (C++ implementation), FIC-MRCC        
  Spencer Leger          : CASSCF response                               
  Dagmar Lenk            : GEPOL surface, SMD, ORCA-2-JSON               
  Dimitrios Liakos       : Extrapolation schemes; Compound Job, initial MDCI parallelization 
  Dimitrios Manganas     : Further ROCIS development; embedding schemes. LFT, Crystal Embedding 
  Dimitrios Pantazis     : SARC Basis sets                               
  Anastasios Papadopoulos: AUTO-CI, single reference methods and gradients 
  Taras Petrenko         : pre 6.0 DFT Hessian and TD-DFT gradient, (ASA, deprecated), ECA, 1-Electron XAS/XES, NRVS 
  Peter Pinski           : DLPNO-MP2, DLPNO-MP2 Gradient                 
  Christoph Reimann      : Effective Core Potentials                     
  Marius Retegan         : Local ZFS, SOC                                
  Christoph Riplinger    : Optimizer, TS searches, QM/MM, DLPNO-CCSD(T), (RO)-DLPNO pert. Triples 
  Michael Roemelt        : Original ROCIS implementation                 
  Masaaki Saitow         : Open-shell DLPNO-CCSD energy and density      
  Barbara Sandhoefer     : DKH picture change effects                    
  Kantharuban Sivalingam : CASSCF convergence/infrastructure, NEVPT2 and variants, FIC-MRCI 
  Bernardo de Souza      : ESD, SOC TD-DFT                               
  Georgi L. Stoychev     : AutoAux, RI-MP2 NMR, DLPNO-MP2 response, X2C  
  Van Anh Tran           : RI-MP2 g-tensors                              
  Willem Van den Heuvel  : Paramagnetic NMR                              
  Zikuan Wang            : NOTCH, Electric field optimization            
  Frank Wennmohs         : Technical directorship and infrastructure     
  Hang Xu                : AUTO-CI-Response properties                   
                                                                         
[FACCTs GmbH]                                                            
  Markus Bursch, Miquel Garcia-Rates, Christoph Riplinger, Bernardo de Souza, Georgi L. Stoychev 
                                                                 
  APM, Basis sets (HGBS, AHGBS, def-TZVP (Ac-Lr), def2-XVPD (La-Lu)), CI-OPT, improved COSX, DLPNO-Multilevel,           
  DOCKER, DRACO, updates on ESD, GOAT, IRC, LR-CPCM, MBIS, meta-GGA TD-DFT gradient, ML-optimized integration grids, 
  MM, NACMEs, nearIR, NEB, NEB-TS, NL-DFT gradient (VV10), 2- and 3-layer-ONIOM, interface openCOSMO-RS, QMMM,   
  Crystal-QMMM, SF, symmetry and pop. for TD-DFT, r2SCAN hybrids, SOLVATOR                                   
                                                                         
[Other institutions]                                                     
  V. Asgeirsson          : NEB                                           
  Christoph Bannwarth    : sTDA-DFT, sTD-DFT, PBEh-3c, B97-3c, D3        
  Sebastian Ehlert       : rSCAN, r2SCAN, r2SCAN-3c, D4, dhf basis sets  
  Marvin Friede          : D4 for Fr, Ra, Ac-Lr                          
  Lars Goerigk           : TD-DFT with DH, B97 family of functionals     
  Stefan Grimme          : VdW corrections, initial TS optimization, DFT functionals, gCP, sTDA/sTD-DF 
  Waldemar Hujo          : DFT-NL                                        
  H. Jonsson             : NEB                                           
  Holger Kruse           : gCP                                           
  Marcel Mueller         : wB97X-3c, vDZP basis set                      
  Hagen Neugebauer       : wr2SCAN                                       
  Tobias Risthaus        : range-separated hybrid DFT                    
  Lukas Wittmann         : regularized MP2, r2SCAN double-hybrids, wr2SCAN        
                                                                         
We gratefully acknowledge several colleagues who have allowed us to      
interface, adapt or use parts of their codes:                            
  Ed Valeev, F. Pavosevic, A. Kumar             : LibInt (2-el integral package), F12 methods 
  Garnet Chan, S. Sharma, J. Yang, R. Olivares  : DMRG                   
  Ulf Ekstrom                                   : XCFun DFT Library      
  Mihaly Kallay                                 : mrcc  (arbitrary order and MRCC methods)
  Frank Weinhold                                : gennbo (NPA and NBO analysis)           
  Simon Mueller                                 : openCOSMO-RS                            
  Christopher J. Cramer and Donald G. Truhlar   : smd solvation model                     
  S Lehtola, MJT Oliveira, MAL Marques          : LibXC Library                           
  Liviu Ungur et al                             : ANISO software                          


 Your calculation uses the libint2 library for the computation of 2-el integrals
 For citations please refer to: http://libint.valeyev.net

 Your ORCA version has been built with support for libXC version: 6.2.2
 For citations please refer to: https://libxc.gitlab.io

 This ORCA versions uses:
   CBLAS   interface :  Fast vector & matrix operations
   LAPACKE interface :  Fast linear algebra routines
   SCALAPACK package :  Parallel linear algebra routines
   Shared memory     :  Shared parallel matrices
   BLAS/LAPACK       :  OpenBLAS 0.3.27  USE64BITINT DYNAMIC_ARCH NO_AFFINITY Zen SINGLE_THREADED
        Core in use  :  Zen
   Copyright (c) 2011-2014, The OpenBLAS Project


Your calculation utilizes the geometrical counterpoise correction gCP
Please cite in your paper:
H.Kruse, S. Grimme J.Chem.Phys., 136, (2012), 154101 
   

Your calculation utilizes the atom-pairwise dispersion correction
based on EEQ partial charges (D4)


================================================================================

----- Orbital basis set information -----
Your calculation utilizes the basis: def2-SV(P)
   F. Weigend and R. Ahlrichs, Phys. Chem. Chem. Phys. 7, 3297 (2005).

----- AuxJ basis set information -----
Your calculation utilizes the auxiliary basis: def2/J
   F. Weigend, Phys. Chem. Chem. Phys. 8, 1057 (2006).

================================================================================
                                        WARNINGS
                       Please study these warnings very carefully!
================================================================================


================================================================================
                                       INPUT FILE
================================================================================
NAME = sp.inp
|  1> ! pbe def2-sv(p) def2/J RI DEFGRID1 loosescf d4 GCP(DFT/SV(P)) printgap
|  2> %output
|  3>     printlevel normal
|  4> end
|  5> * xyz 0 1
|  6> C 1.9379280523 -0.1336695738 2.89172e-05
|  7> C 0.5606774207 0.5180947989 -3.46759e-05
|  8> C -0.5606787477 -0.5180966341 -3.49591e-05
|  9> C -1.9379276314 0.1336708019 2.91038e-05
| 10> H 2.7203077388 0.6218585905 0.0003070764
| 11> H 2.064099348 -0.7586993625 0.8816464595
| 12> H 2.0643749526 -0.758380759 -0.8817788396
| 13> H 0.4608680083 1.1557067494 0.8815779102
| 14> H 0.4609137291 1.1556570793 -0.8816887265
| 15> H -0.4609211878 -1.1556678762 -0.8816809668
| 16> H -0.4608591114 -1.1556993577 0.8815836008
| 17> H -2.0642754876 0.7585684051 -0.8816612268
| 18> H -2.0641872624 0.7585199712 0.8817601834
| 19> H -2.7203099296 -0.6218562058 7.29319e-05
| 20> *
| 21> 
| 22>                          ****END OF INPUT****
================================================================================

                       ****************************
                       * Single Point Calculation *
                       ****************************

---------------------------------
CARTESIAN COORDINATES (ANGSTROEM)
---------------------------------
  C      1.937928   -0.133670    0.000029
  C      0.560677    0.518095   -0.000035
  C     -0.560679   -0.518097   -0.000035
  C     -1.937928    0.133671    0.000029
  H      2.720308    0.621859    0.000307
  H      2.064099   -0.758699    0.881646
  H      2.064375   -0.758381   -0.881779
  H      0.460868    1.155707    0.881578
  H      0.460914    1.155657   -0.881689
  H     -0.460921   -1.155668   -0.881681
  H     -0.460859   -1.155699    0.881584
  H     -2.064275    0.758568   -0.881661
  H     -2.064187    0.758520    0.881760
  H     -2.720310   -0.621856    0.000073

----------------------------
CARTESIAN COORDINATES (A.U.)
----------------------------
  NO LB      ZA    FRAG     MASS         X           Y           Z
   0 C     6.0000    0    12.011    3.662153   -0.252599    0.000055
   1 C     6.0000    0    12.011    1.059527    0.979057   -0.000066
   2 C     6.0000    0    12.011   -1.059529   -0.979061   -0.000066
   3 C     6.0000    0    12.011   -3.662152    0.252601    0.000055
   4 H     1.0000    0     1.008    5.140637    1.175142    0.000580
   5 H     1.0000    0     1.008    3.900582   -1.433734    1.666070
   6 H     1.0000    0     1.008    3.901103   -1.433132   -1.666321
   7 H     1.0000    0     1.008    0.870914    2.183969    1.665941
   8 H     1.0000    0     1.008    0.871001    2.183875   -1.666150
   9 H     1.0000    0     1.008   -0.871015   -2.183896   -1.666136
  10 H     1.0000    0     1.008   -0.870898   -2.183955    1.665952
  11 H     1.0000    0     1.008   -3.900915    1.433487   -1.666098
  12 H     1.0000    0     1.008   -3.900749    1.433395    1.666285
  13 H     1.0000    0     1.008   -5.140641   -1.175138    0.000138

--------------------------------
INTERNAL COORDINATES (ANGSTROEM)
--------------------------------
 C      0   0   0     0.000000000000     0.00000000     0.00000000
 C      1   0   0     1.523685040882     0.00000000     0.00000000
 C      2   1   0     1.526804618224   111.93526815     0.00000000
 C      3   2   1     1.523684771331   111.93513591   179.99482507
 H      1   2   3     1.087630846506   110.67507875   180.01571108
 H      1   2   3     1.088039945734   110.52263230   300.09822753
 H      1   2   3     1.088043107355   110.52477605    59.92968186
 H      2   1   3     1.092589433499   109.40036402   121.18512591
 H      2   1   3     1.092589731093   109.40097114   238.81449776
 H      3   2   1     1.092587910607   109.20645387   301.29338875
 H      3   2   1     1.092589803217   109.20505582    58.69757981
 H      4   3   2     1.088043489170   110.52426965    59.91618859
 H      4   3   2     1.088038453148   110.52288891   300.08523625
 H      4   3   2     1.087631887093   110.67508605   180.00254026

---------------------------
INTERNAL COORDINATES (A.U.)
---------------------------
 C      0   0   0     0.000000000000     0.00000000     0.00000000
 C      1   0   0     2.879347441620     0.00000000     0.00000000
 C      2   1   0     2.885242588450   111.93526815     0.00000000
 C      3   2   1     2.879346932243   111.93513591   179.99482507
 H      1   2   3     2.055324434701   110.67507875   180.01571108
 H      1   2   3     2.056097520203   110.52263230   300.09822753
 H      1   2   3     2.056103494801   110.52477605    59.92968186
 H      2   1   3     2.064694806130   109.40036402   121.18512591
 H      2   1   3     2.064695368500   109.40097114   238.81449776
 H      3   2   1     2.064691928280   109.20645387   301.29338875
 H      3   2   1     2.064695504795   109.20505582    58.69757981
 H      4   3   2     2.056104216327   110.52426965    59.91618859
 H      4   3   2     2.056094699624   110.52288891   300.08523625
 H      4   3   2     2.055326401126   110.67508605   180.00254026

---------------------
BASIS SET INFORMATION
---------------------
There are 2 groups of distinct atoms

 Group   1 Type C   : 7s4p1d contracted to 3s2p1d pattern {511/31/1}
 Group   2 Type H   : 4s contracted to 2s pattern {31}

Atom   0C    basis set group =>   1
Atom   1C    basis set group =>   1
Atom   2C    basis set group =>   1
Atom   3C    basis set group =>   1
Atom   4H    basis set group =>   2
Atom   5H    basis set group =>   2
Atom   6H    basis set group =>   2
Atom   7H    basis set group =>   2
Atom   8H    basis set group =>   2
Atom   9H    basis set group =>   2
Atom  10H    basis set group =>   2
Atom  11H    basis set group =>   2
Atom  12H    basis set group =>   2
Atom  13H    basis set group =>   2
---------------------------------
AUXILIARY/J BASIS SET INFORMATION
---------------------------------
There are 2 groups of distinct atoms

 Group   1 Type C   : 12s5p4d2f1g contracted to 6s4p3d1f1g pattern {711111/2111/211/2/1}
 Group   2 Type H   : 5s2p1d contracted to 3s1p1d pattern {311/2/1}

Atom   0C    basis set group =>   1
Atom   1C    basis set group =>   1
Atom   2C    basis set group =>   1
Atom   3C    basis set group =>   1
Atom   4H    basis set group =>   2
Atom   5H    basis set group =>   2
Atom   6H    basis set group =>   2
Atom   7H    basis set group =>   2
Atom   8H    basis set group =>   2
Atom   9H    basis set group =>   2
Atom  10H    basis set group =>   2
Atom  11H    basis set group =>   2
Atom  12H    basis set group =>   2
Atom  13H    basis set group =>   2
------------------------------------------------------------------------------
                             ORCA STARTUP CALCULATIONS
                           -- RI-GTO INTEGRALS CHOSEN --
------------------------------------------------------------------------------
------------------------------------------------------------------------------
                   ___                                                        
                  /   \      - P O W E R E D   B Y -                         
                 /     \                                                     
                 |  |  |   _    _      __       _____    __    __             
                 |  |  |  | |  | |    /  \     |  _  \  |  |  /  |          
                  \  \/   | |  | |   /    \    | | | |  |  | /  /          
                 / \  \   | |__| |  /  /\  \   | |_| |  |  |/  /          
                |  |  |   |  __  | /  /__\  \  |    /   |      \           
                |  |  |   | |  | | |   __   |  |    \   |  |\   \          
                \     /   | |  | | |  |  |  |  | |\  \  |  | \   \       
                 \___/    |_|  |_| |__|  |__|  |_| \__\ |__|  \__/        
                                                                              
                      - O R C A' S   B I G   F R I E N D -                    
                                      &                                       
                       - I N T E G R A L  F E E D E R -                       
                                                                              
 v1 FN, 2020, v2 2021, v3 2022-2024                                           
------------------------------------------------------------------------------


----------------------
SHARK INTEGRAL PACKAGE
----------------------

Number of atoms                             ...     14
Number of basis functions                   ...     76
Number of shells                            ...     44
Maximum angular momentum                    ...      2
Integral batch strategy                     ... SHARK/LIBINT Hybrid
RI-J (if used) integral strategy            ... SPLIT-RIJ (Revised 2003 algorithm where possible)
Printlevel                                  ...      1
Contraction scheme used                     ... SEGMENTED contraction
Prescreening option                         ... SCHWARTZ
   Thresh                                   ... 1.000e-09
   Tcut                                     ... 1.000e-10
   Tpresel                                  ... 1.000e-10 
Coulomb Range Separation                    ... NOT USED
Exchange Range Separation                   ... NOT USED
Multipole approximations                    ... NOT USED
Finite Nucleus Model                        ... NOT USED
CABS basis                                  ... NOT available
Auxiliary Coulomb fitting basis             ... AVAILABLE
   # of basis functions in Aux-J            ...    306
   # of shells in Aux-J                     ...    110
   Maximum angular momentum in Aux-J        ...      4
Auxiliary J/K fitting basis                 ... NOT available
Auxiliary Correlation fitting basis         ... NOT available
Auxiliary 'external' fitting basis          ... NOT available

Checking pre-screening integrals            ... done (  0.0 sec) Dimension = 44
Check shell pair data                       ... done (  0.0 sec)
Shell pair information
Shell pair cut-off parameter TPreSel        ...   1.0e-10
Total number of shell pairs                 ...       990
Shell pairs after pre-screening             ...       976
Total number of primitive shell pairs       ...      3998
Primitive shell pairs kept                  ...      3051
          la=0 lb=0:    518 shell pairs
          la=1 lb=0:    254 shell pairs
          la=1 lb=1:     36 shell pairs
          la=2 lb=0:    126 shell pairs
          la=2 lb=1:     32 shell pairs
          la=2 lb=2:     10 shell pairs

Calculating one electron integrals          ... done (  0.0 sec)
Calculating RI/J V-Matrix + Cholesky decomp.... done (  0.0 sec)
Calculating Nuclear repulsion               ... done (  0.0 sec) ENN=    131.251632543128 Eh

Diagonalization of the overlap matrix:
Smallest eigenvalue                        ... 2.036e-03
Time for diagonalization                   ...    0.000 sec
Threshold for overlap eigenvalues          ... 1.000e-07
Number of eigenvalues below threshold      ... 0
Time for construction of square roots      ...    0.000 sec
Total time needed                          ...    0.001 sec

-------------------
DFT GRID GENERATION
-------------------

General Integration Accuracy     IntAcc      ... 4.159
Radial Grid Type                 RadialGrid  ... OptM3 with GC (2021)
Angular Grid (max. ang.)         AngularGrid ... 3 (Lebedev-194)
Angular grid pruning method      GridPruning ... 4 (adaptive)
Weight generation scheme         WeightScheme... mBecke (2022)
Basis function cutoff            BFCut       ... 1.0000e-10
Integration weight cutoff        WCut        ... 1.0000e-14
Partially contracted basis set               ... off
Rotationally invariant grid construction     ... off
Angular grids for H and He will be reduced by one unit

Total number of grid points                  ...    27210
Total number of batches                      ...      434
Average number of points per batch           ...       62
Average number of grid points per atom       ...     1944
Initializing property integral containers    ... done (  0.0 sec)

SHARK setup successfully completed in   0.1 seconds

Maximum memory used throughout the entire STARTUP-calculation: 13.0 MB
-------------------------------------------------------------------------------
                                 ORCA GUESS
                   Start orbitals & Density for SCF / CASSCF
-------------------------------------------------------------------------------

------------
SCF SETTINGS
------------
Hamiltonian:
 Density Functional     Method          .... DFT(GTOs)
 Exchange Functional    Exchange        .... PBE
   PBE kappa parameter   XKappa         ....  0.804000
   PBE mue parameter    XMuePBE         ....  0.219520
 Correlation Functional Correlation     .... PBE
   PBE beta parameter  CBetaPBE         ....  0.066725
 LDA part of GGA corr.  LDAOpt          .... PW91-LDA
 Gradients option       PostSCFGGA      .... off
   NL short-range parameter             ....  6.400000
 RI-approximation to the Coulomb term is turned on
   Number of AuxJ basis functions       .... 306


General Settings:
 Integral files         IntName         .... sp
 Hartree-Fock type      HFTyp           .... RHF
 Total Charge           Charge          ....    0
 Multiplicity           Mult            ....    1
 Number of Electrons    NEL             ....   34
 Basis Dimension        Dim             ....   76
 Nuclear Repulsion      ENuc            ....    131.2516325431 Eh

Convergence Acceleration:
 AO-DIIS                CNVDIIS         .... on
   Start iteration      DIISMaxIt       ....    12
   Startup error        DIISStart       ....  0.200000
   # of expansion vecs  DIISMaxEq       ....     5
   Bias factor          DIISBfac        ....   1.050
   Max. coefficient     DIISMaxC        ....  10.000
 MO-DIIS                CNVKDIIS        .... off
 Trust-Rad. Augm. Hess. CNVTRAH         .... auto
   Auto Start mean grad. ratio tolernc. ....  1.125000
   Auto Start start iteration           ....    50
   Auto Start num. interpolation iter.  ....    10
   Max. Number of Micro iterations      ....    24
   Max. Number of Macro iterations      .... Maxiter - #DIIS iter
   Number of Davidson start vectors     ....     2
   Converg. threshold    (grad. norm)   ....   1.000e-04
   Grad. Scal. Fac. for Micro threshold ....   0.100
   Minimum threshold for Micro iter.    ....   1.000e-02
   NR start threshold (gradient norm)   ....   1.000e-04
   Initial trust radius                 ....   0.400
   Minimum AH scaling param. (alpha)    ....   1.000
   Maximum AH scaling param. (alpha)    .... 1000.000
   Quad. conv. algorithm                .... NR
   White noise on init. David. guess    .... on
   Maximum white noise                  ....   0.010
   Pseudo random numbers                .... off
   Inactive MOs                         .... canonical
   Orbital update algorithm             .... Taylor
   Preconditioner                       .... Diag
   Full preconditioner red. dimension   ....   250
 SOSCF                  CNVSOSCF        .... on
   Start iteration      SOSCFMaxIt      ....   150
   Startup grad/error   SOSCFStart      ....  0.003300
   Hessian update       SOSCFHessUp     .... L-BFGS
 Level Shifting         CNVShift        .... on
   Level shift para.    LevelShift      ....    0.2500
   Turn off err/grad.   ShiftErr        ....    0.0010
 Zerner damping         CNVZerner       .... off
 Static damping         CNVDamp         .... on
   Fraction old density DampFac         ....    0.7000
   Max. Damping (<1)    DampMax         ....    0.9800
   Min. Damping (>=0)   DampMin         ....    0.0000
   Turn off err/grad.   DampErr         ....    0.1000

SCF Procedure:
 Maximum # iterations   MaxIter         ....   125
 SCF integral mode      SCFMode         .... Direct
   Integral package                     .... SHARK and LIBINT hybrid scheme
 Reset frequency        DirectResetFreq ....    20
 Integral Threshold     Thresh          ....  1.000e-09 Eh
 Primitive CutOff       TCut            ....  1.000e-10 Eh

Convergence Tolerance:
 Convergence Check Mode ConvCheckMode   .... Total+1el-Energy
 Convergence forced     ConvForced      .... 0
 Energy Change          TolE            ....  1.000e-05 Eh
 1-El. energy change                    ....  1.000e-02 Eh
 Orbital Gradient       TolG            ....  1.000e-04
 Orbital Rotation angle TolX            ....  1.000e-04
 DIIS Error             TolErr          ....  5.000e-04

------------------------------
INITIAL GUESS: MODEL POTENTIAL
------------------------------
Loading Hartree-Fock densities                     ... done
Calculating cut-offs                               ... done
Initializing the effective Hamiltonian             ... done
Setting up the integral package (SHARK)            ... done
Starting the Coulomb interaction                   ... done (   0.0 sec)
Making the grid                                    ... done (   0.0 sec)
Mapping shells                                     ... done
Starting the XC term evaluation                    ... done (   0.0 sec)
  promolecular density results
     # of electrons  =     33.991217142
     EX              =    -23.403242392
     EC              =     -1.081913150
     EX+EC           =    -24.485155542
Transforming the Hamiltonian                       ... done (   0.0 sec)
Diagonalizing the Hamiltonian                      ... done (   0.0 sec)
Back transforming the eigenvectors                 ... done (   0.0 sec)
Now organizing SCF variables                       ... done
                      ------------------
                      INITIAL GUESS DONE (   0.1 sec)
                      ------------------
             **** ENERGY FILE WAS UPDATED (sp.en.tmp) ****
Finished Guess after   0.1 sec
Maximum memory used throughout the entire GUESS-calculation: 10.0 MB

-------------------------------------------------------------------------------------------
                                      ORCA LEAN-SCF
                              memory conserving SCF solver
-------------------------------------------------------------------------------------------

----------------------------------------D-I-I-S--------------------------------------------
Iteration    Energy (Eh)           Delta-E    RMSDP     MaxDP     DIISErr   Damp  Time(sec)
-------------------------------------------------------------------------------------------
               ***  Starting incremental Fock matrix formation  ***
    1    -157.9179388757018501     0.00e+00  6.17e-03  8.20e-02  1.65e-01  0.700   0.1
    2    -157.9951223853170177    -7.72e-02  4.44e-03  4.73e-02  7.87e-02  0.700   0.1
                               ***Turning on AO-DIIS***
    3    -158.0217396378660055    -2.66e-02  1.79e-03  1.28e-02  2.23e-02  0.700   0.1
    4    -158.0370314541212338    -1.53e-02  2.56e-03  1.85e-02  8.54e-03  0.000   0.1
    5    -158.0720467029107112    -3.50e-02  7.80e-04  6.13e-03  8.87e-03  0.000   0.1
                              *** Initializing SOSCF ***
---------------------------------------S-O-S-C-F--------------------------------------
Iteration    Energy (Eh)           Delta-E    RMSDP     MaxDP     MaxGrad    Time(sec)
--------------------------------------------------------------------------------------
    6    -158.0725518258267357    -5.05e-04  2.94e-04  2.12e-03  2.14e-03     0.1
               *** Restarting incremental Fock matrix formation ***
    7    -158.0725925401367817    -4.07e-05  2.16e-04  1.48e-03  5.00e-04     0.1
    8    -158.0725917777979248     7.62e-07  6.42e-05  9.61e-04  4.16e-04     0.1
                 **** Energy Check signals convergence ****

               *****************************************************
               *                     SUCCESS                       *
               *           SCF CONVERGED AFTER   8 CYCLES          *
               *****************************************************

             **** ENERGY FILE WAS UPDATED (sp.en.tmp) ****

----------------
TOTAL SCF ENERGY
----------------

Total Energy       :       -158.07259177779792 Eh           -4301.37390 eV

Components:
Nuclear Repulsion  :        131.25163254312815 Eh            3571.53850 eV
Electronic Energy  :       -289.32422432092608 Eh           -7872.91239 eV
One Electron Energy:       -470.77335247156174 Eh          -12810.39419 eV
Two Electron Energy:        181.44912815063566 Eh            4937.48179 eV

Virial components:
Potential Energy   :       -314.60537975549187 Eh           -8560.84761 eV
Kinetic Energy     :        156.53278797769391 Eh            4259.47371 eV
Virial Ratio       :          2.00983694100129

DFT components:
N(Alpha)           :       17.000289881403 electrons
N(Beta)            :       17.000289881403 electrons
N(Total)           :       34.000579762805 electrons
E(X)               :      -24.103571633729 Eh       
E(C)               :       -1.094534792725 Eh       
E(XC)              :      -25.198106426454 Eh       

---------------
SCF CONVERGENCE
---------------

  Last Energy change         ...   -7.6234e-07  Tolerance :   1.0000e-05
  Last MAX-Density change    ...    9.6102e-04  Tolerance :   1.0000e-03
  Last RMS-Density change    ...    6.4239e-05  Tolerance :   1.0000e-04
  Last DIIS Error            ...    2.1392e-03  Tolerance :   5.0000e-04
  Last Orbital Gradient      ...    4.1645e-04  Tolerance :   1.0000e-04
  Last Orbital Rotation      ...    3.3471e-04  Tolerance :   1.0000e-04


----------------
ORBITAL ENERGIES
----------------

  NO   OCC          E(Eh)            E(eV) 
   0   2.0000      -9.878969      -268.8204 
   1   2.0000      -9.878926      -268.8193 
   2   2.0000      -9.869186      -268.5542 
   3   2.0000      -9.869182      -268.5541 
   4   2.0000      -0.713745       -19.4220 
   5   2.0000      -0.646495       -17.5920 
   6   2.0000      -0.556813       -15.1517 
   7   2.0000      -0.509642       -13.8681 
   8   2.0000      -0.420432       -11.4405 
   9   2.0000      -0.379093       -10.3156 
  10   2.0000      -0.370049       -10.0696 
  11   2.0000      -0.364062        -9.9066 
  12   2.0000      -0.322459        -8.7745 
  13   2.0000      -0.305394        -8.3102 
  14   2.0000      -0.289103        -7.8669 
  15   2.0000      -0.280707        -7.6384 
  16   2.0000      -0.277319        -7.5462 
  17   0.0000       0.040155         1.0927 
  18   0.0000       0.064855         1.7648 
  19   0.0000       0.075747         2.0612 
  20   0.0000       0.082550         2.2463 
  21   0.0000       0.118284         3.2187 
  22   0.0000       0.125234         3.4078 
  23   0.0000       0.132587         3.6079 
  24   0.0000       0.137340         3.7372 
  25   0.0000       0.142507         3.8778 
  26   0.0000       0.151751         4.1293 
  27   0.0000       0.201631         5.4867 
*Only the first 10 virtual orbitals were printed.

                    ********************************
                    * MULLIKEN POPULATION ANALYSIS *
                    ********************************

-----------------------
MULLIKEN ATOMIC CHARGES
-----------------------
   0 C :   -0.259356
   1 C :   -0.200083
   2 C :   -0.200082
   3 C :   -0.259355
   4 H :    0.100674
   5 H :    0.096003
   6 H :    0.096008
   7 H :    0.083375
   8 H :    0.083378
   9 H :    0.083378
  10 H :    0.083375
  11 H :    0.096007
  12 H :    0.096004
  13 H :    0.100674
Sum of atomic charges:   -0.0000000

--------------------------------
MULLIKEN REDUCED ORBITAL CHARGES
--------------------------------
  0 C s       :     3.080584  s :     3.080584
      pz      :     1.066377  p :     3.149326
      px      :     1.032342
      py      :     1.050607
      dz2     :     0.005123  d :     0.029447
      dxz     :     0.002914
      dyz     :     0.009149
      dx2y2   :     0.003980
      dxy     :     0.008281

  1 C s       :     3.081079  s :     3.081079
      pz      :     1.040333  p :     3.081877
      px      :     0.994088
      py      :     1.047456
      dz2     :     0.005191  d :     0.037127
      dxz     :     0.004256
      dyz     :     0.012286
      dx2y2   :     0.007773
      dxy     :     0.007620

  2 C s       :     3.081078  s :     3.081078
      pz      :     1.040334  p :     3.081877
      px      :     0.994087
      py      :     1.047456
      dz2     :     0.005191  d :     0.037127
      dxz     :     0.004256
      dyz     :     0.012286
      dx2y2   :     0.007773
      dxy     :     0.007620

  3 C s       :     3.080584  s :     3.080584
      pz      :     1.066378  p :     3.149325
      px      :     1.032341
      py      :     1.050606
      dz2     :     0.005123  d :     0.029447
      dxz     :     0.002914
      dyz     :     0.009149
      dx2y2   :     0.003980
      dxy     :     0.008281

  4 H s       :     0.899326  s :     0.899326

  5 H s       :     0.903997  s :     0.903997

  6 H s       :     0.903992  s :     0.903992

  7 H s       :     0.916625  s :     0.916625

  8 H s       :     0.916622  s :     0.916622

  9 H s       :     0.916622  s :     0.916622

 10 H s       :     0.916625  s :     0.916625

 11 H s       :     0.903993  s :     0.903993

 12 H s       :     0.903996  s :     0.903996

 13 H s       :     0.899326  s :     0.899326


------------------------
MULLIKEN OVERLAP CHARGES
------------------------
B(  0-C ,  1-C ) :   0.8846 B(  0-C ,  2-C ) :  -0.1154 B(  0-C ,  4-H ) :   0.7320 
B(  0-C ,  5-H ) :   0.7563 B(  0-C ,  6-H ) :   0.7563 B(  1-C ,  2-C ) :   0.9053 
B(  1-C ,  3-C ) :  -0.1154 B(  1-C ,  7-H ) :   0.7187 B(  1-C ,  8-H ) :   0.7187 
B(  1-C ,  9-H ) :  -0.0557 B(  1-C , 10-H ) :  -0.0557 B(  2-C ,  3-C ) :   0.8846 
B(  2-C ,  7-H ) :  -0.0557 B(  2-C ,  8-H ) :  -0.0557 B(  2-C ,  9-H ) :   0.7187 
B(  2-C , 10-H ) :   0.7187 B(  3-C , 11-H ) :   0.7563 B(  3-C , 12-H ) :   0.7563 
B(  3-C , 13-H ) :   0.7320 B(  5-H ,  6-H ) :  -0.0536 B(  7-H ,  8-H ) :  -0.0719 
B(  9-H , 10-H ) :  -0.0719 B( 11-H , 12-H ) :  -0.0536 


                     *******************************
                     * LOEWDIN POPULATION ANALYSIS *
                     *******************************

----------------------
LOEWDIN ATOMIC CHARGES
----------------------
   0 C :   -0.340415
   1 C :   -0.235441
   2 C :   -0.235441
   3 C :   -0.340415
   4 H :    0.117737
   5 H :    0.116098
   6 H :    0.116100
   7 H :    0.112959
   8 H :    0.112961
   9 H :    0.112961
  10 H :    0.112959
  11 H :    0.116100
  12 H :    0.116099
  13 H :    0.117737

-------------------------------
LOEWDIN REDUCED ORBITAL CHARGES
-------------------------------
  0 C s       :     2.945412  s :     2.945412
      pz      :     1.124989  p :     3.323934
      px      :     1.083185
      py      :     1.115760
      dz2     :     0.013583  d :     0.071069
      dxz     :     0.005271
      dyz     :     0.021685
      dx2y2   :     0.009921
      dxy     :     0.020609

  1 C s       :     2.908786  s :     2.908786
      pz      :     1.102058  p :     3.237578
      px      :     1.050840
      py      :     1.084680
      dz2     :     0.013994  d :     0.089077
      dxz     :     0.007660
      dyz     :     0.028075
      dx2y2   :     0.017545
      dxy     :     0.021803

  2 C s       :     2.908786  s :     2.908786
      pz      :     1.102059  p :     3.237578
      px      :     1.050840
      py      :     1.084680
      dz2     :     0.013994  d :     0.089077
      dxz     :     0.007660
      dyz     :     0.028075
      dx2y2   :     0.017545
      dxy     :     0.021803

  3 C s       :     2.945412  s :     2.945412
      pz      :     1.124989  p :     3.323934
      px      :     1.083185
      py      :     1.115760
      dz2     :     0.013583  d :     0.071069
      dxz     :     0.005271
      dyz     :     0.021685
      dx2y2   :     0.009921
      dxy     :     0.020609

  4 H s       :     0.882263  s :     0.882263

  5 H s       :     0.883902  s :     0.883902

  6 H s       :     0.883900  s :     0.883900

  7 H s       :     0.887041  s :     0.887041

  8 H s       :     0.887039  s :     0.887039

  9 H s       :     0.887039  s :     0.887039

 10 H s       :     0.887041  s :     0.887041

 11 H s       :     0.883900  s :     0.883900

 12 H s       :     0.883901  s :     0.883901

 13 H s       :     0.882263  s :     0.882263


---------------------------------
LOEWDIN BOND ORDERS (THRESH 0.050000)
---------------------------------
B(  0-C ,  1-C ) :   1.1326 B(  0-C ,  2-C ) :   0.0567 B(  0-C ,  4-H ) :   0.9399 
B(  0-C ,  5-H ) :   0.9413 B(  0-C ,  6-H ) :   0.9413 B(  1-C ,  2-C ) :   1.0983 
B(  1-C ,  3-C ) :   0.0567 B(  1-C ,  7-H ) :   0.9082 B(  1-C ,  8-H ) :   0.9082 
B(  2-C ,  3-C ) :   1.1326 B(  2-C ,  9-H ) :   0.9082 B(  2-C , 10-H ) :   0.9082 
B(  3-C , 11-H ) :   0.9413 B(  3-C , 12-H ) :   0.9413 B(  3-C , 13-H ) :   0.9399 


------------------------------------------
LOEWDIN REDUCED ORBITAL POPULATIONS PER MO
-------------------------------------------
THRESHOLD FOR PRINTING IS 0.1%%
                      0         1         2         3         4         5   
                  -9.87897  -9.87893  -9.86919  -9.86918  -0.71375  -0.64650
                   2.00000   2.00000   2.00000   2.00000   2.00000   2.00000
                  --------  --------  --------  --------  --------  --------
 0 C  s               0.0       0.0      49.3      50.4       9.9      20.1
 0 C  px              0.0       0.0       0.0       0.0       2.3       0.2
 0 C  py              0.0       0.0       0.0       0.0       0.2       0.2
 1 C  s              50.1      49.6       0.0       0.0      22.2       6.0
 1 C  px              0.0       0.0       0.0       0.0       0.2       7.5
 1 C  py              0.0       0.0       0.0       0.0       1.6       0.0
 1 C  dxy             0.0       0.0       0.0       0.0       0.0       0.2
 2 C  s              49.6      50.0       0.0       0.0      22.2       6.0
 2 C  px              0.0       0.0       0.0       0.0       0.2       7.5
 2 C  py              0.0       0.0       0.0       0.0       1.6       0.0
 2 C  dxy             0.0       0.0       0.0       0.0       0.0       0.2
 3 C  s               0.0       0.0      50.4      49.3       9.9      20.1
 3 C  px              0.0       0.0       0.0       0.0       2.3       0.2
 3 C  py              0.0       0.0       0.0       0.0       0.2       0.2
 4 H  s               0.0       0.0       0.0       0.0       1.7       4.7
 5 H  s               0.0       0.0       0.0       0.0       1.9       4.4
 6 H  s               0.0       0.0       0.0       0.0       1.9       4.4
 7 H  s               0.0       0.0       0.0       0.0       4.1       1.2
 8 H  s               0.0       0.0       0.0       0.0       4.1       1.2
 9 H  s               0.0       0.0       0.0       0.0       4.1       1.2
10 H  s               0.0       0.0       0.0       0.0       4.1       1.2
11 H  s               0.0       0.0       0.0       0.0       1.9       4.4
12 H  s               0.0       0.0       0.0       0.0       1.9       4.4
13 H  s               0.0       0.0       0.0       0.0       1.7       4.7

                      6         7         8         9        10        11   
                  -0.55681  -0.50964  -0.42043  -0.37909  -0.37005  -0.36406
                   2.00000   2.00000   2.00000   2.00000   2.00000   2.00000
                  --------  --------  --------  --------  --------  --------
 0 C  s              14.1       2.4       0.0       0.0       0.2       0.0
 0 C  pz              0.0       0.0      10.1       0.0       0.0      24.0
 0 C  px              4.1       2.2       0.0       1.1      23.0       0.0
 0 C  py              0.4       3.8       0.0      19.1       1.7       0.0
 0 C  dz2             0.0       0.1       0.0       0.1       0.0       0.0
 0 C  dyz             0.0       0.0       0.0       0.0       0.0       0.2
 0 C  dxy             0.0       0.1       0.0       0.0       0.3       0.0
 1 C  s               5.7      10.2       0.0       0.1       1.0       0.0
 1 C  pz              0.0       0.0      23.8       0.0       0.0       7.3
 1 C  px              6.5       0.0       0.0       6.0       6.5       0.0
 1 C  py              0.0      11.5       0.0       9.5       6.2       0.0
 1 C  dz2             0.0       0.2       0.0       0.1       0.0       0.0
 1 C  dxz             0.0       0.0       0.0       0.0       0.0       0.1
 1 C  dxy             0.2       0.0       0.0       0.0       0.1       0.0
 2 C  s               5.7      10.2       0.0       0.1       1.0       0.0
 2 C  pz              0.0       0.0      23.8       0.0       0.0       7.3
 2 C  px              6.5       0.0       0.0       6.0       6.5       0.0
 2 C  py              0.0      11.5       0.0       9.5       6.2       0.0
 2 C  dz2             0.0       0.2       0.0       0.1       0.0       0.0
 2 C  dxz             0.0       0.0       0.0       0.0       0.0       0.1
 2 C  dxy             0.2       0.0       0.0       0.0       0.1       0.0
 3 C  s              14.1       2.4       0.0       0.0       0.2       0.0
 3 C  pz              0.0       0.0      10.1       0.0       0.0      24.0
 3 C  px              4.1       2.2       0.0       1.1      23.0       0.0
 3 C  py              0.4       3.8       0.0      19.1       1.7       0.0
 3 C  dz2             0.0       0.1       0.0       0.1       0.0       0.0
 3 C  dyz             0.0       0.0       0.0       0.0       0.0       0.2
 3 C  dxy             0.0       0.1       0.0       0.0       0.3       0.0
 4 H  s               5.8       0.6       0.0       6.0      10.3       0.0
 5 H  s               4.8       2.3       2.5       2.7       0.0       7.2
 6 H  s               4.8       2.3       2.5       2.7       0.0       7.2
 7 H  s               1.8       7.2       5.5       1.3       0.3       2.0
 8 H  s               1.8       7.2       5.5       1.3       0.3       2.0
 9 H  s               1.8       7.2       5.5       1.3       0.3       2.0
10 H  s               1.8       7.2       5.5       1.3       0.3       2.0
11 H  s               4.8       2.3       2.5       2.7       0.0       7.2
12 H  s               4.8       2.3       2.5       2.7       0.0       7.2
13 H  s               5.8       0.6       0.0       6.0      10.3       0.0

                     12        13        14        15        16        17   
                  -0.32246  -0.30539  -0.28910  -0.28071  -0.27732   0.04015
                   2.00000   2.00000   2.00000   2.00000   2.00000   0.00000
                  --------  --------  --------  --------  --------  --------
 0 C  s               0.0       0.0       0.7       0.0       0.1       5.4
 0 C  pz              0.0      17.9       0.0       4.2       0.0       0.0
 0 C  px              0.2       0.0      10.8       0.0      10.3       1.7
 0 C  py             22.2       0.0       5.8       0.0       2.4       0.9
 0 C  dz2             0.3       0.0       0.1       0.0       0.1       0.1
 0 C  dxz             0.0       0.1       0.0       0.1       0.0       0.0
 0 C  dyz             0.0       0.5       0.0       0.3       0.0       0.0
 0 C  dx2y2           0.1       0.0       0.1       0.0       0.1       0.0
 0 C  dxy             0.1       0.0       0.0       0.0       0.5       0.2
 1 C  s               0.2       0.0       0.2       0.0       0.3       7.0
 1 C  pz              0.0       8.1       0.0      15.9       0.0       0.0
 1 C  px              4.7       0.0       5.5       0.0      15.5       0.0
 1 C  py              3.7       0.0      13.7       0.0       8.0       3.2
 1 C  dz2             0.1       0.0       0.3       0.0       0.0       0.2
 1 C  dxz             0.0       0.2       0.0       0.0       0.0       0.0
 1 C  dyz             0.0       0.2       0.0       1.1       0.0       0.0
 1 C  dx2y2           0.1       0.0       0.6       0.0       0.0       0.0
 1 C  dxy             0.0       0.0       0.0       0.0       0.5       0.0
 2 C  s               0.2       0.0       0.2       0.0       0.3       7.0
 2 C  pz              0.0       8.1       0.0      15.9       0.0       0.0
 2 C  px              4.7       0.0       5.5       0.0      15.5       0.0
 2 C  py              3.7       0.0      13.7       0.0       8.0       3.2
 2 C  dz2             0.1       0.0       0.3       0.0       0.0       0.2
 2 C  dxz             0.0       0.2       0.0       0.0       0.0       0.0
 2 C  dyz             0.0       0.2       0.0       1.1       0.0       0.0
 2 C  dx2y2           0.1       0.0       0.6       0.0       0.0       0.0
 2 C  dxy             0.0       0.0       0.0       0.0       0.5       0.0
 3 C  s               0.0       0.0       0.7       0.0       0.1       5.4
 3 C  pz              0.0      17.9       0.0       4.2       0.0       0.0
 3 C  px              0.2       0.0      10.8       0.0      10.3       1.7
 3 C  py             22.2       0.0       5.8       0.0       2.4       0.9
 3 C  dz2             0.3       0.0       0.1       0.0       0.1       0.1
 3 C  dxz             0.0       0.1       0.0       0.1       0.0       0.0
 3 C  dyz             0.0       0.5       0.0       0.3       0.0       0.0
 3 C  dx2y2           0.1       0.0       0.1       0.0       0.1       0.0
 3 C  dxy             0.1       0.0       0.0       0.0       0.5       0.2
 4 H  s               6.0       0.0       0.1       0.0       9.0       3.5
 5 H  s               4.7       8.2       1.6       3.4       0.6       5.1
 6 H  s               4.7       8.2       1.6       3.4       0.6       5.1
 7 H  s               1.5       3.3       4.4      10.7       0.9       8.7
 8 H  s               1.5       3.3       4.4      10.7       0.9       8.7
 9 H  s               1.5       3.3       4.4      10.7       0.9       8.7
10 H  s               1.5       3.3       4.4      10.7       0.9       8.7
11 H  s               4.7       8.2       1.6       3.4       0.6       5.1
12 H  s               4.7       8.2       1.6       3.4       0.6       5.1
13 H  s               6.0       0.0       0.1       0.0       9.0       3.5

                     18        19        20        21        22        23   
                   0.06486   0.07575   0.08255   0.11828   0.12523   0.13259
                   0.00000   0.00000   0.00000   0.00000   0.00000   0.00000
                  --------  --------  --------  --------  --------  --------
 0 C  s              15.1       0.0       0.0       0.1       8.4       0.0
 0 C  pz              0.0       5.5       0.0       0.0       0.0      12.3
 0 C  px              0.9       0.0       0.2       5.7       2.2       0.0
 0 C  py              0.0       0.0       4.8       7.6       0.5       0.0
 0 C  dz2             0.0       0.0       0.1       0.3       0.0       0.0
 0 C  dxz             0.0       0.2       0.0       0.0       0.0       0.1
 0 C  dyz             0.0       0.3       0.0       0.0       0.0       0.5
 0 C  dxy             0.0       0.0       0.2       0.5       0.7       0.0
 1 C  s               0.4       0.0       4.4       0.0       6.6       0.0
 1 C  pz              0.0       8.0       0.0       0.0       0.0       1.9
 1 C  px              0.9       0.0       0.2       0.6       0.7       0.0
 1 C  py              0.0       0.0       4.4       1.7       0.8       0.0
 1 C  dz2             0.0       0.0       0.0       0.4       0.0       0.0
 1 C  dyz             0.0       0.7       0.0       0.0       0.0       0.1
 1 C  dx2y2           0.3       0.0       0.6       0.1       0.0       0.0
 1 C  dxy             0.4       0.0       0.0       0.3       0.5       0.0
 2 C  s               0.4       0.0       4.4       0.0       6.6       0.0
 2 C  pz              0.0       8.0       0.0       0.0       0.0       1.9
 2 C  px              0.9       0.0       0.2       0.6       0.7       0.0
 2 C  py              0.0       0.0       4.4       1.7       0.8       0.0
 2 C  dz2             0.0       0.0       0.0       0.4       0.0       0.0
 2 C  dyz             0.0       0.7       0.0       0.0       0.0       0.1
 2 C  dx2y2           0.3       0.0       0.6       0.1       0.0       0.0
 2 C  dxy             0.4       0.0       0.0       0.3       0.5       0.0
 3 C  s              15.1       0.0       0.0       0.1       8.4       0.0
 3 C  pz              0.0       5.5       0.0       0.0       0.0      12.3
 3 C  px              0.9       0.0       0.2       5.7       2.2       0.0
 3 C  py              0.0       0.0       4.8       7.6       0.5       0.0
 3 C  dz2             0.0       0.0       0.1       0.3       0.0       0.0
 3 C  dxz             0.0       0.2       0.0       0.0       0.0       0.1
 3 C  dyz             0.0       0.3       0.0       0.0       0.0       0.5
 3 C  dxy             0.0       0.0       0.2       0.5       0.7       0.0
 4 H  s              12.5       0.0       5.4      27.1       3.7       0.0
 5 H  s               9.5       6.9       3.6       2.5       7.3      14.8
 6 H  s               9.5       6.9       3.6       2.5       7.3      14.8
 7 H  s               0.1      10.8      11.2       0.2       5.7       2.8
 8 H  s               0.1      10.8      11.2       0.2       5.7       2.8
 9 H  s               0.1      10.8      11.2       0.2       5.7       2.8
10 H  s               0.1      10.8      11.2       0.2       5.7       2.8
11 H  s               9.5       6.9       3.6       2.5       7.3      14.8
12 H  s               9.5       6.9       3.6       2.5       7.3      14.8
13 H  s              12.5       0.0       5.4      27.1       3.7       0.0

                     24        25        26        27        28        29   
                   0.13734   0.14251   0.15175   0.20163   0.20303   0.21246
                   0.00000   0.00000   0.00000   0.00000   0.00000   0.00000
                  --------  --------  --------  --------  --------  --------
 0 C  s               0.0       0.0       0.0       0.9       1.3       0.4
 0 C  pz              0.0       1.7       9.0       0.0       0.0       0.0
 0 C  px              0.9       0.0       0.0      11.3      11.8       6.6
 0 C  py              7.3       0.0       0.0       1.0       5.0       4.3
 0 C  dz2             0.7       0.0       0.0       0.4       0.3       1.3
 0 C  dxz             0.0       0.9       0.1       0.0       0.0       0.0
 0 C  dyz             0.0       0.3       0.7       0.0       0.0       0.0
 0 C  dx2y2           0.2       0.0       0.0       3.3       0.8       0.0
 0 C  dxy             0.1       0.0       0.0       0.6       2.0       0.9
 1 C  s               6.9       0.0       0.0       7.3       1.1       0.3
 1 C  pz              0.0      12.0       5.4       0.0       0.0       0.0
 1 C  px              0.7       0.0       0.0       1.5       9.2      22.8
 1 C  py              0.3       0.0       0.0      13.5       6.6       4.6
 1 C  dz2             0.1       0.0       0.0       2.5       1.9       0.4
 1 C  dxz             0.0       0.8       1.0       0.0       0.0       0.0
 1 C  dyz             0.0       0.2       0.6       0.0       0.0       0.0
 1 C  dx2y2           0.2       0.0       0.0       0.8       0.0       1.0
 1 C  dxy             0.6       0.0       0.0       0.3       1.1       4.8
 2 C  s               6.9       0.0       0.0       7.3       1.1       0.3
 2 C  pz              0.0      12.0       5.4       0.0       0.0       0.0
 2 C  px              0.7       0.0       0.0       1.5       9.2      22.8
 2 C  py              0.3       0.0       0.0      13.5       6.6       4.6
 2 C  dz2             0.1       0.0       0.0       2.5       1.9       0.4
 2 C  dxz             0.0       0.8       1.0       0.0       0.0       0.0
 2 C  dyz             0.0       0.2       0.6       0.0       0.0       0.0
 2 C  dx2y2           0.2       0.0       0.0       0.8       0.0       1.0
 2 C  dxy             0.6       0.0       0.0       0.3       1.1       4.8
 3 C  s               0.0       0.0       0.0       0.9       1.3       0.4
 3 C  pz              0.0       1.7       9.0       0.0       0.0       0.0
 3 C  px              0.9       0.0       0.0      11.3      11.8       6.6
 3 C  py              7.3       0.0       0.0       1.0       5.0       4.3
 3 C  dz2             0.7       0.0       0.0       0.4       0.3       1.3
 3 C  dxz             0.0       0.9       0.1       0.0       0.0       0.0
 3 C  dyz             0.0       0.3       0.7       0.0       0.0       0.0
 3 C  dx2y2           0.2       0.0       0.0       3.3       0.8       0.0
 3 C  dxy             0.1       0.0       0.0       0.6       2.0       0.9
 4 H  s              14.7       0.0       0.0       1.6       2.3       0.4
 5 H  s               3.0       2.3      10.2       1.3       1.7       0.8
 6 H  s               3.0       2.3      10.2       1.3       1.7       0.8
 7 H  s               5.6      14.8       6.4       1.1       1.6       0.3
 8 H  s               5.6      14.7       6.4       1.1       1.6       0.3
 9 H  s               5.6      14.7       6.4       1.1       1.6       0.3
10 H  s               5.6      14.8       6.4       1.1       1.6       0.3
11 H  s               3.0       2.3      10.2       1.3       1.7       0.8
12 H  s               3.0       2.3      10.2       1.3       1.7       0.8
13 H  s              14.7       0.0       0.0       1.6       2.3       0.4

                     30        31        32        33        34        35   
                   0.38455   0.38633   0.39803   0.41089   0.42696   0.48997
                   0.00000   0.00000   0.00000   0.00000   0.00000   0.00000
                  --------  --------  --------  --------  --------  --------
 0 C  s               1.8       0.4       0.0       0.0       0.2       2.2
 0 C  pz              0.0       0.0      17.6       5.7       0.0       0.0
 0 C  px             19.0       2.0       0.0       0.0       0.8       4.1
 0 C  py              0.3      17.4       0.0       0.0       0.2      21.9
 0 C  dz2             0.1       4.1       0.0       0.0       0.0       3.4
 0 C  dxz             0.0       0.0       0.2       0.5       0.0       0.0
 0 C  dyz             0.0       0.0       5.1       2.5       0.0       0.0
 0 C  dx2y2           0.1       1.1       0.0       0.0       0.3       0.0
 0 C  dxy             3.5       0.0       0.0       0.0       0.9       0.8
 1 C  s               0.4       0.2       0.0       0.0       2.5       1.4
 1 C  pz              0.0       0.0       2.1       6.2       0.0       0.0
 1 C  px              6.7      10.4       0.0       0.0       4.0       1.7
 1 C  py              2.2       3.4       0.0       0.0      26.2       3.1
 1 C  dz2             1.4       0.4       0.0       0.0       3.6       1.0
 1 C  dxz             0.0       0.0       1.2       0.0       0.0       0.0
 1 C  dyz             0.0       0.0       1.2       5.5       0.0       0.0
 1 C  dx2y2           2.0       0.0       0.0       0.0       0.0       0.0
 1 C  dxy             0.1       0.7       0.0       0.0       2.0       0.7
 2 C  s               0.4       0.2       0.0       0.0       2.5       1.4
 2 C  pz              0.0       0.0       2.1       6.2       0.0       0.0
 2 C  px              6.7      10.4       0.0       0.0       4.0       1.7
 2 C  py              2.2       3.4       0.0       0.0      26.2       3.1
 2 C  dz2             1.4       0.4       0.0       0.0       3.6       1.0
 2 C  dxz             0.0       0.0       1.2       0.0       0.0       0.0
 2 C  dyz             0.0       0.0       1.2       5.5       0.0       0.0
 2 C  dx2y2           2.0       0.0       0.0       0.0       0.0       0.0
 2 C  dxy             0.1       0.7       0.0       0.0       2.0       0.7
 3 C  s               1.8       0.4       0.0       0.0       0.2       2.2
 3 C  pz              0.0       0.0      17.6       5.7       0.0       0.0
 3 C  px             19.0       2.0       0.0       0.0       0.8       4.1
 3 C  py              0.3      17.4       0.0       0.0       0.2      21.9
 3 C  dz2             0.1       4.1       0.0       0.0       0.0       3.4
 3 C  dxz             0.0       0.0       0.2       0.5       0.0       0.0
 3 C  dyz             0.0       0.0       5.1       2.5       0.0       0.0
 3 C  dx2y2           0.1       1.1       0.0       0.0       0.3       0.0
 3 C  dxy             3.5       0.0       0.0       0.0       0.9       0.8
 4 H  s               8.4       2.2       0.0       0.0       2.6       3.3
 5 H  s               0.0       3.8       8.6       4.9       0.4       2.9
 6 H  s               0.0       3.8       8.6       4.9       0.4       2.9
 7 H  s               2.0       0.1       2.8       9.9       3.0       0.2
 8 H  s               2.0       0.1       2.8       9.9       3.0       0.2
 9 H  s               2.0       0.1       2.8       9.9       3.0       0.2
10 H  s               2.0       0.1       2.8       9.9       3.0       0.2
11 H  s               0.0       3.8       8.6       4.9       0.4       2.9
12 H  s               0.0       3.8       8.6       4.9       0.4       2.9
13 H  s               8.4       2.2       0.0       0.0       2.6       3.3

                     36        37        38        39        40        41   
                   0.50997   0.57342   0.59426   0.62562   0.64779   0.64929
                   0.00000   0.00000   0.00000   0.00000   0.00000   0.00000
                  --------  --------  --------  --------  --------  --------
 0 C  s               0.0       6.9       0.3      12.3      15.3       0.0
 0 C  pz             21.1       0.0       0.0       0.0       0.0      11.5
 0 C  px              0.0      19.0       5.6       2.0       2.5       0.0
 0 C  py              0.0       3.7       0.1       1.1       4.1       0.0
 0 C  dz2             0.0       0.4       0.0       0.0       0.0       0.0
 0 C  dxz             0.5       0.0       0.0       0.0       0.0       0.6
 0 C  dyz             3.7       0.0       0.0       0.0       0.0       0.5
 0 C  dx2y2           0.0       0.0       0.1       0.1       0.1       0.0
 0 C  dxy             0.0       0.4       0.5       0.1       0.1       0.0
 1 C  s               0.0       0.6      11.9      16.7       2.6       0.0
 1 C  pz              9.5       0.0       0.0       0.0       0.0      20.2
 1 C  px              0.0       7.9       5.9       0.8       2.8       0.0
 1 C  py              0.0       0.4      11.2       6.1       0.6       0.0
 1 C  dz2             0.0       0.3       0.1       0.4       0.0       0.0
 1 C  dxz             0.9       0.0       0.0       0.0       0.0       0.1
 1 C  dyz             2.9       0.0       0.0       0.0       0.0       0.2
 1 C  dx2y2           0.0       0.2       0.1       0.1       0.0       0.0
 1 C  dxy             0.0       0.7       0.1       0.0       0.0       0.0
 2 C  s               0.0       0.6      11.9      16.7       2.6       0.0
 2 C  pz              9.5       0.0       0.0       0.0       0.0      20.2
 2 C  px              0.0       7.9       5.9       0.8       2.8       0.0
 2 C  py              0.0       0.4      11.2       6.1       0.6       0.0
 2 C  dz2             0.0       0.3       0.1       0.4       0.0       0.0
 2 C  dxz             0.9       0.0       0.0       0.0       0.0       0.1
 2 C  dyz             2.9       0.0       0.0       0.0       0.0       0.2
 2 C  dx2y2           0.0       0.2       0.1       0.1       0.0       0.0
 2 C  dxy             0.0       0.7       0.1       0.0       0.0       0.0
 3 C  s               0.0       6.9       0.3      12.3      15.3       0.0
 3 C  pz             21.1       0.0       0.0       0.0       0.0      11.5
 3 C  px              0.0      19.0       5.6       2.0       2.5       0.0
 3 C  py              0.0       3.7       0.1       1.1       4.1       0.0
 3 C  dz2             0.0       0.4       0.0       0.0       0.0       0.0
 3 C  dxz             0.5       0.0       0.0       0.0       0.0       0.6
 3 C  dyz             3.7       0.0       0.0       0.0       0.0       0.5
 3 C  dx2y2           0.0       0.0       0.1       0.1       0.1       0.0
 3 C  dxy             0.0       0.4       0.5       0.1       0.1       0.0
 4 H  s               0.0       7.3       1.3       0.7       5.9       0.0
 5 H  s               3.0       0.6       0.4       1.1       7.4       4.2
 6 H  s               3.0       0.6       0.4       1.1       7.4       4.1
 7 H  s               2.7       0.5       6.0       3.6       0.6       4.3
 8 H  s               2.7       0.5       6.0       3.6       0.6       4.3
 9 H  s               2.7       0.5       6.0       3.6       0.6       4.3
10 H  s               2.7       0.5       6.0       3.6       0.6       4.3
11 H  s               3.0       0.6       0.4       1.1       7.4       4.1
12 H  s               3.0       0.6       0.4       1.1       7.4       4.2
13 H  s               0.0       7.3       1.3       0.7       5.9       0.0

                     42        43        44        45        46        47   
                   0.66454   0.67437   0.68157   0.68390   0.68843   0.69053
                   0.00000   0.00000   0.00000   0.00000   0.00000   0.00000
                  --------  --------  --------  --------  --------  --------
 0 C  s               3.0       0.0       6.8       0.0      17.5       0.0
 0 C  pz              0.0      26.3       0.0       0.0       0.0       0.9
 0 C  px              4.2       0.0       4.3       9.6       6.6       0.0
 0 C  py              4.4       0.0       4.3      13.4       0.9       0.0
 0 C  dz2             0.1       0.0       0.8       0.7       0.2       0.0
 0 C  dxz             0.0       0.1       0.0       0.0       0.0       0.1
 0 C  dyz             0.0       1.2       0.0       0.0       0.0       0.5
 0 C  dx2y2           0.2       0.0       0.1       0.0       0.1       0.0
 0 C  dxy             0.2       0.0       0.2       0.9       0.2       0.0
 1 C  s               2.1       0.0       5.2       0.9       3.0       0.0
 1 C  pz              0.0       4.8       0.0       0.0       0.0      30.2
 1 C  px              7.2       0.0      16.7       4.2       0.9       0.0
 1 C  py             14.0       0.0       1.5       0.8       5.7       0.0
 1 C  dz2             0.0       0.0       0.3       0.3       0.4       0.0
 1 C  dyz             0.0       0.1       0.0       0.0       0.0       0.5
 1 C  dx2y2           0.2       0.0       0.0       0.1       0.2       0.0
 1 C  dxy             0.0       0.0       0.0       0.1       0.1       0.0
 2 C  s               2.1       0.0       5.2       0.9       3.0       0.0
 2 C  pz              0.0       4.8       0.0       0.0       0.0      30.2
 2 C  px              7.2       0.0      16.7       4.2       0.9       0.0
 2 C  py             14.0       0.0       1.5       0.8       5.7       0.0
 2 C  dz2             0.0       0.0       0.3       0.3       0.4       0.0
 2 C  dyz             0.0       0.1       0.0       0.0       0.0       0.5
 2 C  dx2y2           0.2       0.0       0.0       0.1       0.2       0.0
 2 C  dxy             0.0       0.0       0.0       0.1       0.1       0.0
 3 C  s               3.0       0.0       6.8       0.0      17.5       0.0
 3 C  pz              0.0      26.3       0.0       0.0       0.0       0.9
 3 C  px              4.2       0.0       4.3       9.6       6.6       0.0
 3 C  py              4.4       0.0       4.3      13.4       0.9       0.0
 3 C  dz2             0.1       0.0       0.8       0.7       0.2       0.0
 3 C  dxz             0.0       0.1       0.0       0.0       0.0       0.1
 3 C  dyz             0.0       1.2       0.0       0.0       0.0       0.5
 3 C  dx2y2           0.2       0.0       0.1       0.0       0.1       0.0
 3 C  dxy             0.2       0.0       0.2       0.9       0.2       0.0
 4 H  s               1.3       0.0       5.0      14.3       0.3       0.0
 5 H  s               2.9       8.6       0.9       2.3       2.5       1.9
 6 H  s               2.9       8.6       0.9       2.3       2.5       1.8
 7 H  s               3.7       0.2       1.6       0.0       4.5       7.1
 8 H  s               3.7       0.2       1.6       0.0       4.5       7.0
 9 H  s               3.7       0.2       1.6       0.0       4.5       7.0
10 H  s               3.7       0.2       1.5       0.0       4.5       7.1
11 H  s               2.9       8.6       0.9       2.3       2.5       1.8
12 H  s               2.9       8.6       0.9       2.3       2.5       1.9
13 H  s               1.3       0.0       5.0      14.3       0.3       0.0

                     48        49        50        51        52        53   
                   0.69578   0.70606   0.72725   0.74229   0.82700   0.99297
                   0.00000   0.00000   0.00000   0.00000   0.00000   0.00000
                  --------  --------  --------  --------  --------  --------
 0 C  s               1.4       0.0       4.9       3.7       0.0      11.9
 0 C  pz              0.0      20.9       0.0       0.0       5.1       0.0
 0 C  px              4.3       0.0       2.3       1.3       0.0       2.2
 0 C  py             13.7       0.0       1.8      14.6       0.0       1.7
 0 C  dz2             0.3       0.0       0.1       1.5       0.0       0.2
 0 C  dxz             0.0       0.0       0.0       0.0       5.4       0.0
 0 C  dyz             0.0       0.2       0.0       0.0       1.7       0.0
 0 C  dx2y2           0.0       0.0       0.0       1.7       0.0       0.2
 0 C  dxy             0.1       0.0       0.0       0.7       0.0       0.1
 1 C  s               2.4       0.0      13.1       1.4       0.0      14.5
 1 C  pz              0.0      11.2       0.0       0.0      19.2       0.0
 1 C  px              0.2       0.0       0.6      14.5       0.0       4.7
 1 C  py             15.4       0.0       2.9       4.0       0.0       0.8
 1 C  dz2             0.1       0.0       0.0       0.1       0.0       0.5
 1 C  dxz             0.0       0.0       0.0       0.0       2.2       0.0
 1 C  dyz             0.0       0.6       0.0       0.0       5.1       0.0
 1 C  dxy             0.0       0.0       0.0       1.4       0.0       0.1
 2 C  s               2.4       0.0      13.1       1.4       0.0      14.5
 2 C  pz              0.0      11.2       0.0       0.0      19.2       0.0
 2 C  px              0.2       0.0       0.6      14.5       0.0       4.7
 2 C  py             15.4       0.0       2.9       4.0       0.0       0.8
 2 C  dz2             0.1       0.0       0.0       0.1       0.0       0.5
 2 C  dxz             0.0       0.0       0.0       0.0       2.2       0.0
 2 C  dyz             0.0       0.6       0.0       0.0       5.1       0.0
 2 C  dxy             0.0       0.0       0.0       1.4       0.0       0.1
 3 C  s               1.4       0.0       4.9       3.7       0.0      11.9
 3 C  pz              0.0      20.9       0.0       0.0       5.1       0.0
 3 C  px              4.3       0.0       2.3       1.3       0.0       2.2
 3 C  py             13.7       0.0       1.8      14.6       0.0       1.7
 3 C  dz2             0.3       0.0       0.1       1.5       0.0       0.2
 3 C  dxz             0.0       0.0       0.0       0.0       5.4       0.0
 3 C  dyz             0.0       0.2       0.0       0.0       1.7       0.0
 3 C  dx2y2           0.0       0.0       0.0       1.7       0.0       0.2
 3 C  dxy             0.1       0.0       0.0       0.7       0.0       0.1
 4 H  s              10.4       0.0       3.7       2.8       0.0       1.6
 5 H  s               0.3       4.3       6.6       0.3       1.7       2.7
 6 H  s               0.3       4.3       6.6       0.3       1.7       2.7
 7 H  s               0.5       4.3       3.7       0.9       3.9       3.1
 8 H  s               0.5       4.3       3.7       0.9       3.9       3.1
 9 H  s               0.5       4.3       3.7       0.9       3.9       3.1
10 H  s               0.5       4.3       3.7       0.9       3.9       3.1
11 H  s               0.3       4.3       6.6       0.3       1.7       2.7
12 H  s               0.3       4.3       6.6       0.3       1.7       2.7
13 H  s              10.4       0.0       3.7       2.8       0.0       1.6

                     54        55        56        57        58        59   
                   1.00910   1.02923   1.35132   1.39761   1.53679   1.72228
                   0.00000   0.00000   0.00000   0.00000   0.00000   0.00000
                  --------  --------  --------  --------  --------  --------
 0 C  s              20.2       6.8       0.0       0.6       0.3       0.0
 0 C  pz              0.0       0.0       0.6       0.0       0.0       0.4
 0 C  px              5.8       0.4       0.0       0.2       0.4       0.0
 0 C  py              1.2       1.2       0.0       0.6       0.3       0.0
 0 C  dz2             0.4       0.1       0.0       2.7       2.8       0.0
 0 C  dxz             0.0       0.0      18.9       0.0       0.0      28.0
 0 C  dx2y2           0.0       0.8       0.0       6.3      23.2       0.0
 0 C  dxy             0.0       0.3       0.0       3.2       4.8       0.0
 1 C  s               5.3      26.5       0.0       1.4       0.4       0.0
 1 C  pz              0.0       0.0       0.1       0.0       0.0       9.3
 1 C  px              6.0       0.9       0.0       0.2       3.4       0.0
 1 C  py              0.7       1.3       0.0       0.6       0.0       0.0
 1 C  dz2             0.3       0.1       0.0       5.6       0.4       0.0
 1 C  dxz             0.0       0.0      28.9       0.0       0.0       9.1
 1 C  dyz             0.0       0.0       1.0       0.0       0.0       0.1
 1 C  dx2y2           0.1       1.0       0.0      26.4       7.9       0.0
 1 C  dxy             0.6       0.0       0.0       1.4       5.8       0.0
 2 C  s               5.3      26.5       0.0       1.4       0.4       0.0
 2 C  pz              0.0       0.0       0.1       0.0       0.0       9.3
 2 C  px              6.0       0.9       0.0       0.2       3.4       0.0
 2 C  py              0.7       1.3       0.0       0.6       0.0       0.0
 2 C  dz2             0.3       0.1       0.0       5.6       0.4       0.0
 2 C  dxz             0.0       0.0      28.9       0.0       0.0       9.1
 2 C  dyz             0.0       0.0       1.0       0.0       0.0       0.1
 2 C  dx2y2           0.1       1.0       0.0      26.4       7.9       0.0
 2 C  dxy             0.6       0.0       0.0       1.4       5.8       0.0
 3 C  s              20.2       6.8       0.0       0.6       0.3       0.0
 3 C  pz              0.0       0.0       0.6       0.0       0.0       0.4
 3 C  px              5.8       0.4       0.0       0.2       0.4       0.0
 3 C  py              1.2       1.2       0.0       0.6       0.3       0.0
 3 C  dz2             0.4       0.1       0.0       2.7       2.8       0.0
 3 C  dxz             0.0       0.0      18.9       0.0       0.0      28.0
 3 C  dx2y2           0.0       0.8       0.0       6.3      23.2       0.0
 3 C  dxy             0.0       0.3       0.0       3.2       4.8       0.0
 4 H  s               1.1       1.2       0.0       0.7       0.1       0.0
 5 H  s               3.1       0.6       0.2       0.0       0.0       0.0
 6 H  s               3.1       0.6       0.2       0.0       0.0       0.0
 7 H  s               1.0       4.1       0.0       0.1       0.1       1.5
 8 H  s               1.0       4.1       0.0       0.1       0.1       1.5
 9 H  s               1.0       4.1       0.0       0.1       0.1       1.5
10 H  s               1.0       4.1       0.0       0.1       0.1       1.5
11 H  s               3.1       0.6       0.2       0.0       0.0       0.0
12 H  s               3.1       0.6       0.2       0.0       0.0       0.0
13 H  s               1.1       1.2       0.0       0.7       0.1       0.0

                     60        61        62        63        64        65   
                   1.78513   1.80080   1.83462   1.85158   1.90074   1.95245
                   0.00000   0.00000   0.00000   0.00000   0.00000   0.00000
                  --------  --------  --------  --------  --------  --------
 0 C  s               0.6       1.0       0.0       0.0       0.4       0.0
 0 C  pz              0.0       0.0       0.0       1.7       0.0       2.1
 0 C  px              1.0       1.0       0.1       0.0       0.2       0.0
 0 C  py              0.2       0.5       0.2       0.0       1.6       0.0
 0 C  dz2             0.7      11.5       1.6       0.0      22.0       0.0
 0 C  dxz             0.0       0.0       0.0      21.3       0.0       5.9
 0 C  dyz             0.0       0.0       0.0       3.4       0.0      18.8
 0 C  dx2y2          29.0       0.4       0.1       0.0       0.3       0.0
 0 C  dxy             0.8       9.7       0.9       0.0       5.1       0.0
 1 C  s               1.4       0.2       1.4       0.0       0.5       0.0
 1 C  pz              0.0       0.0       0.0       3.3       0.0       0.0
 1 C  px              1.0       2.3       0.7       0.0       0.8       0.0
 1 C  py              0.4       0.2       2.8       0.0       1.8       0.0
 1 C  dz2             0.8       3.3      30.4       0.0      11.3       0.0
 1 C  dxz             0.0       0.0       0.0       7.9       0.0      19.1
 1 C  dyz             0.0       0.0       0.0       8.5       0.0       0.0
 1 C  dx2y2          10.3       2.1       1.8       0.0       0.5       0.0
 1 C  dxy             3.0      16.6       7.1       0.0       3.0       0.0
 2 C  s               1.4       0.2       1.4       0.0       0.5       0.0
 2 C  pz              0.0       0.0       0.0       3.3       0.0       0.0
 2 C  px              1.0       2.3       0.7       0.0       0.8       0.0
 2 C  py              0.4       0.2       2.8       0.0       1.8       0.0
 2 C  dz2             0.8       3.3      30.4       0.0      11.3       0.0
 2 C  dxz             0.0       0.0       0.0       7.9       0.0      19.1
 2 C  dyz             0.0       0.0       0.0       8.5       0.0       0.0
 2 C  dx2y2          10.3       2.1       1.8       0.0       0.5       0.0
 2 C  dxy             3.0      16.6       7.1       0.0       3.0       0.0
 3 C  s               0.6       1.0       0.0       0.0       0.4       0.0
 3 C  pz              0.0       0.0       0.0       1.7       0.0       2.1
 3 C  px              1.0       1.0       0.1       0.0       0.2       0.0
 3 C  py              0.2       0.5       0.2       0.0       1.6       0.0
 3 C  dz2             0.7      11.5       1.6       0.0      22.0       0.0
 3 C  dxz             0.0       0.0       0.0      21.3       0.0       5.9
 3 C  dyz             0.0       0.0       0.0       3.4       0.0      18.8
 3 C  dx2y2          29.0       0.4       0.1       0.0       0.3       0.0
 3 C  dxy             0.8       9.7       0.9       0.0       5.1       0.0
 4 H  s               0.4       0.1       0.4       0.0       0.2       0.0
 5 H  s               0.1       0.4       0.1       0.3       0.7       2.0
 6 H  s               0.1       0.4       0.1       0.3       0.7       2.0
 7 H  s               0.2       0.2       1.2       1.6       0.4       0.0
 8 H  s               0.2       0.2       1.2       1.6       0.4       0.0
 9 H  s               0.2       0.2       1.2       1.6       0.4       0.0
10 H  s               0.2       0.2       1.2       1.6       0.4       0.0
11 H  s               0.1       0.4       0.1       0.3       0.7       2.0
12 H  s               0.1       0.4       0.1       0.3       0.7       2.0
13 H  s               0.4       0.1       0.4       0.0       0.2       0.0

                     66        67        68        69        70        71   
                   2.03315   2.08554   2.12754   2.13918   2.23109   2.24757
                   0.00000   0.00000   0.00000   0.00000   0.00000   0.00000
                  --------  --------  --------  --------  --------  --------
 0 C  pz              0.0       1.2       0.1       0.0       0.1       0.0
 0 C  px              1.0       0.0       0.0       0.4       0.0       0.0
 0 C  py              1.5       0.0       0.0       0.6       0.0       0.0
 0 C  dz2            13.7       0.0       0.0      10.6       0.0       0.0
 0 C  dxz             0.0       0.0       7.8       0.0       1.0       8.1
 0 C  dyz             0.0      27.6      10.8       0.0      11.5       9.6
 0 C  dx2y2           5.6       0.0       0.0       1.3       0.0       0.0
 0 C  dxy            12.3       0.0       0.0      27.5       0.0       0.0
 1 C  s               0.5       0.0       0.0       0.1       0.0       0.0
 1 C  pz              0.0       0.5       0.6       0.0       0.2       0.1
 1 C  px              0.1       0.0       0.0       0.3       0.0       0.0
 1 C  py              0.2       0.0       0.0       0.1       0.0       0.0
 1 C  dz2             1.6       0.0       0.0       1.0       0.0       0.0
 1 C  dxz             0.0       0.2       5.9       0.0      11.4      10.8
 1 C  dyz             0.0      12.9      19.5       0.0      21.9      17.1
 1 C  dx2y2           5.5       0.0       0.0       1.7       0.0       0.0
 1 C  dxy             2.6       0.0       0.0       0.2       0.0       0.0
 2 C  s               0.5       0.0       0.0       0.1       0.0       0.0
 2 C  pz              0.0       0.5       0.6       0.0       0.2       0.1
 2 C  px              0.1       0.0       0.0       0.3       0.0       0.0
 2 C  py              0.2       0.0       0.0       0.1       0.0       0.0
 2 C  dz2             1.6       0.0       0.0       1.0       0.0       0.0
 2 C  dxz             0.0       0.2       5.9       0.0      11.4      10.8
 2 C  dyz             0.0      12.9      19.5       0.0      21.9      17.1
 2 C  dx2y2           5.5       0.0       0.0       1.7       0.0       0.0
 2 C  dxy             2.6       0.0       0.0       0.2       0.0       0.0
 3 C  pz              0.0       1.2       0.1       0.0       0.1       0.0
 3 C  px              1.0       0.0       0.0       0.4       0.0       0.0
 3 C  py              1.5       0.0       0.0       0.6       0.0       0.0
 3 C  dz2            13.7       0.0       0.0      10.6       0.0       0.0
 3 C  dxz             0.0       0.0       7.8       0.0       1.0       8.1
 3 C  dyz             0.0      27.6      10.8       0.0      11.5       9.6
 3 C  dx2y2           5.6       0.0       0.0       1.3       0.0       0.0
 3 C  dxy            12.3       0.0       0.0      27.5       0.0       0.0
 4 H  s               4.0       0.0       0.0       4.5       0.0       0.0
 5 H  s               0.5       2.5       0.9       0.8       0.8       0.8
 6 H  s               0.5       2.5       0.9       0.8       0.8       0.8
 7 H  s               0.2       1.2       1.8       0.0       1.2       1.4
 8 H  s               0.2       1.2       1.8       0.0       1.2       1.4
 9 H  s               0.2       1.2       1.8       0.0       1.2       1.4
10 H  s               0.2       1.2       1.8       0.0       1.2       1.4
11 H  s               0.5       2.5       0.9       0.8       0.8       0.8
12 H  s               0.5       2.5       0.9       0.8       0.8       0.8
13 H  s               4.0       0.0       0.0       4.5       0.0       0.0

                     72        73        74        75   
                   2.28546   2.41576   2.56342   2.64195
                   0.00000   0.00000   0.00000   0.00000
                  --------  --------  --------  --------
 0 C  s               0.3       0.3       0.6       1.3
 0 C  px              0.5       0.6       1.2       1.8
 0 C  py              0.3       0.3       0.4       0.1
 0 C  dz2            10.2       4.1       1.8       1.9
 0 C  dx2y2          15.7       1.3       0.4       6.7
 0 C  dxy             1.1       3.7      13.8       2.0
 1 C  s               0.6       2.3       0.9       0.0
 1 C  px              0.7       0.0       0.6       4.5
 1 C  py              1.1       2.6       0.1       0.2
 1 C  dz2             3.3      24.7       2.4       0.0
 1 C  dx2y2           6.7       4.1      24.4       0.5
 1 C  dxy             7.6       3.7       2.5      30.7
 2 C  s               0.6       2.3       0.9       0.0
 2 C  px              0.7       0.0       0.6       4.5
 2 C  py              1.1       2.6       0.1       0.2
 2 C  dz2             3.3      24.7       2.4       0.0
 2 C  dx2y2           6.7       4.1      24.4       0.5
 2 C  dxy             7.6       3.7       2.5      30.7
 3 C  s               0.3       0.3       0.6       1.3
 3 C  px              0.5       0.6       1.2       1.8
 3 C  py              0.3       0.3       0.4       0.1
 3 C  dz2            10.2       4.1       1.8       1.9
 3 C  dx2y2          15.7       1.3       0.4       6.7
 3 C  dxy             1.1       3.7      13.8       2.0
 4 H  s               0.6       0.0       0.4       0.1
 5 H  s               0.7       0.1       0.0       0.1
 6 H  s               0.7       0.1       0.0       0.1
 7 H  s               0.0       1.0       0.2       0.0
 8 H  s               0.0       1.0       0.2       0.0
 9 H  s               0.0       1.0       0.2       0.0
10 H  s               0.0       1.0       0.2       0.0
11 H  s               0.7       0.1       0.0       0.1
12 H  s               0.7       0.1       0.0       0.1
13 H  s               0.6       0.0       0.4       0.1


                      *****************************
                      * MAYER POPULATION ANALYSIS *
                      *****************************

  NA   - Mulliken gross atomic population
  ZA   - Total nuclear charge
  QA   - Mulliken gross atomic charge
  VA   - Mayer's total valence
  BVA  - Mayer's bonded valence
  FA   - Mayer's free valence

  ATOM       NA         ZA         QA         VA         BVA        FA
  0 C      6.2594     6.0000    -0.2594     4.0140     4.0140     0.0000
  1 C      6.2001     6.0000    -0.2001     4.1512     4.1512     0.0000
  2 C      6.2001     6.0000    -0.2001     4.1512     4.1512    -0.0000
  3 C      6.2594     6.0000    -0.2594     4.0140     4.0140     0.0000
  4 H      0.8993     1.0000     0.1007     0.9497     0.9497    -0.0000
  5 H      0.9040     1.0000     0.0960     0.9574     0.9574    -0.0000
  6 H      0.9040     1.0000     0.0960     0.9574     0.9574    -0.0000
  7 H      0.9166     1.0000     0.0834     0.9470     0.9470     0.0000
  8 H      0.9166     1.0000     0.0834     0.9470     0.9470    -0.0000
  9 H      0.9166     1.0000     0.0834     0.9470     0.9470    -0.0000
 10 H      0.9166     1.0000     0.0834     0.9470     0.9470    -0.0000
 11 H      0.9040     1.0000     0.0960     0.9574     0.9574    -0.0000
 12 H      0.9040     1.0000     0.0960     0.9574     0.9574    -0.0000
 13 H      0.8993     1.0000     0.1007     0.9497     0.9497    -0.0000

  Mayer bond orders larger than 0.100000
B(  0-C ,  1-C ) :   1.1552 B(  0-C ,  4-H ) :   0.9536 B(  0-C ,  5-H ) :   0.9551 
B(  0-C ,  6-H ) :   0.9551 B(  1-C ,  2-C ) :   1.1315 B(  1-C ,  7-H ) :   0.9293 
B(  1-C ,  8-H ) :   0.9293 B(  2-C ,  3-C ) :   1.1552 B(  2-C ,  9-H ) :   0.9293 
B(  2-C , 10-H ) :   0.9293 B(  3-C , 11-H ) :   0.9551 B(  3-C , 12-H ) :   0.9551 
B(  3-C , 13-H ) :   0.9536 

-------
TIMINGS
-------

Total SCF time: 0 days 0 hours 0 min 0 sec 

Total time                  ....       0.855 sec
Sum of individual times     ....       0.841 sec  ( 98.3%)

SCF preparation             ....       0.024 sec  (  2.8%)
Fock matrix formation       ....       0.787 sec  ( 92.1%)
  Startup                   ....       0.001 sec  (  0.1% of F)
  Split-RI-J                ....       0.273 sec  ( 34.7% of F)
  XC integration            ....       0.509 sec  ( 64.6% of F)
    Basis function eval.    ....       0.233 sec  ( 45.8% of XC)
    Density eval.           ....       0.090 sec  ( 17.7% of XC)
    XC-Functional eval.     ....       0.058 sec  ( 11.4% of XC)
    XC-Potential eval.      ....       0.098 sec  ( 19.2% of XC)
Diagonalization             ....       0.000 sec  (  0.0%)
Density matrix formation    ....       0.002 sec  (  0.3%)
Total Energy calculation    ....       0.000 sec  (  0.0%)
Population analysis         ....       0.017 sec  (  2.0%)
Orbital Transformation      ....       0.001 sec  (  0.2%)
Orbital Orthonormalization  ....       0.000 sec  (  0.0%)
DIIS solution               ....       0.006 sec  (  0.7%)
  MO trafo                  ....       0.000 sec  (  0.0 % of DIIS)
  Orb grad                  ....       0.000 sec  (  0.0 % of DIIS)
  Energy W gradient         ....       0.000 sec  (  0.0 % of DIIS)
  DIIS error                ....       0.000 sec  (  5.7 % of DIIS)
  DIIS work                 ....       0.005 sec  ( 79.6 % of DIIS)
  Form Q                    ....       0.000 sec  (  0.0 % of DIIS)
  Form QpQm                 ....       0.000 sec  (  0.0 % of DIIS)
  Exp/Cayley                ....       0.000 sec  (  0.0 % of DIIS)
  Orb update                ....       0.000 sec  (  0.0 % of DIIS)
  Wake-sleep                ....       0.000 sec  (  2.6 % of DIIS)
SOSCF solution              ....       0.002 sec  (  0.2%)
  MO trafo                  ....       0.001 sec  ( 62.4 % of SOSCF)
  Orb grad                  ....       0.000 sec  (  1.9 % of SOSCF)
  Rot update                ....       0.000 sec  (  5.7 % of SOSCF)
  Step                      ....       0.000 sec  ( 28.8 % of SOSCF)
Finished LeanSCF after   0.9 sec

Maximum memory used throughout the entire LEANSCF-calculation: 8.1 MB


-------------------------------------------------------------------------------
                          DFT DISPERSION CORRECTION                            
                                                                               
                                DFTD4 V3.4.0                                   
-------------------------------------------------------------------------------
The PBE functional is recognized
Active option DFTDOPT                   ...         5   

-------------------------   ----------------
Dispersion correction           -0.007865466
-------------------------   ----------------

------------------   -----------------
gCP correction             0.055862194
------------------   -----------------

-------------------------   --------------------
FINAL SINGLE POINT ENERGY      -158.024595049751
-------------------------   --------------------


------------------------------------------------------------------------------
                              ORCA PROPERTY CALCULATIONS
------------------------------------------------------------------------------

GBWName                                 ... sp.gbw
Number of atoms                         ...     14
Number of basis functions               ...     76
Max core memory                         ...   1024 MB

Electric properties:
Dipole moment                           ... YES
Quadrupole moment                       ...  NO
Static polarizability (Dipole/Dipole)   ...  NO
Static polarizability (Dipole/Quad.)    ...  NO
Static polarizability (Quad./Quad.)     ...  NO
Static polarizability (Velocity)        ...  NO

Atomic electric properties:
Dipole moment                           ...  NO
Quadrupole moment                       ...  NO
Static polarizability                   ...  NO

Choice of electric origin               ... Center of mass
Position of electric origin             ...     0.000000     0.000000     0.000000

General magnetic properties:
Magnetizability                         ...  NO

EPR properties:
g-Tensor (aka g-matrix)                 ...  NO
Zero-Field splitting spin-orbit         ...  NO
Zero-field splitting spin-spin          ...  NO
Hyperfine couplings                     ...  NO (   0 nuclei)
Quadrupole couplings                    ...  NO (   0 nuclei)
Contact density                         ...  NO (   0 nuclei)

NMR properties:
Chemical shifts                         ...  NO (   0 nuclei)
Spin-rotation constants                 ...  NO (   0 nuclei)
Spin-spin couplings                     ...  NO (   0 nuclei,    0 pairs)

Choice of magnetic origin               ... GIAO
Position of magnetic origin             ...     0.000000     0.000000     0.000000

Properties with geometric perturbations:
SCF Hessian                             ...  NO
IR spectrum                             ...  NO
VCD spectrum                            ...  NO
X-ray spectroscopy properties:
SCF XES/XAS/RIXS spectra                ...  NO


-------------
DIPOLE MOMENT
-------------

Method             : SCF
Type of density    : Electron Density
Multiplicity       :   1
Irrep              :   0
Energy             :  -158.0725917777979248 Eh
Relativity type    : 
Basis              : AO
                                X                 Y                 Z
Electronic contribution:     -0.000009258      -0.000005971      -0.000123039
Nuclear contribution   :      0.000010130       0.000006787       0.000129844
                        -----------------------------------------
Total Dipole Moment    :      0.000000872       0.000000816       0.000006804
                        -----------------------------------------
Magnitude (a.u.)       :      0.000006908
Magnitude (Debye)      :      0.000017560



--------------------
Rotational spectrum 
--------------------
 
Rotational constants in cm-1:             0.779346             0.123056             0.115396 
Rotational constants in MHz :         23364.201514          3689.119872          3459.480842 

Dipole components along the rotational axes: 
x,y,z [a.u.] :     0.000001    -0.000001     0.000007 
x,y,z [Debye]:     0.000002    -0.000002     0.000017 

 

Dipole moment calculation done in   0.0 sec 

Maximum memory used throughout the entire PROP-calculation: 5.3 MB

--------------------------------
SUGGESTED CITATIONS FOR THIS RUN
--------------------------------

Below you find a list of papers that are relevant to this ORCA run
We neither can nor want to force you to cite these papers, but we appreciate if you do
You receive ORCA, which is the product of decades of hard work by many enthusiastic individuals, for free
The only thing we kindly ask in return is that you cite our papers,
We deeply appreciate it, if you show your appreciation for ORCA by not just citing the generic ORCA reference.

Please note that relegating all ORCA citations to the supporting information does *not* help us.
SI sections are not indexed - citations you put there will not count into any citation statistics
But we need these citations in order to attract the funding resources that allow us to do what we are doing

Therefore, if you are a happy ORCA user, please consider citing a few of the papers listed below in the main body of your paper

In addition to the list printed below, the program has created the file sp.bibtex that contains the list in bibtex format
You can import this file easily into all common literature databanks and citation aid programs


List of essential papers. We consider these as the minimum necessary citations

  1. Neese,F.
     Software update: the ORCA program system, version 5.0
     WIRES Comput. Molec. Sci., 2022 12(1)e1606
     doi.org/10.1002/wcms.1606

List of papers to cite with high priority. The work reported in these papers was absolutely
necessary for this run to complete.
Our perspective: the developers of density functionals and basis sets usually get cited in chemistry papers
Good! But without the algorithms to do something with them, the functionals or basis sets would not do anything.
Hence, in our opinion, the algorithm design and method developments papers are equally worthy of getting cited

  1. Neese,F.
     An improvement of the resolution of the identity approximation for the formation of the Coulomb matrix
     J. Comp. Chem., 2003 24(14)1740-1747
     doi.org/10.1002/jcc.10318
  2. Neese,F.
     The SHARK Integral Generation and Digestion System
     J. Comp. Chem., 2022  1-16
     doi.org/10.1002/jcc.26942
  3. Caldeweyher,E.; Bannwarth,C.; Grimme,S.
     Extension of the D3 dispersion coefficient model
     J. Chem. Phys., 2017 147 034112
     doi.org/10.1063/1.4993215
  4. Caldeweyher,E.; Ehlert,S.; Hansen,A.; Neugebauer,H.; Spicher,S.; Bannwarth,C.; Grimme,S.
     A generally applicable atomic-charge dependent London dispersion correction
     J. Chem. Phys., 2019 150 154122
     doi.org/10.1063/1.5090222
  5. Caldeweyher,E.; Mewes,J.; Ehlert,S.; Grimme,S.
     Extension and evaluation of the D4 London-dispersion model for periodic systems
     Phys. Chem. Chem. Phys., 2020 22(16)8499-8512
     doi.org/10.1039/D0CP00502A
  6. Wittmann,L.; Gordiy,I.; Friede,M.; Helmich-Paris,B.; Grimme,S.; Hansen,A.; Bursch,M.
     Extension of the D3 and D4 London Dispersion Corrections to the full Actinides Series
     Phys. Chem. Chem. Phys., 2024 26(32)21379-21394
     doi.org/https://doi.org/10.1039/D4CP01514B 

List of suggested additional citations. These are papers that are important in the 'surrounding' of 
of this run, or papers that preceded the highly important papers. If you like your results we are grateful for a citation.

  1. Neese,F.
     The ORCA program system
     WIRES Comput. Molec. Sci., 2012 2(1)73-78
     doi.org/10.1002/wcms.81
  2. Neese,F.
     Software update: the ORCA program system, version 4.0
     WIRES Comput. Molec. Sci., 2018 8(1)1-6
     doi.org/10.1002/wcms.1327
  3. Neese,F.; Wennmohs,F.; Becker,U.; Riplinger,C.
     The ORCA quantum chemistry program package
     J. Chem. Phys., 2020 152 Art. No. L224108
     doi.org/10.1063/5.0004608

List of optional additional citations

  1. Neese,F.
     Approximate second-order SCF convergence for spin unrestricted wavefunctions
     Chem. Phys. Lett., 2000 325(1-3)93-98
     doi.org/10.1016/s0009-2614(00)00662-x

Timings for individual modules:

Sum of individual times          ...        1.176 sec (=   0.020 min)
Startup calculation              ...        0.139 sec (=   0.002 min)  11.9 %
SCF iterations                   ...        1.005 sec (=   0.017 min)  85.4 %
Property calculations            ...        0.032 sec (=   0.001 min)   2.7 %
                             ****ORCA TERMINATED NORMALLY****
TOTAL RUN TIME: 0 days 0 hours 0 minutes 1 seconds 243 msec
