
                                 *****************
                                 * O   R   C   A *
                                 *****************

                                            #,                                       
                                            ###                                      
                                            ####                                     
                                            #####                                    
                                            ######                                   
                                           ########,                                 
                                     ,,################,,,,,                         
                               ,,#################################,,                 
                          ,,##########################################,,             
                       ,#########################################, ''#####,          
                    ,#############################################,,   '####,        
                  ,##################################################,,,,####,       
                ,###########''''           ''''###############################       
              ,#####''   ,,,,##########,,,,          '''####'''          '####       
            ,##' ,,,,###########################,,,                        '##       
           ' ,,###''''                  '''############,,,                           
         ,,##''                                '''############,,,,        ,,,,,,###''
      ,#''                                            '''#######################'''  
     '                                                          ''''####''''         
             ,#######,   #######,   ,#######,      ##                                
            ,#'     '#,  ##    ##  ,#'     '#,    #''#        ,####,   ,####,        
            ##       ##  ##   ,#'  ##            #'  '#       #'       #'  '#        
            ##       ##  #######   ##           ,######,      #####,   #    #        
            '#,     ,#'  ##    ##  '#,     ,#' ,#      #,     #,   #   #,  ,#        
             '#######'   ##     ##  '#######'  #'      '#     '####' # '####'        



                #########################################################
                #                        -***-                          #
                #          Department of theory and spectroscopy        #
                #                                                       #
                #                      Frank Neese                      #
                #                                                       #
                #     Directorship, Architecture, Infrastructure        #
                #                    SHARK, DRIVERS                     #
                #        Core code/Algorithms in most modules           #
                #                                                       #
                #        Max Planck Institute fuer Kohlenforschung      #
                #                Kaiser Wilhelm Platz 1                 #
                #                 D-45470 Muelheim/Ruhr                 #
                #                      Germany                          #
                #                                                       #
                #                  All rights reserved                  #
                #                        -***-                          #
                #########################################################


                         Program Version 6.0.1  -  RELEASE   -


 With contributions from (in alphabetic order):
[Max-Planck-Institut fuer Kohlenforschung]                               
  Daniel Aravena         : Magnetic Suceptibility                        
  Michael Atanasov       : Ab Initio Ligand Field Theory (pilot matlab implementation)
  Alexander A. Auer      : GIAO ZORA, VPT2 properties, NMR spectrum      
  Ute Becker             : All parallelization in ORCA, NUMFREQ, NUMCALC 
  Giovanni Bistoni       : ED, misc. LED, open-shell LED, HFLD           
  Martin Brehm           : Molecular dynamics                            
  Dmytro Bykov           : pre 5.0 version of the SCF Hessian            
  Marcos Casanova-Páez   : Triplet and SCS-CIS(D). UHF-(DLPNO)-IP/EA/STEOM-CCSD. UHF-CVS-IP/STEOM-CCSD   
  Vijay G. Chilkuri      : MRCI spin determinant printing, contributions to CSF-ICE 
  Pauline Colinet        : FMM embedding                                 
  Dipayan Datta          : RHF DLPNO-CCSD density                        
  Achintya Kumar Dutta   : EOM-CC, STEOM-CC                              
  Nicolas Foglia         : Exact transition moments, OPA infrastructure, MCD improvements    
  Dmitry Ganyushin       : Spin-Orbit,Spin-Spin,Magnetic field MRCI      
  Miquel Garcia-Rates    : C-PCM and meta-GGA Hessian, CCSD/C-PCM, Gaussian charge scheme 
  Tiago L. C. Gouveia    : GS-ROHF, GS-ROCIS                             
  Yang Guo               : DLPNO-NEVPT2, F12-NEVPT2, CIM, IAO-localization        
  Andreas Hansen         : Spin unrestricted coupled pair/coupled cluster methods 
  Ingolf Harden          : AUTO-CI MPn and infrastructure                
  Benjamin Helmich-Paris : MC-RPA, TRAH-(SCF,CASSCF), AVAS, COSX integrals, SCF dyn. polar. 
  Lee Huntington         : MR-EOM, pCC                                   
  Robert Izsak           : Overlap fitted RIJCOSX, COSX-SCS-MP3, EOM     
  Riya Kayal             : Wick's Theorem for AUTO-CI, AUTO-CI UHF-CCSDT 
  Emily Kempfer          : AUTO-CI, RHF CISDT and CCSDT                  
  Christian Kollmar      : KDIIS, OOCD, Brueckner-CCSD(T), CCSD density, CASPT2, CASPT2-K, improved NEVPT2 
  Axel Koslowski         : Symmetry handling                             
  Simone Kossmann        : meta-GGA functionals, TD-DFT gradient, OOMP2, (MP2 Hessian; deprecated post 5.0) 
  Lucas Lang             : DCDCAS                                        
  Marvin Lechner         : AUTO-CI (C++ implementation), FIC-MRCC        
  Spencer Leger          : CASSCF response                               
  Dagmar Lenk            : GEPOL surface, SMD, ORCA-2-JSON               
  Dimitrios Liakos       : Extrapolation schemes; Compound Job, initial MDCI parallelization 
  Dimitrios Manganas     : Further ROCIS development; embedding schemes. LFT, Crystal Embedding 
  Dimitrios Pantazis     : SARC Basis sets                               
  Anastasios Papadopoulos: AUTO-CI, single reference methods and gradients 
  Taras Petrenko         : pre 6.0 DFT Hessian and TD-DFT gradient, (ASA, deprecated), ECA, 1-Electron XAS/XES, NRVS 
  Peter Pinski           : DLPNO-MP2, DLPNO-MP2 Gradient                 
  Christoph Reimann      : Effective Core Potentials                     
  Marius Retegan         : Local ZFS, SOC                                
  Christoph Riplinger    : Optimizer, TS searches, QM/MM, DLPNO-CCSD(T), (RO)-DLPNO pert. Triples 
  Michael Roemelt        : Original ROCIS implementation                 
  Masaaki Saitow         : Open-shell DLPNO-CCSD energy and density      
  Barbara Sandhoefer     : DKH picture change effects                    
  Kantharuban Sivalingam : CASSCF convergence/infrastructure, NEVPT2 and variants, FIC-MRCI 
  Bernardo de Souza      : ESD, SOC TD-DFT                               
  Georgi L. Stoychev     : AutoAux, RI-MP2 NMR, DLPNO-MP2 response, X2C  
  Van Anh Tran           : RI-MP2 g-tensors                              
  Willem Van den Heuvel  : Paramagnetic NMR                              
  Zikuan Wang            : NOTCH, Electric field optimization            
  Frank Wennmohs         : Technical directorship and infrastructure     
  Hang Xu                : AUTO-CI-Response properties                   
                                                                         
[FACCTs GmbH]                                                            
  Markus Bursch, Miquel Garcia-Rates, Christoph Riplinger, Bernardo de Souza, Georgi L. Stoychev 
                                                                 
  APM, Basis sets (HGBS, AHGBS, def-TZVP (Ac-Lr), def2-XVPD (La-Lu)), CI-OPT, improved COSX, DLPNO-Multilevel,           
  DOCKER, DRACO, updates on ESD, GOAT, IRC, LR-CPCM, MBIS, meta-GGA TD-DFT gradient, ML-optimized integration grids, 
  MM, NACMEs, nearIR, NEB, NEB-TS, NL-DFT gradient (VV10), 2- and 3-layer-ONIOM, interface openCOSMO-RS, QMMM,   
  Crystal-QMMM, SF, symmetry and pop. for TD-DFT, r2SCAN hybrids, SOLVATOR                                   
                                                                         
[Other institutions]                                                     
  V. Asgeirsson          : NEB                                           
  Christoph Bannwarth    : sTDA-DFT, sTD-DFT, PBEh-3c, B97-3c, D3        
  Sebastian Ehlert       : rSCAN, r2SCAN, r2SCAN-3c, D4, dhf basis sets  
  Marvin Friede          : D4 for Fr, Ra, Ac-Lr                          
  Lars Goerigk           : TD-DFT with DH, B97 family of functionals     
  Stefan Grimme          : VdW corrections, initial TS optimization, DFT functionals, gCP, sTDA/sTD-DF 
  Waldemar Hujo          : DFT-NL                                        
  H. Jonsson             : NEB                                           
  Holger Kruse           : gCP                                           
  Marcel Mueller         : wB97X-3c, vDZP basis set                      
  Hagen Neugebauer       : wr2SCAN                                       
  Tobias Risthaus        : range-separated hybrid DFT                    
  Lukas Wittmann         : regularized MP2, r2SCAN double-hybrids, wr2SCAN        
                                                                         
We gratefully acknowledge several colleagues who have allowed us to      
interface, adapt or use parts of their codes:                            
  Ed Valeev, F. Pavosevic, A. Kumar             : LibInt (2-el integral package), F12 methods 
  Garnet Chan, S. Sharma, J. Yang, R. Olivares  : DMRG                   
  Ulf Ekstrom                                   : XCFun DFT Library      
  Mihaly Kallay                                 : mrcc  (arbitrary order and MRCC methods)
  Frank Weinhold                                : gennbo (NPA and NBO analysis)           
  Simon Mueller                                 : openCOSMO-RS                            
  Christopher J. Cramer and Donald G. Truhlar   : smd solvation model                     
  S Lehtola, MJT Oliveira, MAL Marques          : LibXC Library                           
  Liviu Ungur et al                             : ANISO software                          


 Your calculation uses the libint2 library for the computation of 2-el integrals
 For citations please refer to: http://libint.valeyev.net

 Your ORCA version has been built with support for libXC version: 6.2.2
 For citations please refer to: https://libxc.gitlab.io

 This ORCA versions uses:
   CBLAS   interface :  Fast vector & matrix operations
   LAPACKE interface :  Fast linear algebra routines
   SCALAPACK package :  Parallel linear algebra routines
   Shared memory     :  Shared parallel matrices
   BLAS/LAPACK       :  OpenBLAS 0.3.27  USE64BITINT DYNAMIC_ARCH NO_AFFINITY Zen SINGLE_THREADED
        Core in use  :  Zen
   Copyright (c) 2011-2014, The OpenBLAS Project


Your calculation utilizes the geometrical counterpoise correction gCP
Please cite in your paper:
H.Kruse, S. Grimme J.Chem.Phys., 136, (2012), 154101 
   

Your calculation utilizes the atom-pairwise dispersion correction
based on EEQ partial charges (D4)


================================================================================

----- Orbital basis set information -----
Your calculation utilizes the basis: def2-SV(P)
   F. Weigend and R. Ahlrichs, Phys. Chem. Chem. Phys. 7, 3297 (2005).

----- AuxJ basis set information -----
Your calculation utilizes the auxiliary basis: def2/J
   F. Weigend, Phys. Chem. Chem. Phys. 8, 1057 (2006).

================================================================================
                                        WARNINGS
                       Please study these warnings very carefully!
================================================================================


================================================================================
                                       INPUT FILE
================================================================================
NAME = sp.inp
|  1> ! pbe def2-sv(p) def2/J RI DEFGRID1 loosescf d4 GCP(DFT/SV(P)) printgap
|  2> %output
|  3>     printlevel normal
|  4> end
|  5> * xyz 0 1
|  6> C 1.4041886237 0.5189820819 1.51436e-05
|  7> O 0.5833546932 -0.6477437115 4.90831e-05
|  8> C -0.7262254966 -0.4779708358 -0.0001566768
|  9> O -1.3212185876 0.5582137454 7.20624e-05
| 10> H 0.7784650357 1.4128284326 0.0190910534
| 11> H 2.0165923106 0.506228576 -0.9013318582
| 12> H 2.042969312 0.4852682649 0.8820957777
| 13> H -1.2043680885 -1.4718521488 -9.14044e-05
| 14> *
| 15> 
| 16>                          ****END OF INPUT****
================================================================================

                       ****************************
                       * Single Point Calculation *
                       ****************************

---------------------------------
CARTESIAN COORDINATES (ANGSTROEM)
---------------------------------
  C      1.404189    0.518982    0.000015
  O      0.583355   -0.647744    0.000049
  C     -0.726225   -0.477971   -0.000157
  O     -1.321219    0.558214    0.000072
  H      0.778465    1.412828    0.019091
  H      2.016592    0.506229   -0.901332
  H      2.042969    0.485268    0.882096
  H     -1.204368   -1.471852   -0.000091

----------------------------
CARTESIAN COORDINATES (A.U.)
----------------------------
  NO LB      ZA    FRAG     MASS         X           Y           Z
   0 C     6.0000    0    12.011    2.653532    0.980734    0.000029
   1 O     8.0000    0    15.999    1.102381   -1.224058    0.000093
   2 C     6.0000    0    12.011   -1.372367   -0.903234   -0.000296
   3 O     8.0000    0    15.999   -2.496741    1.054871    0.000136
   4 H     1.0000    0     1.008    1.471086    2.669859    0.036077
   5 H     1.0000    0     1.008    3.810807    0.956633   -1.703270
   6 H     1.0000    0     1.008    3.860652    0.917024    1.666919
   7 H     1.0000    0     1.008   -2.275926   -2.781397   -0.000173

--------------------------------
INTERNAL COORDINATES (ANGSTROEM)
--------------------------------
 C      0   0   0     0.000000000000     0.00000000     0.00000000
 O      1   0   0     1.426540367321     0.00000000     0.00000000
 C      2   1   0     1.320538960113   117.74119631     0.00000000
 O      3   2   1     1.194862049350   127.25168056   359.97319574
 H      1   2   3     1.091263120230   109.87567217     1.07636090
 H      1   2   3     1.089783164348   108.28810732   240.59502088
 H      1   2   3     1.089607100865   108.18000176   121.57188947
 H      3   2   1     1.102914505653   108.30498461   180.00028952

---------------------------
INTERNAL COORDINATES (A.U.)
---------------------------
 C      0   0   0     0.000000000000     0.00000000     0.00000000
 O      1   0   0     2.695770613220     0.00000000     0.00000000
 C      2   1   0     2.495456983787   117.74119631     0.00000000
 O      3   2   1     2.257962041087   127.25168056   359.97319574
 H      1   2   3     2.062188437283   109.87567217     1.07636090
 H      1   2   3     2.059391725975   108.28810732   240.59502088
 H      1   2   3     2.059059014211   108.18000176   121.57188947
 H      3   2   1     2.084206364813   108.30498461   180.00028952

---------------------
BASIS SET INFORMATION
---------------------
There are 3 groups of distinct atoms

 Group   1 Type C   : 7s4p1d contracted to 3s2p1d pattern {511/31/1}
 Group   2 Type O   : 7s4p1d contracted to 3s2p1d pattern {511/31/1}
 Group   3 Type H   : 4s contracted to 2s pattern {31}

Atom   0C    basis set group =>   1
Atom   1O    basis set group =>   2
Atom   2C    basis set group =>   1
Atom   3O    basis set group =>   2
Atom   4H    basis set group =>   3
Atom   5H    basis set group =>   3
Atom   6H    basis set group =>   3
Atom   7H    basis set group =>   3
---------------------------------
AUXILIARY/J BASIS SET INFORMATION
---------------------------------
There are 3 groups of distinct atoms

 Group   1 Type C   : 12s5p4d2f1g contracted to 6s4p3d1f1g pattern {711111/2111/211/2/1}
 Group   2 Type O   : 12s5p4d2f1g contracted to 6s4p3d1f1g pattern {711111/2111/211/2/1}
 Group   3 Type H   : 5s2p1d contracted to 3s1p1d pattern {311/2/1}

Atom   0C    basis set group =>   1
Atom   1O    basis set group =>   2
Atom   2C    basis set group =>   1
Atom   3O    basis set group =>   2
Atom   4H    basis set group =>   3
Atom   5H    basis set group =>   3
Atom   6H    basis set group =>   3
Atom   7H    basis set group =>   3
------------------------------------------------------------------------------
                             ORCA STARTUP CALCULATIONS
                           -- RI-GTO INTEGRALS CHOSEN --
------------------------------------------------------------------------------
------------------------------------------------------------------------------
                   ___                                                        
                  /   \      - P O W E R E D   B Y -                         
                 /     \                                                     
                 |  |  |   _    _      __       _____    __    __             
                 |  |  |  | |  | |    /  \     |  _  \  |  |  /  |          
                  \  \/   | |  | |   /    \    | | | |  |  | /  /          
                 / \  \   | |__| |  /  /\  \   | |_| |  |  |/  /          
                |  |  |   |  __  | /  /__\  \  |    /   |      \           
                |  |  |   | |  | | |   __   |  |    \   |  |\   \          
                \     /   | |  | | |  |  |  |  | |\  \  |  | \   \       
                 \___/    |_|  |_| |__|  |__|  |_| \__\ |__|  \__/        
                                                                              
                      - O R C A' S   B I G   F R I E N D -                    
                                      &                                       
                       - I N T E G R A L  F E E D E R -                       
                                                                              
 v1 FN, 2020, v2 2021, v3 2022-2024                                           
------------------------------------------------------------------------------


----------------------
SHARK INTEGRAL PACKAGE
----------------------

Number of atoms                             ...      8
Number of basis functions                   ...     64
Number of shells                            ...     32
Maximum angular momentum                    ...      2
Integral batch strategy                     ... SHARK/LIBINT Hybrid
RI-J (if used) integral strategy            ... SPLIT-RIJ (Revised 2003 algorithm where possible)
Printlevel                                  ...      1
Contraction scheme used                     ... SEGMENTED contraction
Prescreening option                         ... SCHWARTZ
   Thresh                                   ... 1.000e-09
   Tcut                                     ... 1.000e-10
   Tpresel                                  ... 1.000e-10 
Coulomb Range Separation                    ... NOT USED
Exchange Range Separation                   ... NOT USED
Multipole approximations                    ... NOT USED
Finite Nucleus Model                        ... NOT USED
CABS basis                                  ... NOT available
Auxiliary Coulomb fitting basis             ... AVAILABLE
   # of basis functions in Aux-J            ...    240
   # of shells in Aux-J                     ...     80
   Maximum angular momentum in Aux-J        ...      4
Auxiliary J/K fitting basis                 ... NOT available
Auxiliary Correlation fitting basis         ... NOT available
Auxiliary 'external' fitting basis          ... NOT available

Checking pre-screening integrals            ... done (  0.0 sec) Dimension = 32
Check shell pair data                       ... done (  0.0 sec)
Shell pair information
Shell pair cut-off parameter TPreSel        ...   1.0e-10
Total number of shell pairs                 ...       528
Shell pairs after pre-screening             ...       525
Total number of primitive shell pairs       ...      2144
Primitive shell pairs kept                  ...      1697
          la=0 lb=0:    207 shell pairs
          la=1 lb=0:    160 shell pairs
          la=1 lb=1:     36 shell pairs
          la=2 lb=0:     80 shell pairs
          la=2 lb=1:     32 shell pairs
          la=2 lb=2:     10 shell pairs

Calculating one electron integrals          ... done (  0.0 sec)
Calculating RI/J V-Matrix + Cholesky decomp.... done (  0.0 sec)
Calculating Nuclear repulsion               ... done (  0.0 sec) ENN=    122.747041898182 Eh

Diagonalization of the overlap matrix:
Smallest eigenvalue                        ... 1.104e-02
Time for diagonalization                   ...    0.000 sec
Threshold for overlap eigenvalues          ... 1.000e-07
Number of eigenvalues below threshold      ... 0
Time for construction of square roots      ...    0.000 sec
Total time needed                          ...    0.002 sec

-------------------
DFT GRID GENERATION
-------------------

General Integration Accuracy     IntAcc      ... 4.159
Radial Grid Type                 RadialGrid  ... OptM3 with GC (2021)
Angular Grid (max. ang.)         AngularGrid ... 3 (Lebedev-194)
Angular grid pruning method      GridPruning ... 4 (adaptive)
Weight generation scheme         WeightScheme... mBecke (2022)
Basis function cutoff            BFCut       ... 1.0000e-10
Integration weight cutoff        WCut        ... 1.0000e-14
Partially contracted basis set               ... off
Rotationally invariant grid construction     ... off
Angular grids for H and He will be reduced by one unit

Total number of grid points                  ...    19077
Total number of batches                      ...      302
Average number of points per batch           ...       63
Average number of grid points per atom       ...     2385
Initializing property integral containers    ... done (  0.0 sec)

SHARK setup successfully completed in   0.1 seconds

Maximum memory used throughout the entire STARTUP-calculation: 10.4 MB
-------------------------------------------------------------------------------
                                 ORCA GUESS
                   Start orbitals & Density for SCF / CASSCF
-------------------------------------------------------------------------------

------------
SCF SETTINGS
------------
Hamiltonian:
 Density Functional     Method          .... DFT(GTOs)
 Exchange Functional    Exchange        .... PBE
   PBE kappa parameter   XKappa         ....  0.804000
   PBE mue parameter    XMuePBE         ....  0.219520
 Correlation Functional Correlation     .... PBE
   PBE beta parameter  CBetaPBE         ....  0.066725
 LDA part of GGA corr.  LDAOpt          .... PW91-LDA
 Gradients option       PostSCFGGA      .... off
   NL short-range parameter             ....  6.400000
 RI-approximation to the Coulomb term is turned on
   Number of AuxJ basis functions       .... 240


General Settings:
 Integral files         IntName         .... sp
 Hartree-Fock type      HFTyp           .... RHF
 Total Charge           Charge          ....    0
 Multiplicity           Mult            ....    1
 Number of Electrons    NEL             ....   32
 Basis Dimension        Dim             ....   64
 Nuclear Repulsion      ENuc            ....    122.7470418982 Eh

Convergence Acceleration:
 AO-DIIS                CNVDIIS         .... on
   Start iteration      DIISMaxIt       ....    12
   Startup error        DIISStart       ....  0.200000
   # of expansion vecs  DIISMaxEq       ....     5
   Bias factor          DIISBfac        ....   1.050
   Max. coefficient     DIISMaxC        ....  10.000
 MO-DIIS                CNVKDIIS        .... off
 Trust-Rad. Augm. Hess. CNVTRAH         .... auto
   Auto Start mean grad. ratio tolernc. ....  1.125000
   Auto Start start iteration           ....    50
   Auto Start num. interpolation iter.  ....    10
   Max. Number of Micro iterations      ....    24
   Max. Number of Macro iterations      .... Maxiter - #DIIS iter
   Number of Davidson start vectors     ....     2
   Converg. threshold    (grad. norm)   ....   1.000e-04
   Grad. Scal. Fac. for Micro threshold ....   0.100
   Minimum threshold for Micro iter.    ....   1.000e-02
   NR start threshold (gradient norm)   ....   1.000e-04
   Initial trust radius                 ....   0.400
   Minimum AH scaling param. (alpha)    ....   1.000
   Maximum AH scaling param. (alpha)    .... 1000.000
   Quad. conv. algorithm                .... NR
   White noise on init. David. guess    .... on
   Maximum white noise                  ....   0.010
   Pseudo random numbers                .... off
   Inactive MOs                         .... canonical
   Orbital update algorithm             .... Taylor
   Preconditioner                       .... Diag
   Full preconditioner red. dimension   ....   250
 SOSCF                  CNVSOSCF        .... on
   Start iteration      SOSCFMaxIt      ....   150
   Startup grad/error   SOSCFStart      ....  0.003300
   Hessian update       SOSCFHessUp     .... L-BFGS
 Level Shifting         CNVShift        .... on
   Level shift para.    LevelShift      ....    0.2500
   Turn off err/grad.   ShiftErr        ....    0.0010
 Zerner damping         CNVZerner       .... off
 Static damping         CNVDamp         .... on
   Fraction old density DampFac         ....    0.7000
   Max. Damping (<1)    DampMax         ....    0.9800
   Min. Damping (>=0)   DampMin         ....    0.0000
   Turn off err/grad.   DampErr         ....    0.1000

SCF Procedure:
 Maximum # iterations   MaxIter         ....   125
 SCF integral mode      SCFMode         .... Direct
   Integral package                     .... SHARK and LIBINT hybrid scheme
 Reset frequency        DirectResetFreq ....    20
 Integral Threshold     Thresh          ....  1.000e-09 Eh
 Primitive CutOff       TCut            ....  1.000e-10 Eh

Convergence Tolerance:
 Convergence Check Mode ConvCheckMode   .... Total+1el-Energy
 Convergence forced     ConvForced      .... 0
 Energy Change          TolE            ....  1.000e-05 Eh
 1-El. energy change                    ....  1.000e-02 Eh
 Orbital Gradient       TolG            ....  1.000e-04
 Orbital Rotation angle TolX            ....  1.000e-04
 DIIS Error             TolErr          ....  5.000e-04

------------------------------
INITIAL GUESS: MODEL POTENTIAL
------------------------------
Loading Hartree-Fock densities                     ... done
Calculating cut-offs                               ... done
Initializing the effective Hamiltonian             ... done
Setting up the integral package (SHARK)            ... done
Starting the Coulomb interaction                   ... done (   0.0 sec)
Making the grid                                    ... done (   0.0 sec)
Mapping shells                                     ... done
Starting the XC term evaluation                    ... done (   0.0 sec)
  promolecular density results
     # of electrons  =     31.997874647
     EX              =    -27.703800841
     EC              =     -1.057335493
     EX+EC           =    -28.761136334
Transforming the Hamiltonian                       ... done (   0.0 sec)
Diagonalizing the Hamiltonian                      ... done (   0.0 sec)
Back transforming the eigenvectors                 ... done (   0.0 sec)
Now organizing SCF variables                       ... done
                      ------------------
                      INITIAL GUESS DONE (   0.1 sec)
                      ------------------
             **** ENERGY FILE WAS UPDATED (sp.en.tmp) ****
Finished Guess after   0.1 sec
Maximum memory used throughout the entire GUESS-calculation: 8.3 MB

-------------------------------------------------------------------------------------------
                                      ORCA LEAN-SCF
                              memory conserving SCF solver
-------------------------------------------------------------------------------------------

----------------------------------------D-I-I-S--------------------------------------------
Iteration    Energy (Eh)           Delta-E    RMSDP     MaxDP     DIISErr   Damp  Time(sec)
-------------------------------------------------------------------------------------------
               ***  Starting incremental Fock matrix formation  ***
    1    -228.5119548418551290     0.00e+00  7.01e-03  1.07e-01  2.50e-01  0.700   0.1
    2    -228.5697514626446605    -5.78e-02  3.84e-03  5.43e-02  7.13e-02  0.700   0.1
                               ***Turning on AO-DIIS***
    3    -228.5841286652603799    -1.44e-02  1.44e-03  1.14e-02  2.25e-02  0.700   0.1
    4    -228.5955246701383885    -1.14e-02  2.10e-03  2.19e-02  2.80e-02  0.000   0.1
    5    -228.6232241091653350    -2.77e-02  7.21e-04  7.22e-03  9.02e-03  0.000   0.1
    6    -228.6234649098404930    -2.41e-04  2.64e-04  2.48e-03  4.58e-03  0.000   0.1
                              *** Initializing SOSCF ***
---------------------------------------S-O-S-C-F--------------------------------------
Iteration    Energy (Eh)           Delta-E    RMSDP     MaxDP     MaxGrad    Time(sec)
--------------------------------------------------------------------------------------
    7    -228.6235036366331883    -3.87e-05  7.93e-05  5.93e-04  6.71e-04     0.1
               *** Restarting incremental Fock matrix formation ***
    8    -228.6235055564028471    -1.92e-06  5.13e-05  4.74e-04  8.17e-05     0.1
    9    -228.6235052641827679     2.92e-07  2.45e-05  3.98e-04  2.60e-04     0.1
                 **** Energy Check signals convergence ****

               *****************************************************
               *                     SUCCESS                       *
               *           SCF CONVERGED AFTER   9 CYCLES          *
               *****************************************************

             **** ENERGY FILE WAS UPDATED (sp.en.tmp) ****

----------------
TOTAL SCF ENERGY
----------------

Total Energy       :       -228.62350526418277 Eh           -6221.16186 eV

Components:
Nuclear Repulsion  :        122.74704189818239 Eh            3340.11682 eV
Electronic Energy  :       -351.37054716236514 Eh           -9561.27867 eV
One Electron Energy:       -554.75382813904241 Eh          -15095.61911 eV
Two Electron Energy:        203.38328097667724 Eh            5534.34044 eV

Virial components:
Potential Energy   :       -455.72044854004184 Eh          -12400.78385 eV
Kinetic Energy     :        227.09694327585908 Eh            6179.62199 eV
Virial Ratio       :          2.00672207193238

DFT components:
N(Alpha)           :       16.000013924830 electrons
N(Beta)            :       16.000013924830 electrons
N(Total)           :       32.000027849659 electrons
E(X)               :      -28.167416882678 Eh       
E(C)               :       -1.069539502338 Eh       
E(XC)              :      -29.236956385016 Eh       

---------------
SCF CONVERGENCE
---------------

  Last Energy change         ...   -2.9222e-07  Tolerance :   1.0000e-05
  Last MAX-Density change    ...    3.9795e-04  Tolerance :   1.0000e-03
  Last RMS-Density change    ...    2.4462e-05  Tolerance :   1.0000e-04
  Last DIIS Error            ...    6.7103e-04  Tolerance :   5.0000e-04
  Last Orbital Gradient      ...    2.6036e-04  Tolerance :   1.0000e-04
  Last Orbital Rotation      ...    3.3071e-04  Tolerance :   1.0000e-04


----------------
ORBITAL ENERGIES
----------------

  NO   OCC          E(Eh)            E(eV) 
   0   2.0000     -18.810596      -511.8623 
   1   2.0000     -18.747982      -510.1585 
   2   2.0000     -10.007473      -272.3172 
   3   2.0000      -9.945435      -270.6290 
   4   2.0000      -1.016238       -27.6532 
   5   2.0000      -0.928511       -25.2661 
   6   2.0000      -0.676963       -18.4211 
   7   2.0000      -0.533420       -14.5151 
   8   2.0000      -0.480550       -13.0764 
   9   2.0000      -0.439592       -11.9619 
  10   2.0000      -0.414861       -11.2890 
  11   2.0000      -0.376588       -10.2475 
  12   2.0000      -0.363518        -9.8918 
  13   2.0000      -0.308051        -8.3825 
  14   2.0000      -0.267015        -7.2659 
  15   2.0000      -0.235954        -6.4206 
  16   0.0000      -0.024518        -0.6672 
  17   0.0000       0.054491         1.4828 
  18   0.0000       0.071251         1.9388 
  19   0.0000       0.093623         2.5476 
  20   0.0000       0.102315         2.7841 
  21   0.0000       0.123356         3.3567 
  22   0.0000       0.207409         5.6439 
  23   0.0000       0.254732         6.9316 
  24   0.0000       0.365553         9.9472 
  25   0.0000       0.391722        10.6593 
  26   0.0000       0.425876        11.5887 
*Only the first 10 virtual orbitals were printed.

                    ********************************
                    * MULLIKEN POPULATION ANALYSIS *
                    ********************************

-----------------------
MULLIKEN ATOMIC CHARGES
-----------------------
   0 C :   -0.149402
   1 O :   -0.229690
   2 C :    0.118597
   3 O :   -0.200905
   4 H :    0.135139
   5 H :    0.127512
   6 H :    0.127512
   7 H :    0.071238
Sum of atomic charges:   -0.0000000

--------------------------------
MULLIKEN REDUCED ORBITAL CHARGES
--------------------------------
  0 C s       :     3.135957  s :     3.135957
      pz      :     1.101972  p :     2.962475
      px      :     0.980308
      py      :     0.880195
      dz2     :     0.008523  d :     0.050970
      dxz     :     0.011888
      dyz     :     0.005091
      dx2y2   :     0.009654
      dxy     :     0.015814

  1 O s       :     3.724110  s :     3.724110
      pz      :     1.705663  p :     4.488687
      px      :     1.240603
      py      :     1.542421
      dz2     :     0.002102  d :     0.016893
      dxz     :     0.003167
      dyz     :     0.001611
      dx2y2   :     0.005332
      dxy     :     0.004681

  2 C s       :     3.102889  s :     3.102889
      pz      :     0.845718  p :     2.650674
      px      :     0.850613
      py      :     0.954343
      dz2     :     0.007212  d :     0.127840
      dxz     :     0.020237
      dyz     :     0.013393
      dx2y2   :     0.050526
      dxy     :     0.036472

  3 O s       :     3.758961  s :     3.758961
      pz      :     1.380306  p :     4.423097
      px      :     1.637326
      py      :     1.405465
      dz2     :     0.002014  d :     0.018848
      dxz     :     0.001605
      dyz     :     0.004361
      dx2y2   :     0.004880
      dxy     :     0.005989

  4 H s       :     0.864861  s :     0.864861

  5 H s       :     0.872488  s :     0.872488

  6 H s       :     0.872488  s :     0.872488

  7 H s       :     0.928762  s :     0.928762


------------------------
MULLIKEN OVERLAP CHARGES
------------------------
B(  0-C ,  1-O ) :   0.5464 B(  0-C ,  2-C ) :  -0.0749 B(  0-C ,  4-H ) :   0.7237 
B(  0-C ,  5-H ) :   0.7760 B(  0-C ,  6-H ) :   0.7752 B(  1-O ,  2-C ) :   0.6666 
B(  1-O ,  3-O ) :  -0.1569 B(  1-O ,  4-H ) :  -0.0738 B(  1-O ,  5-H ) :  -0.0540 
B(  1-O ,  6-H ) :  -0.0541 B(  1-O ,  7-H ) :  -0.1575 B(  2-C ,  3-O ) :   1.2782 
B(  2-C ,  7-H ) :   0.7424 B(  3-O ,  4-H ) :   0.0870 B(  3-O ,  7-H ) :  -0.0913 
B(  5-H ,  6-H ) :  -0.0531 


                     *******************************
                     * LOEWDIN POPULATION ANALYSIS *
                     *******************************

----------------------
LOEWDIN ATOMIC CHARGES
----------------------
   0 C :   -0.213006
   1 O :   -0.074515
   2 C :   -0.019097
   3 O :   -0.150952
   4 H :    0.124327
   5 H :    0.122713
   6 H :    0.122770
   7 H :    0.087760

-------------------------------
LOEWDIN REDUCED ORBITAL CHARGES
-------------------------------
  0 C s       :     2.965081  s :     2.965081
      pz      :     1.149132  p :     3.135500
      px      :     1.032790
      py      :     0.953577
      dz2     :     0.019283  d :     0.112426
      dxz     :     0.028690
      dyz     :     0.009463
      dx2y2   :     0.019763
      dxy     :     0.035227

  1 O s       :     3.454634  s :     3.454634
      pz      :     1.678249  p :     4.586001
      px      :     1.332980
      py      :     1.574772
      dz2     :     0.004326  d :     0.033880
      dxz     :     0.005005
      dyz     :     0.002113
      dx2y2   :     0.012543
      dxy     :     0.009893

  2 C s       :     2.892376  s :     2.892376
      pz      :     0.841298  p :     2.835672
      px      :     0.933928
      py      :     1.060446
      dz2     :     0.017325  d :     0.291049
      dxz     :     0.040876
      dyz     :     0.024386
      dx2y2   :     0.121300
      dxy     :     0.087162

  3 O s       :     3.548472  s :     3.548472
      pz      :     1.370984  p :     4.569615
      px      :     1.658348
      py      :     1.540283
      dz2     :     0.004536  d :     0.032865
      dxz     :     0.002028
      dyz     :     0.005533
      dx2y2   :     0.008492
      dxy     :     0.012277

  4 H s       :     0.875673  s :     0.875673

  5 H s       :     0.877287  s :     0.877287

  6 H s       :     0.877230  s :     0.877230

  7 H s       :     0.912240  s :     0.912240


---------------------------------
LOEWDIN BOND ORDERS (THRESH 0.050000)
---------------------------------
B(  0-C ,  1-O ) :   1.1072 B(  0-C ,  2-C ) :   0.0780 B(  0-C ,  4-H ) :   0.9324 
B(  0-C ,  5-H ) :   0.9512 B(  0-C ,  6-H ) :   0.9513 B(  1-O ,  2-C ) :   1.4682 
B(  1-O ,  3-O ) :   0.2317 B(  2-C ,  3-O ) :   2.3006 B(  2-C ,  7-H ) :   0.8899 
B(  3-O ,  7-H ) :   0.0644 

------------------------------------------
LOEWDIN REDUCED ORBITAL POPULATIONS PER MO
-------------------------------------------
THRESHOLD FOR PRINTING IS 0.1%%
                      0         1         2         3         4         5   
                 -18.81060 -18.74798 -10.00747  -9.94544  -1.01624  -0.92851
                   2.00000   2.00000   2.00000   2.00000   2.00000   2.00000
                  --------  --------  --------  --------  --------  --------
 0 C  s               0.0       0.0       0.0      99.7       4.8       2.2
 0 C  px              0.0       0.0       0.0       0.0       2.5       0.4
 0 C  py              0.0       0.0       0.0       0.0       3.1       1.4
 0 C  dz2             0.0       0.0       0.0       0.0       0.1       0.1
 0 C  dxy             0.0       0.0       0.0       0.0       0.3       0.2
 1 O  s              99.9       0.0       0.0       0.0      41.6      15.8
 1 O  px              0.0       0.0       0.2       0.0       1.6       0.3
 1 O  py              0.0       0.0       0.0       0.1       1.7       0.3
 2 C  s               0.0       0.0      99.4       0.0      19.2       4.9
 2 C  px              0.0       0.0       0.0       0.0       3.7      13.7
 2 C  py              0.0       0.1       0.0       0.0       1.4      11.3
 2 C  dz2             0.0       0.0       0.0       0.0       0.6       0.1
 2 C  dx2y2           0.0       0.0       0.0       0.0       0.2       1.2
 2 C  dxy             0.0       0.0       0.0       0.0       0.3       0.7
 3 O  s               0.0      99.9       0.0       0.0      11.9      41.7
 3 O  px              0.0       0.0       0.1       0.0       1.1       1.0
 3 O  py              0.0       0.0       0.2       0.0       1.8       3.6
 4 H  s               0.0       0.0       0.0       0.1       0.9       0.1
 5 H  s               0.0       0.0       0.0       0.1       0.5       0.3
 6 H  s               0.0       0.0       0.0       0.1       0.5       0.3
 7 H  s               0.0       0.0       0.1       0.0       1.8       0.3

                      6         7         8         9        10        11   
                  -0.67696  -0.53342  -0.48055  -0.43959  -0.41486  -0.37659
                   2.00000   2.00000   2.00000   2.00000   2.00000   2.00000
                  --------  --------  --------  --------  --------  --------
 0 C  s              29.4      11.6       0.1       0.0       0.2       0.1
 0 C  pz              0.0       0.0       0.0      31.4       0.0       0.0
 0 C  px              0.2       4.1       4.1       0.0      11.0      26.4
 0 C  py              0.3      13.2      11.0       0.0       0.7       3.8
 0 C  dz2             0.0       0.2       0.0       0.0       0.1       0.3
 0 C  dyz             0.0       0.0       0.0       0.1       0.0       0.0
 0 C  dx2y2           0.0       0.1       0.1       0.0       0.0       0.1
 0 C  dxy             0.0       0.6       0.1       0.0       0.1       0.0
 1 O  s               0.4       5.1       2.2       0.0       1.8       0.0
 1 O  pz              0.0       0.0       0.0      32.7       0.0       0.0
 1 O  px             23.6      11.1      17.3       0.0       1.1       1.0
 1 O  py              7.5       1.0       6.3       0.0      20.7       1.5
 1 O  dx2y2           0.2       0.1       0.0       0.0       0.1       0.1
 1 O  dxy             0.1       0.0       0.2       0.0       0.0       0.1
 2 C  s               6.3       8.3       1.6       0.0       2.7       1.0
 2 C  pz              0.0       0.0       0.0      14.3       0.0       0.0
 2 C  px              3.0       0.3      16.1       0.0       3.9       2.3
 2 C  py              4.8       9.2      12.3       0.0       1.4       9.2
 2 C  dxz             0.0       0.0       0.0       0.2       0.0       0.0
 2 C  dx2y2           0.2       0.0       0.1       0.0       0.0       0.0
 2 C  dxy             0.0       0.1       0.0       0.0       0.7       0.3
 3 O  s               1.0       2.4       0.0       0.0      15.3       3.9
 3 O  pz              0.0       0.0       0.0       5.5       0.0       0.0
 3 O  px              0.1       0.1       6.3       0.0       6.5      10.9
 3 O  py              0.3       1.9       3.7       0.0      26.9      10.5
 3 O  dz2             0.0       0.0       0.0       0.0       0.1       0.0
 3 O  dx2y2           0.0       0.0       0.2       0.0       0.1       0.0
 3 O  dxy             0.0       0.0       0.0       0.0       0.2       0.2
 4 H  s               5.9       7.6       6.0       0.0       0.3      11.3
 5 H  s               7.1       6.5       0.2       7.9       2.2       4.5
 6 H  s               7.1       6.4       0.2       7.6       2.3       5.3
 7 H  s               2.5      10.0      11.8       0.0       1.6       7.0

                     12        13        14        15        16        17   
                  -0.36352  -0.30805  -0.26702  -0.23595  -0.02452   0.05449
                   2.00000   2.00000   2.00000   2.00000   0.00000   0.00000
                  --------  --------  --------  --------  --------  --------
 0 C  s               0.0       0.2       0.0       0.1       0.0      23.7
 0 C  pz             21.0       0.0       5.1       0.0       0.1       0.0
 0 C  px              0.0       2.6       0.0       0.2       0.0       5.5
 0 C  py              0.0      12.5       0.0       1.6       0.0       1.8
 0 C  dz2             0.0       0.1       0.0       0.0       0.0       0.2
 0 C  dxz             0.6       0.0       0.8       0.0       0.3       0.0
 0 C  dyz             0.0       0.0       0.3       0.0       0.2       0.0
 0 C  dx2y2           0.0       0.5       0.0       0.0       0.0       0.0
 0 C  dxy             0.0       0.4       0.0       0.1       0.0       0.1
 1 O  s               0.0       5.2       0.0       0.7       0.0       0.5
 1 O  pz              2.9       0.0      48.4       0.0      12.2       0.0
 1 O  px              0.0       5.3       0.0       5.0       0.0       0.2
 1 O  py              0.0      38.5       0.0       1.3       0.0       0.3
 1 O  dxz             0.2       0.0       0.0       0.0       0.5       0.0
 2 C  s               0.0       0.6       0.0       0.6       0.0       0.8
 2 C  pz             27.4       0.0       0.4       0.0      54.0       0.0
 2 C  px              0.0       2.8       0.0       0.8       0.0       0.1
 2 C  py              0.0       2.5       0.0       0.7       0.0       0.5
 2 C  dz2             0.0       0.0       0.0       0.0       0.0       0.1
 2 C  dxz             0.0       0.0       1.8       0.0       0.0       0.0
 2 C  dyz             0.3       0.0       0.9       0.0       1.4       0.0
 2 C  dx2y2           0.0       0.0       0.0       4.3       0.0       0.1
 2 C  dxy             0.0       1.1       0.0       1.2       0.0       0.1
 3 O  s               0.0       1.3       0.0       0.0       0.0       0.5
 3 O  pz             29.5       0.0      33.6       0.0      28.8       0.0
 3 O  px              0.0       2.2       0.0      54.7       0.0       0.5
 3 O  py              0.0       8.1       0.0      19.9       0.0       0.1
 3 O  dxz             0.1       0.0       0.0       0.0       0.1       0.0
 3 O  dyz             0.2       0.0       0.0       0.0       0.5       0.0
 4 H  s               0.0      11.1       0.0       0.6       0.0       8.8
 5 H  s               9.2       1.0       4.5       0.0       0.9      28.1
 6 H  s               8.6       1.2       4.3       0.0       0.9      27.9
 7 H  s               0.0       2.4       0.0       8.1       0.0       0.1

                     18        19        20        21        22        23   
                   0.07125   0.09362   0.10231   0.12336   0.20741   0.25473
                   0.00000   0.00000   0.00000   0.00000   0.00000   0.00000
                  --------  --------  --------  --------  --------  --------
 0 C  s               2.3       4.9       0.0       0.1       1.0       0.1
 0 C  pz              0.0       0.0      27.9       0.0       0.0       0.0
 0 C  px              4.7      19.1       0.0       6.4       1.8       2.4
 0 C  py             15.8      10.1       0.0      17.8       4.7       2.2
 0 C  dz2             0.5       2.2       0.0       0.2       0.1       0.6
 0 C  dxz             0.0       0.0       1.4       0.0       0.0       0.0
 0 C  dyz             0.0       0.0       0.1       0.0       0.0       0.0
 0 C  dx2y2           0.0       0.7       0.0       0.0       0.0       0.6
 0 C  dxy             2.4       1.7       0.0       2.3       0.1       0.3
 1 O  s               6.3       6.0       0.0       1.8       1.2       5.7
 1 O  pz              0.0       0.0       1.3       0.0       0.0       0.0
 1 O  px              0.3       2.4       0.0       1.4       7.3       9.3
 1 O  py              3.8       6.3       0.0       0.5       0.2       2.8
 1 O  dz2             0.2       0.1       0.0       0.1       0.0       0.1
 1 O  dyz             0.0       0.0       0.3       0.0       0.0       0.0
 1 O  dx2y2           0.2       0.4       0.0       0.2       0.2       0.7
 1 O  dxy             0.6       0.1       0.0       0.0       1.0       0.0
 2 C  s              10.4       3.9       0.0       0.4      35.9       1.5
 2 C  pz              0.0       0.0       0.5       0.0       0.0       0.0
 2 C  px              1.4       3.6       0.0       3.3       1.8      46.5
 2 C  py              8.8       3.0       0.0       2.4      11.6       9.3
 2 C  dz2             0.9       0.1       0.0       0.0       8.3       0.9
 2 C  dx2y2           0.2       0.3       0.0       0.1       0.1       5.0
 2 C  dxy             0.2       0.5       0.0       0.1       2.8       0.5
 3 O  s               0.3       0.3       0.0       0.9       8.0       3.4
 3 O  pz              0.0       0.0       0.4       0.0       0.0       0.0
 3 O  px              0.2       0.4       0.0       1.9       2.0       4.2
 3 O  py              0.2       0.5       0.0       1.9       2.0       1.6
 3 O  dx2y2           0.1       0.2       0.0       0.1       0.0       0.3
 3 O  dxy             0.0       0.0       0.0       0.0       0.3       0.2
 4 H  s               0.8      14.9       0.0      37.9       2.6       0.0
 5 H  s               0.3       0.9      33.9       4.6       0.2       0.8
 6 H  s               0.3       1.3      34.0       4.4       0.1       0.9
 7 H  s              38.7      16.1       0.0      11.4       6.6       0.0

                     24        25        26        27        28        29   
                   0.36555   0.39172   0.42588   0.46059   0.48889   0.57661
                   0.00000   0.00000   0.00000   0.00000   0.00000   0.00000
                  --------  --------  --------  --------  --------  --------
 0 C  s               0.0       1.5       9.5       0.3       0.0       2.3
 0 C  pz             28.1       0.0       0.0       0.0      20.8       0.0
 0 C  px              0.0       6.5      26.7      15.6       0.0       0.5
 0 C  py              0.0      25.7      23.0       8.4       0.0       1.8
 0 C  dz2             0.0       2.4       0.9       4.9       0.0       0.6
 0 C  dxz             5.8       0.0       0.0       0.0       6.2       0.0
 0 C  dyz             0.4       0.0       0.0       0.0       0.3       0.0
 0 C  dx2y2           0.0       0.8       0.3       0.0       0.0       0.1
 0 C  dxy             0.0       3.2       0.0       0.5       0.0       0.1
 1 O  s               0.0       0.0       0.9       0.1       0.0       0.2
 1 O  pz              2.8       0.0       0.0       0.0       0.6       0.0
 1 O  px              0.0       3.0       0.1       7.7       0.0       0.5
 1 O  py              0.0       0.4       5.9       5.5       0.0       0.7
 1 O  dz2             0.0       0.2       1.4       0.5       0.0       0.0
 1 O  dxz             0.1       0.0       0.0       0.0       0.0       0.0
 1 O  dyz             0.1       0.0       0.0       0.0       0.3       0.0
 1 O  dx2y2           0.0       2.1       0.2       0.5       0.0       0.0
 1 O  dxy             0.0       0.8       1.0       0.4       0.0       0.0
 2 C  s               0.0      17.9       3.1      16.1       0.0      29.5
 2 C  pz             44.0       0.0       0.0       0.0      53.1       0.0
 2 C  px              0.0      10.7      11.0      12.9       0.0      14.2
 2 C  py              0.0       1.0       0.2       2.6       0.0       0.6
 2 C  dz2             0.0       0.2       0.8       0.3       0.0       1.7
 2 C  dyz             0.0       0.0       0.0       0.0       0.8       0.0
 2 C  dx2y2           0.0       0.0       0.0       0.6       0.0       1.9
 2 C  dxy             0.0       0.7       0.6       2.0       0.0       0.1
 3 O  s               0.0       0.1       0.2       0.2       0.0       0.4
 3 O  pz              1.1       0.0       0.0       0.0       0.3       0.0
 3 O  px              0.0       0.2       1.2       2.8       0.0       0.4
 3 O  py              0.0       0.3       0.6       0.0       0.0       4.4
 3 O  dz2             0.0       0.1       0.0       0.2       0.0       0.9
 3 O  dxz             0.0       0.0       0.0       0.0       0.1       0.0
 3 O  dyz             0.1       0.0       0.0       0.0       0.1       0.0
 3 O  dx2y2           0.0       0.0       0.0       0.2       0.0       1.4
 3 O  dxy             0.0       0.3       0.1       0.3       0.0       0.9
 4 H  s               0.0      17.3       0.4       3.7       0.0       0.5
 5 H  s               8.8       1.3       2.6       3.7       8.5       2.0
 6 H  s               8.5       1.4       2.8       3.4       9.0       2.1
 7 H  s               0.0       1.7       6.8       6.5       0.0      32.1

                     30        31        32        33        34        35   
                   0.60780   0.61642   0.62470   0.63391   0.64196   0.71038
                   0.00000   0.00000   0.00000   0.00000   0.00000   0.00000
                  --------  --------  --------  --------  --------  --------
 0 C  s              14.5      36.9       0.0       1.8       2.6      26.8
 0 C  pz              0.0       0.0      58.2       0.0       0.0       0.0
 0 C  px             25.0       3.1       0.0      17.6       2.1       2.3
 0 C  py              0.0       6.4       0.0      22.5       1.0       0.9
 0 C  dz2             0.0       0.1       0.0       1.1       0.5       1.4
 0 C  dxz             0.0       0.0       2.3       0.0       0.0       0.0
 0 C  dyz             0.0       0.0       0.2       0.0       0.0       0.0
 0 C  dx2y2           1.4       0.0       0.0       0.5       0.4       2.1
 0 C  dxy             0.0       0.1       0.0       1.2       0.5       0.7
 1 O  s               0.8       0.1       0.0       0.0       0.2       5.8
 1 O  pz              0.0       0.0       0.3       0.0       0.0       0.0
 1 O  px              2.8       0.7       0.0       1.8       0.5       5.6
 1 O  py              4.0       0.5       0.0       0.8       1.4       2.9
 1 O  dx2y2           0.7       0.1       0.0       0.1       0.0       0.3
 1 O  dxy             0.3       0.0       0.0       0.0       0.0       0.0
 2 C  s               1.0       0.5       0.0       1.0       4.6       1.5
 2 C  pz              0.0       0.0       0.4       0.0       0.0       0.0
 2 C  px             12.1       0.8       0.0       8.2       3.3       4.1
 2 C  py              9.6      11.0       0.0       2.0      48.1      10.7
 2 C  dz2             0.0       0.0       0.0       0.0       1.3       0.1
 2 C  dxz             0.0       0.0       0.2       0.0       0.0       0.0
 2 C  dyz             0.0       0.0       0.2       0.0       0.0       0.0
 2 C  dx2y2           0.1       0.1       0.0       0.8       0.5       0.9
 2 C  dxy             3.5       1.0       0.0       1.4       0.3       0.0
 3 O  s               1.4       1.1       0.0       0.1       0.1       0.9
 3 O  pz              0.0       0.0       0.5       0.0       0.0       0.0
 3 O  px              2.8       1.1       0.0       1.4       1.4       1.5
 3 O  py              2.4       3.4       0.0       3.2       5.0       6.6
 3 O  dz2             0.5       0.5       0.0       0.3       0.6       0.2
 3 O  dx2y2           0.3       0.4       0.0       0.2       0.6       0.1
 3 O  dxy             1.6       1.2       0.0       0.6       1.1       0.0
 4 H  s               4.4       7.6       0.0      23.5       7.4      10.7
 5 H  s               1.1       9.3      19.0       4.8       6.7       5.5
 6 H  s               1.2       8.9      18.5       4.9       7.5       5.1
 7 H  s               8.4       5.0       0.0       0.2       2.4       3.6

                     36        37        38        39        40        41   
                   0.86643   0.91606   1.01494   1.05033   1.08473   1.17875
                   0.00000   0.00000   0.00000   0.00000   0.00000   0.00000
                  --------  --------  --------  --------  --------  --------
 0 C  s               1.8       0.0       0.0       7.6       0.1       4.0
 0 C  pz              0.0       0.5       1.1       0.0       0.0       0.0
 0 C  px              0.4       0.0       0.0       0.8       0.3       0.1
 0 C  py              1.0       0.0       0.0       0.9       0.8       0.6
 0 C  dz2             0.1       0.0       0.0       0.0       0.2       2.4
 0 C  dxz             0.0       0.1       0.2       0.0       0.0       0.0
 0 C  dyz             0.0       1.6       4.4       0.0       0.0       0.0
 0 C  dx2y2           0.9       0.0       0.0       0.0       2.3       4.1
 0 C  dxy             0.0       0.0       0.0       0.1       0.0       0.8
 1 O  s               0.2       0.0       0.0      10.7       0.5       6.5
 1 O  pz              0.0      49.6      39.8       0.0       0.0       0.0
 1 O  px              1.0       0.0       0.0      13.8       9.2      30.9
 1 O  py              5.9       0.0       0.0      39.8       0.9       6.9
 1 O  dz2             0.1       0.0       0.0       0.7       0.6       0.0
 1 O  dxz             0.0       0.0       0.2       0.0       0.0       0.0
 1 O  dyz             0.0       0.2       0.1       0.0       0.0       0.0
 1 O  dx2y2           0.1       0.0       0.0       0.3       1.4       5.7
 1 O  dxy             0.1       0.0       0.0       1.2       0.0       1.3
 2 C  s               2.2       0.0       0.0       0.2       2.2       3.2
 2 C  pz              0.0       0.1       2.2       0.0       0.0       0.0
 2 C  px              0.1       0.0       0.0       0.6       2.7       3.1
 2 C  py              0.5       0.0       0.0       6.2       0.9       0.9
 2 C  dz2             0.9       0.0       0.0       0.3       0.1       0.7
 2 C  dxz             0.0       0.6       1.3       0.0       0.0       0.0
 2 C  dyz             0.0       0.1       0.5       0.0       0.0       0.0
 2 C  dx2y2           0.9       0.0       0.0       0.3       1.6       0.2
 2 C  dxy             1.4       0.0       0.0       2.5       0.8       0.1
 3 O  s               9.1       0.0       0.0       1.4       0.6      16.1
 3 O  pz              0.0      46.5      49.5       0.0       0.0       0.0
 3 O  px             31.3       0.0       0.0       0.3      46.5       8.6
 3 O  py             38.3       0.0       0.0       7.2      24.1       1.2
 3 O  dz2             0.4       0.0       0.0       0.5       0.0       0.0
 3 O  dyz             0.0       0.1       0.6       0.0       0.0       0.0
 3 O  dx2y2           0.1       0.0       0.0       0.4       2.5       0.0
 3 O  dxy             1.4       0.0       0.0       0.3       0.1       1.2
 4 H  s               1.7       0.0       0.0       0.1       1.3       0.2
 5 H  s               0.0       0.3       0.0       1.1       0.0       0.4
 6 H  s               0.0       0.3       0.1       1.0       0.0       0.4
 7 H  s               0.1       0.0       0.0       1.3       0.1       0.5

                     42        43        44        45        46        47   
                   1.33546   1.41302   1.42782   1.54077   1.65624   1.68438
                   0.00000   0.00000   0.00000   0.00000   0.00000   0.00000
                  --------  --------  --------  --------  --------  --------
 0 C  s               0.2       4.8       0.0       0.0       0.0       0.0
 0 C  pz              0.0       0.0       0.4       0.3       0.2       0.0
 0 C  px              0.3       0.3       0.0       0.0       0.0       0.5
 0 C  py              0.1       0.3       0.0       0.0       0.0       0.7
 0 C  dz2             0.6       0.3       0.0       0.0       0.1       9.8
 0 C  dxz             0.0       0.0       0.6       0.0       1.9       0.0
 0 C  dyz             0.0       0.0      34.4       1.0      45.1       0.1
 0 C  dx2y2           6.8       0.0       0.0       0.0       0.0      42.9
 0 C  dxy             0.2       0.1       0.0       0.0       0.0       1.2
 1 O  s              18.2      39.5       0.0       0.0       0.0       5.1
 1 O  pz              0.0       0.0       0.3       0.5       6.5       0.0
 1 O  px              1.6       3.5       0.0       0.0       0.0       5.5
 1 O  py              1.1      20.7       0.0       0.0       0.0       0.2
 1 O  dz2             0.8       6.4       0.0       0.0       0.0       5.4
 1 O  dxz             0.0       0.0      13.1       0.2       1.6       0.0
 1 O  dyz             0.0       0.0       1.1       2.0       8.1       0.0
 1 O  dx2y2           2.0       0.1       0.0       0.0       0.0       0.0
 1 O  dxy             0.2       3.0       0.0       0.0       0.0       7.2
 2 C  s               0.4       0.3       0.0       0.0       0.0       1.6
 2 C  pz              0.0       0.0       0.1       1.0       0.2       0.0
 2 C  px              0.7       0.2       0.0       0.0       0.0       0.5
 2 C  py              0.5       3.8       0.0       0.0       0.0       3.8
 2 C  dz2             0.1       0.1       0.0       0.0       0.0       6.1
 2 C  dxz             0.0       0.0      44.9       6.5      25.3       0.0
 2 C  dyz             0.0       0.0       0.5      76.3       5.1       0.0
 2 C  dx2y2           2.1       0.6       0.0       0.0       0.0       2.5
 2 C  dxy             0.2       2.0       0.0       0.0       0.0       2.7
 3 O  s              53.4       7.4       0.0       0.0       0.0       0.6
 3 O  pz              0.0       0.0       0.6       1.7       0.7       0.0
 3 O  px              0.4       0.3       0.0       0.0       0.0       0.7
 3 O  py              3.5       2.7       0.0       0.0       0.0       0.2
 3 O  dz2             1.6       0.1       0.0       0.0       0.0       0.3
 3 O  dxz             0.0       0.0       0.0       6.2       0.2       0.0
 3 O  dyz             0.0       0.0       3.5       4.1       4.8       0.0
 3 O  dx2y2           0.8       0.0       0.0       0.0       0.0       0.1
 3 O  dxy             3.9       1.9       0.0       0.0       0.0       0.3
 4 H  s               0.3       0.4       0.0       0.0       0.0       0.3
 7 H  s               0.0       1.0       0.0       0.0       0.0       1.6

                     48        49        50        51        52        53   
                   1.82219   1.92360   1.93448   1.99661   2.04367   2.20300
                   0.00000   0.00000   0.00000   0.00000   0.00000   0.00000
                  --------  --------  --------  --------  --------  --------
 0 C  s               0.2       1.1       0.1       0.0       0.1       0.7
 0 C  pz              0.0       0.0       0.0       4.3       0.0       0.0
 0 C  px              0.4       1.2       0.3       0.0       2.5       0.3
 0 C  py              0.1       1.4       0.1       0.0       1.2       0.5
 0 C  dz2             0.0      15.6       7.9       0.0      38.1       4.6
 0 C  dxz             0.0       0.0       0.0      73.6       0.0       0.0
 0 C  dyz             0.0       0.0       0.0       3.8       0.0       0.0
 0 C  dx2y2          14.3       0.1       3.6       0.0       3.3       6.9
 0 C  dxy             0.2      46.1       0.4       0.0      26.7       1.5
 1 O  s               0.3       0.7       5.7       0.0       1.2       0.7
 1 O  pz              0.0       0.0       0.0       0.4       0.0       0.0
 1 O  px              1.5       8.1       4.9       0.0       0.9       2.3
 1 O  py              0.1       4.2       0.4       0.0       0.2       1.2
 1 O  dz2             1.1       2.5       1.0       0.0       0.8       1.4
 1 O  dyz             0.0       0.0       0.0       3.1       0.0       0.0
 1 O  dx2y2           0.0       0.9       4.4       0.0       0.3       4.3
 1 O  dxy             0.0       5.4       1.4       0.0       0.9       2.7
 2 C  s               2.3       0.3       0.5       0.0       0.4       1.0
 2 C  px              0.6       0.2       1.8       0.0       0.6       0.2
 2 C  py              0.3       0.2       1.4       0.0       0.1       0.7
 2 C  dz2            41.6       0.0       8.5       0.0       1.6      17.0
 2 C  dx2y2           2.1       5.5      28.8       0.0       5.7      10.3
 2 C  dxy            18.7       0.4       8.1       0.0       0.4      22.3
 3 O  s               0.8       0.6       0.6       0.0       0.2       6.8
 3 O  px              0.6       0.2       0.9       0.0       0.2       3.0
 3 O  py              0.1       0.5       1.1       0.0       0.1       7.3
 3 O  dz2             3.5       0.0       1.3       0.0       0.0       0.7
 3 O  dxz             0.0       0.0       0.0       0.1       0.0       0.0
 3 O  dx2y2           3.8       0.8       9.8       0.0       0.9       0.3
 3 O  dxy             0.3       0.8       3.0       0.0       0.7       2.6
 4 H  s               0.1       1.4       0.3       0.0       9.2       0.1
 5 H  s               0.1       0.8       0.7       7.1       1.8       0.2
 6 H  s               0.1       0.8       0.7       7.2       1.7       0.2
 7 H  s               6.8       0.2       2.3       0.0       0.0       0.0

                     54        55        56        57        58        59   
                   2.53652   2.59144   2.69430   2.78493   2.80078   3.00538
                   0.00000   0.00000   0.00000   0.00000   0.00000   0.00000
                  --------  --------  --------  --------  --------  --------
 0 C  s               0.0       0.1       0.0       0.5       0.0       0.4
 0 C  pz              0.0       0.0       0.4       0.0       0.0       0.0
 0 C  px              0.0       0.1       0.0       0.5       0.0       0.2
 0 C  py              0.0       0.0       0.0       0.2       0.0       0.5
 0 C  dz2             0.0       0.0       0.0       0.7       0.0       1.3
 0 C  dxz             0.6       0.0       5.4       0.0       0.0       0.0
 0 C  dyz             0.0       0.0       6.8       0.0       0.5       0.0
 0 C  dx2y2           0.0       0.6       0.0       3.2       0.0       0.7
 0 C  dxy             0.0       0.0       0.0       2.0       0.0       0.8
 1 O  s               0.0       0.3       0.0       0.8       0.0       5.6
 1 O  pz              0.1       0.0       0.9       0.0       0.5       0.0
 1 O  px              0.0       0.4       0.0       0.1       0.0       0.6
 1 O  py              0.0       0.3       0.0       2.1       0.0       0.6
 1 O  dz2             0.0       3.5       0.0      28.5       0.0      36.9
 1 O  dxz             9.8       0.0       4.1       0.0      52.6       0.0
 1 O  dyz             5.6       0.0      74.5       0.0       3.5       0.0
 1 O  dx2y2           0.0       0.5       0.0      22.9       0.0       6.3
 1 O  dxy             0.0       1.3       0.0       9.4       0.0       1.5
 2 C  s               0.0       0.0       0.0       0.2       0.0       1.0
 2 C  pz              0.2       0.0       0.0       0.0       1.6       0.0
 2 C  px              0.0       0.0       0.0       0.0       0.0       3.1
 2 C  py              0.0       0.1       0.0       0.1       0.0       0.1
 2 C  dz2             0.0       2.8       0.0       0.4       0.0       1.5
 2 C  dxz             0.0       0.0       0.9       0.0       7.2       0.0
 2 C  dyz             0.2       0.0       0.1       0.0       3.1       0.0
 2 C  dx2y2           0.0       0.0       0.0       5.2       0.0       3.6
 2 C  dxy             0.0       0.1       0.0       4.8       0.0       0.9
 3 O  s               0.0       0.0       0.0       0.5       0.0       0.1
 3 O  pz              0.0       0.0       0.0       0.0       0.4       0.0
 3 O  px              0.0       0.0       0.0       0.1       0.0       0.1
 3 O  py              0.0       0.0       0.0       0.6       0.0       0.5
 3 O  dz2             0.0      64.8       0.0       5.9       0.0       0.0
 3 O  dxz            56.5       0.0       0.1       0.0      26.1       0.0
 3 O  dyz            26.8       0.0       6.5       0.0       4.3       0.0
 3 O  dx2y2           0.0       9.3       0.0       7.9       0.0      29.0
 3 O  dxy             0.0      15.4       0.0       3.4       0.0       4.3
 5 H  s               0.1       0.0       0.1       0.0       0.0       0.1
 6 H  s               0.1       0.0       0.1       0.0       0.0       0.0
 7 H  s               0.0       0.2       0.0       0.0       0.0       0.3

                     60        61        62        63   
                   3.12453   3.26122   3.42196   3.55006
                   0.00000   0.00000   0.00000   0.00000
                  --------  --------  --------  --------
 0 C  s               0.0       1.3       0.3       0.0
 0 C  px              0.0       0.6       0.2       0.0
 0 C  py              0.0       1.5       0.2       0.1
 0 C  dz2             0.0       1.3       0.1       0.1
 0 C  dyz             0.5       0.0       0.0       0.0
 0 C  dx2y2           0.0       1.4       0.3       0.6
 0 C  dxy             0.0       3.7       1.3       0.0
 1 O  s               0.0       0.4       0.8       0.5
 1 O  px              0.0       2.0       3.3       0.2
 1 O  py              0.0       0.3       0.2       0.1
 1 O  dz2             0.0       2.3       2.9       2.1
 1 O  dxz            17.3       0.0       0.0       0.0
 1 O  dyz             0.9       0.0       0.0       0.0
 1 O  dx2y2           0.0       3.4      34.0       7.3
 1 O  dxy             0.0      50.5       4.4       4.6
 2 C  s               0.0       2.3       0.3       8.8
 2 C  pz              0.5       0.0       0.0       0.0
 2 C  px              0.0       0.6       3.5       0.6
 2 C  py              0.0       1.1       2.1       2.9
 2 C  dz2             0.0       0.0       0.4       2.4
 2 C  dxz            10.8       0.0       0.0       0.0
 2 C  dyz            10.5       0.0       0.0       0.0
 2 C  dx2y2           0.0       0.1      13.5       0.5
 2 C  dxy             0.0       5.9       1.0       9.6
 3 O  s               0.0       1.1       1.2       4.0
 3 O  pz              1.0       0.0       0.0       0.0
 3 O  px              0.0       0.6       1.0       0.3
 3 O  py              0.0       0.3       0.3       2.9
 3 O  dz2             0.0       3.3       2.4      11.4
 3 O  dxz            10.2       0.0       0.0       0.0
 3 O  dyz            48.2       0.0       0.0       0.0
 3 O  dx2y2           0.0       1.9       3.0      25.1
 3 O  dxy             0.0      13.8      23.3      15.7
 7 H  s               0.0       0.1       0.2       0.1


                      *****************************
                      * MAYER POPULATION ANALYSIS *
                      *****************************

  NA   - Mulliken gross atomic population
  ZA   - Total nuclear charge
  QA   - Mulliken gross atomic charge
  VA   - Mayer's total valence
  BVA  - Mayer's bonded valence
  FA   - Mayer's free valence

  ATOM       NA         ZA         QA         VA         BVA        FA
  0 C      6.1494     6.0000    -0.1494     3.8362     3.8362    -0.0000
  1 O      8.2297     8.0000    -0.2297     2.2697     2.2697     0.0000
  2 C      5.8814     6.0000     0.1186     4.2240     4.2240     0.0000
  3 O      8.2009     8.0000    -0.2009     2.2838     2.2838     0.0000
  4 H      0.8649     1.0000     0.1351     0.9971     0.9971    -0.0000
  5 H      0.8725     1.0000     0.1275     0.9539     0.9539    -0.0000
  6 H      0.8725     1.0000     0.1275     0.9540     0.9540    -0.0000
  7 H      0.9288     1.0000     0.0712     0.9690     0.9690    -0.0000

  Mayer bond orders larger than 0.100000
B(  0-C ,  1-O ) :   0.9366 B(  0-C ,  4-H ) :   0.9314 B(  0-C ,  5-H ) :   0.9597 
B(  0-C ,  6-H ) :   0.9598 B(  1-O ,  2-C ) :   1.2191 B(  1-O ,  3-O ) :   0.1110 
B(  2-C ,  3-O ) :   2.0546 B(  2-C ,  7-H ) :   0.9141 

-------
TIMINGS
-------

Total SCF time: 0 days 0 hours 0 min 0 sec 

Total time                  ....       0.809 sec
Sum of individual times     ....       0.787 sec  ( 97.3%)

SCF preparation             ....       0.029 sec  (  3.6%)
Fock matrix formation       ....       0.725 sec  ( 89.6%)
  Startup                   ....       0.001 sec  (  0.1% of F)
  Split-RI-J                ....       0.250 sec  ( 34.4% of F)
  XC integration            ....       0.467 sec  ( 64.4% of F)
    Basis function eval.    ....       0.203 sec  ( 43.5% of XC)
    Density eval.           ....       0.080 sec  ( 17.1% of XC)
    XC-Functional eval.     ....       0.063 sec  ( 13.4% of XC)
    XC-Potential eval.      ....       0.084 sec  ( 18.1% of XC)
Diagonalization             ....       0.000 sec  (  0.0%)
Density matrix formation    ....       0.003 sec  (  0.4%)
Total Energy calculation    ....       0.000 sec  (  0.1%)
Population analysis         ....       0.017 sec  (  2.0%)
Orbital Transformation      ....       0.002 sec  (  0.2%)
Orbital Orthonormalization  ....       0.000 sec  (  0.0%)
DIIS solution               ....       0.010 sec  (  1.2%)
  MO trafo                  ....       0.000 sec  (  0.0 % of DIIS)
  Orb grad                  ....       0.000 sec  (  0.0 % of DIIS)
  Energy W gradient         ....       0.000 sec  (  0.0 % of DIIS)
  DIIS error                ....       0.001 sec  (  5.3 % of DIIS)
  DIIS work                 ....       0.008 sec  ( 82.5 % of DIIS)
  Form Q                    ....       0.000 sec  (  0.0 % of DIIS)
  Form QpQm                 ....       0.000 sec  (  0.0 % of DIIS)
  Exp/Cayley                ....       0.000 sec  (  0.0 % of DIIS)
  Orb update                ....       0.000 sec  (  0.0 % of DIIS)
  Wake-sleep                ....       0.000 sec  (  2.5 % of DIIS)
SOSCF solution              ....       0.002 sec  (  0.3%)
  MO trafo                  ....       0.001 sec  ( 59.6 % of SOSCF)
  Orb grad                  ....       0.000 sec  (  1.6 % of SOSCF)
  Rot update                ....       0.000 sec  (  5.1 % of SOSCF)
  Step                      ....       0.001 sec  ( 31.9 % of SOSCF)
Finished LeanSCF after   0.8 sec

Maximum memory used throughout the entire LEANSCF-calculation: 6.6 MB


-------------------------------------------------------------------------------
                          DFT DISPERSION CORRECTION                            
                                                                               
                                DFTD4 V3.4.0                                   
-------------------------------------------------------------------------------
The PBE functional is recognized
Active option DFTDOPT                   ...         5   

-------------------------   ----------------
Dispersion correction           -0.003808379
-------------------------   ----------------

------------------   -----------------
gCP correction             0.038367234
------------------   -----------------

-------------------------   --------------------
FINAL SINGLE POINT ENERGY      -228.588946408720
-------------------------   --------------------


------------------------------------------------------------------------------
                              ORCA PROPERTY CALCULATIONS
------------------------------------------------------------------------------

GBWName                                 ... sp.gbw
Number of atoms                         ...      8
Number of basis functions               ...     64
Max core memory                         ...   1024 MB

Electric properties:
Dipole moment                           ... YES
Quadrupole moment                       ...  NO
Static polarizability (Dipole/Dipole)   ...  NO
Static polarizability (Dipole/Quad.)    ...  NO
Static polarizability (Quad./Quad.)     ...  NO
Static polarizability (Velocity)        ...  NO

Atomic electric properties:
Dipole moment                           ...  NO
Quadrupole moment                       ...  NO
Static polarizability                   ...  NO

Choice of electric origin               ... Center of mass
Position of electric origin             ...     0.000021     0.000004    -0.000000

General magnetic properties:
Magnetizability                         ...  NO

EPR properties:
g-Tensor (aka g-matrix)                 ...  NO
Zero-Field splitting spin-orbit         ...  NO
Zero-field splitting spin-spin          ...  NO
Hyperfine couplings                     ...  NO (   0 nuclei)
Quadrupole couplings                    ...  NO (   0 nuclei)
Contact density                         ...  NO (   0 nuclei)

NMR properties:
Chemical shifts                         ...  NO (   0 nuclei)
Spin-rotation constants                 ...  NO (   0 nuclei)
Spin-spin couplings                     ...  NO (   0 nuclei,    0 pairs)

Choice of magnetic origin               ... GIAO
Position of magnetic origin             ...     0.000000     0.000000     0.000000

Properties with geometric perturbations:
SCF Hessian                             ...  NO
IR spectrum                             ...  NO
VCD spectrum                            ...  NO
X-ray spectroscopy properties:
SCF XES/XAS/RIXS spectra                ...  NO


-------------
DIPOLE MOMENT
-------------

Method             : SCF
Type of density    : Electron Density
Multiplicity       :   1
Irrep              :   0
Energy             :  -228.6235052641827679 Eh
Relativity type    : 
Basis              : AO
                                X                 Y                 Z
Electronic contribution:     -2.658053688      -1.064279247      -0.000007491
Nuclear contribution   :      3.398058811       0.873492081      -0.000220018
                        -----------------------------------------
Total Dipole Moment    :      0.740005123      -0.190787167      -0.000227509
                        -----------------------------------------
Magnitude (a.u.)       :      0.764203753
Magnitude (Debye)      :      1.942451571



--------------------
Rotational spectrum 
--------------------
 
Rotational constants in cm-1:             0.703219             0.223657             0.175349 
Rotational constants in MHz :         21081.966985          6705.066907          5256.827884 

Dipole components along the rotational axes: 
x,y,z [a.u.] :     0.740002    -0.190801    -0.000228 
x,y,z [Debye]:     1.880935    -0.484977    -0.000578 

 

Dipole moment calculation done in   0.0 sec 

Maximum memory used throughout the entire PROP-calculation: 4.6 MB

--------------------------------
SUGGESTED CITATIONS FOR THIS RUN
--------------------------------

Below you find a list of papers that are relevant to this ORCA run
We neither can nor want to force you to cite these papers, but we appreciate if you do
You receive ORCA, which is the product of decades of hard work by many enthusiastic individuals, for free
The only thing we kindly ask in return is that you cite our papers,
We deeply appreciate it, if you show your appreciation for ORCA by not just citing the generic ORCA reference.

Please note that relegating all ORCA citations to the supporting information does *not* help us.
SI sections are not indexed - citations you put there will not count into any citation statistics
But we need these citations in order to attract the funding resources that allow us to do what we are doing

Therefore, if you are a happy ORCA user, please consider citing a few of the papers listed below in the main body of your paper

In addition to the list printed below, the program has created the file sp.bibtex that contains the list in bibtex format
You can import this file easily into all common literature databanks and citation aid programs


List of essential papers. We consider these as the minimum necessary citations

  1. Neese,F.
     Software update: the ORCA program system, version 5.0
     WIRES Comput. Molec. Sci., 2022 12(1)e1606
     doi.org/10.1002/wcms.1606

List of papers to cite with high priority. The work reported in these papers was absolutely
necessary for this run to complete.
Our perspective: the developers of density functionals and basis sets usually get cited in chemistry papers
Good! But without the algorithms to do something with them, the functionals or basis sets would not do anything.
Hence, in our opinion, the algorithm design and method developments papers are equally worthy of getting cited

  1. Neese,F.
     An improvement of the resolution of the identity approximation for the formation of the Coulomb matrix
     J. Comp. Chem., 2003 24(14)1740-1747
     doi.org/10.1002/jcc.10318
  2. Neese,F.
     The SHARK Integral Generation and Digestion System
     J. Comp. Chem., 2022  1-16
     doi.org/10.1002/jcc.26942
  3. Caldeweyher,E.; Bannwarth,C.; Grimme,S.
     Extension of the D3 dispersion coefficient model
     J. Chem. Phys., 2017 147 034112
     doi.org/10.1063/1.4993215
  4. Caldeweyher,E.; Ehlert,S.; Hansen,A.; Neugebauer,H.; Spicher,S.; Bannwarth,C.; Grimme,S.
     A generally applicable atomic-charge dependent London dispersion correction
     J. Chem. Phys., 2019 150 154122
     doi.org/10.1063/1.5090222
  5. Caldeweyher,E.; Mewes,J.; Ehlert,S.; Grimme,S.
     Extension and evaluation of the D4 London-dispersion model for periodic systems
     Phys. Chem. Chem. Phys., 2020 22(16)8499-8512
     doi.org/10.1039/D0CP00502A
  6. Wittmann,L.; Gordiy,I.; Friede,M.; Helmich-Paris,B.; Grimme,S.; Hansen,A.; Bursch,M.
     Extension of the D3 and D4 London Dispersion Corrections to the full Actinides Series
     Phys. Chem. Chem. Phys., 2024 26(32)21379-21394
     doi.org/https://doi.org/10.1039/D4CP01514B 

List of suggested additional citations. These are papers that are important in the 'surrounding' of 
of this run, or papers that preceded the highly important papers. If you like your results we are grateful for a citation.

  1. Neese,F.
     The ORCA program system
     WIRES Comput. Molec. Sci., 2012 2(1)73-78
     doi.org/10.1002/wcms.81
  2. Neese,F.
     Software update: the ORCA program system, version 4.0
     WIRES Comput. Molec. Sci., 2018 8(1)1-6
     doi.org/10.1002/wcms.1327
  3. Neese,F.; Wennmohs,F.; Becker,U.; Riplinger,C.
     The ORCA quantum chemistry program package
     J. Chem. Phys., 2020 152 Art. No. L224108
     doi.org/10.1063/5.0004608

List of optional additional citations

  1. Neese,F.
     Approximate second-order SCF convergence for spin unrestricted wavefunctions
     Chem. Phys. Lett., 2000 325(1-3)93-98
     doi.org/10.1016/s0009-2614(00)00662-x

Timings for individual modules:

Sum of individual times          ...        1.141 sec (=   0.019 min)
Startup calculation              ...        0.146 sec (=   0.002 min)  12.8 %
SCF iterations                   ...        0.961 sec (=   0.016 min)  84.2 %
Property calculations            ...        0.034 sec (=   0.001 min)   3.0 %
                             ****ORCA TERMINATED NORMALLY****
TOTAL RUN TIME: 0 days 0 hours 0 minutes 1 seconds 233 msec
