 Entering Gaussian System
 *********************************************
 Gaussian 98:
 frequency output generated by the xtb code
 *********************************************
                         Standard orientation:
 --------------------------------------------------------------------
  Center     Atomic     Atomic              Coordinates (Angstroms)
  Number     Number      Type              X           Y           Z
 --------------------------------------------------------------------
    1          6             0        1.937961   -0.133679    0.000014
    2          6             0        0.560709    0.518051    0.000018
    3          6             0       -0.560707   -0.518050   -0.000015
    4          6             0       -1.937960    0.133680    0.000014
    5          1             0        2.720345    0.621841    0.000097
    6          1             0        2.064255   -0.758612    0.881667
    7          1             0        2.064314   -0.758480   -0.881724
    8          1             0        0.460890    1.155604    0.881672
    9          1             0        0.460905    1.155648   -0.881605
   10          1             0       -0.460900   -1.155595   -0.881676
   11          1             0       -0.460893   -1.155656    0.881600
   12          1             0       -2.064291    0.758571   -0.881663
   13          1             0       -2.064275    0.758522    0.881728
   14          1             0       -2.720343   -0.621840    0.000000
 --------------------------------------------------------------------
     1 basis functions        1 primitive gaussians
     1 alpha electrons        1 beta electrons

 Harmonic frequencies (cm**-1), IR intensities (km*mol⁻¹),
 Raman scattering activities (A**4/amu), Raman depolarization ratios,
 reduced masses (AMU), force constants (mDyne/A) and normal coordinates:
                      1                      2                      3
                        a                      a                      a 
 Frequencies --   108.9889               213.9702               246.1583
 Red. masses --     1.9565                 1.0536                 1.1256
 Frc consts  --     0.0000                 0.0000                 0.0000
 IR Inten    --     0.0137                 0.0097                 0.0000
 Raman Activ --     0.0000                 0.0000                 0.0000
 Depolar     --     0.0000                 0.0000                 0.0000
 Atom AN      X      Y      Z        X      Y      Z        X      Y      Z
   1   6    -0.00  -0.00   0.35     0.00   0.00   0.10    -0.00  -0.00   0.01
   2   6     0.00   0.00  -0.38    -0.00  -0.00  -0.12     0.00   0.00   0.24
   3   6    -0.00   0.00  -0.38    -0.00   0.00  -0.12     0.00   0.00  -0.24
   4   6     0.00  -0.00   0.35    -0.00   0.00   0.10    -0.00  -0.00  -0.01
   5   1    -0.00   0.00   0.04    -0.00  -0.00   0.44     0.00   0.00  -0.37
   6   1    -0.07   0.14   0.21    -0.19  -0.29  -0.15     0.17   0.26   0.16
   7   1     0.07  -0.14   0.21     0.19   0.29  -0.15    -0.17  -0.26   0.16
   8   1    -0.08   0.09  -0.18    -0.03   0.00  -0.04    -0.00  -0.10   0.14
   9   1     0.08  -0.09  -0.18     0.03  -0.00  -0.04     0.00   0.10   0.14
  10   1    -0.08   0.09  -0.18    -0.03   0.00  -0.04     0.00   0.10  -0.14
  11   1     0.08  -0.09  -0.18     0.03  -0.00  -0.04    -0.00  -0.10  -0.14
  12   1    -0.07   0.14   0.21    -0.19  -0.29  -0.15    -0.17  -0.26  -0.16
  13   1     0.07  -0.14   0.21     0.19   0.29  -0.15     0.17   0.26  -0.16
  14   1     0.00  -0.00   0.04     0.00  -0.00   0.44     0.00  -0.00   0.37
                      4                      5                      6
                        a                      a                      a 
 Frequencies --   265.6186               426.9669               776.3735
 Red. masses --     2.3143                 2.8674                 1.0730
 Frc consts  --     0.0000                 0.0000                 0.0000
 IR Inten    --     0.4170                 0.0000                10.4113
 Raman Activ --     0.0000                 0.0000                 0.0000
 Depolar     --     0.0000                 0.0000                 0.0000
 Atom AN      X      Y      Z        X      Y      Z        X      Y      Z
   1   6    -0.16  -0.32  -0.00     0.49   0.03   0.00     0.00  -0.00   0.02
   2   6     0.17   0.39  -0.00     0.26  -0.21  -0.00    -0.00  -0.00   0.18
   3   6     0.17   0.39   0.00    -0.26   0.21   0.00    -0.00  -0.00   0.18
   4   6    -0.16  -0.32  -0.00    -0.49  -0.03  -0.00    -0.00  -0.00   0.02
   5   1     0.09  -0.24   0.00     0.04   0.11  -0.00     0.00  -0.00  -0.06
   6   1    -0.16  -0.12  -0.00     0.22   0.03   0.00     0.15  -0.10  -0.09
   7   1    -0.16  -0.12   0.00     0.22   0.03  -0.00    -0.15   0.10  -0.09
   8   1     0.10   0.11   0.00     0.11  -0.05  -0.00    -0.01   0.37  -0.23
   9   1     0.10   0.11  -0.00     0.11  -0.05   0.00     0.01  -0.37  -0.23
  10   1     0.10   0.11   0.00    -0.11   0.05   0.00    -0.01   0.37  -0.23
  11   1     0.10   0.11  -0.00    -0.11   0.05  -0.00     0.01  -0.37  -0.23
  12   1    -0.16  -0.12  -0.00    -0.22  -0.03  -0.00     0.15  -0.10  -0.09
  13   1    -0.16  -0.12   0.00    -0.22  -0.03   0.00    -0.15   0.10  -0.09
  14   1     0.09  -0.24  -0.00    -0.04  -0.11  -0.00    -0.00   0.00  -0.06
                      7                      8                      9
                        a                      a                      a 
 Frequencies --   847.3905               893.4033               967.6580
 Red. masses --     1.1213                 1.8621                 1.0982
 Frc consts  --     0.0000                 0.0000                 0.0000
 IR Inten    --     0.0000                 0.0000                 2.3448
 Raman Activ --     0.0000                 0.0000                 0.0000
 Depolar     --     0.0000                 0.0000                 0.0000
 Atom AN      X      Y      Z        X      Y      Z        X      Y      Z
   1   6     0.00  -0.00   0.11     0.29   0.07   0.00     0.00   0.00  -0.18
   2   6    -0.00  -0.00   0.21     0.11   0.38   0.00    -0.00  -0.00   0.11
   3   6    -0.00   0.00  -0.21    -0.11  -0.38  -0.00     0.00   0.00   0.11
   4   6    -0.00   0.00  -0.11    -0.29  -0.07  -0.00     0.00   0.00  -0.18
   5   1     0.00   0.00  -0.14     0.35  -0.26  -0.00    -0.00  -0.00   0.13
   6   1     0.28  -0.15  -0.12    -0.14  -0.05  -0.01    -0.26   0.14   0.09
   7   1    -0.28   0.15  -0.12    -0.14  -0.05   0.01     0.26  -0.14   0.09
   8   1    -0.19   0.22  -0.13    -0.03   0.09   0.00     0.32   0.14  -0.04
   9   1     0.19  -0.22  -0.13    -0.03   0.09  -0.00    -0.32  -0.14  -0.04
  10   1     0.19  -0.22   0.13     0.03  -0.09  -0.00     0.32   0.14  -0.04
  11   1    -0.19   0.22   0.13     0.03  -0.09   0.00    -0.32  -0.14  -0.04
  12   1    -0.28   0.15   0.12     0.14   0.05   0.01    -0.26   0.14   0.09
  13   1     0.28  -0.15   0.12     0.14   0.05  -0.01     0.26  -0.14   0.09
  14   1     0.00  -0.00   0.14    -0.35   0.26   0.00     0.00  -0.00   0.13
                     10                     11                     12
                        a                      a                      a 
 Frequencies --  1002.3905              1074.6170              1110.2336
 Red. masses --     1.1892                 4.0069                 2.4919
 Frc consts  --     0.0000                 0.0000                 0.0000
 IR Inten    --    12.0506                 0.4706                 0.0000
 Raman Activ --     0.0000                 0.0000                 0.0000
 Depolar     --     0.0000                 0.0000                 0.0000
 Atom AN      X      Y      Z        X      Y      Z        X      Y      Z
   1   6     0.18   0.21   0.00     0.36  -0.23  -0.00     0.25  -0.25  -0.00
   2   6    -0.03  -0.08  -0.00    -0.41   0.23   0.00    -0.45   0.06  -0.00
   3   6    -0.03  -0.08  -0.00    -0.41   0.23   0.00     0.45  -0.06  -0.00
   4   6     0.18   0.21   0.00     0.36  -0.23  -0.00    -0.25   0.25   0.00
   5   1     0.37  -0.28  -0.00     0.06  -0.02  -0.00    -0.00   0.01  -0.00
   6   1    -0.24  -0.04  -0.02     0.16  -0.05  -0.00     0.15  -0.05   0.00
   7   1    -0.24  -0.04   0.02     0.16  -0.05   0.00     0.15  -0.05  -0.00
   8   1    -0.20  -0.05  -0.00    -0.10   0.07  -0.00    -0.25  -0.01   0.00
   9   1    -0.20  -0.05   0.00    -0.10   0.07   0.00    -0.25  -0.01  -0.00
  10   1    -0.20  -0.05  -0.00    -0.10   0.07  -0.00     0.25   0.01  -0.00
  11   1    -0.20  -0.05   0.00    -0.10   0.07   0.00     0.25   0.01   0.00
  12   1    -0.24  -0.04  -0.02     0.16  -0.05  -0.00    -0.15   0.05  -0.00
  13   1    -0.24  -0.04   0.02     0.16  -0.05   0.00    -0.15   0.05   0.00
  14   1     0.37  -0.28  -0.00     0.06  -0.02  -0.00     0.00  -0.01  -0.00
                     13                     14                     15
                        a                      a                      a 
 Frequencies --  1164.4436              1202.1434              1257.6719
 Red. masses --     2.0897                 1.7296                 1.2585
 Frc consts  --     0.0000                 0.0000                 0.0000
 IR Inten    --     0.0000                 0.0000                 0.5652
 Raman Activ --     0.0000                 0.0000                 0.0000
 Depolar     --     0.0000                 0.0000                 0.0000
 Atom AN      X      Y      Z        X      Y      Z        X      Y      Z
   1   6     0.07   0.21   0.00     0.00   0.00  -0.27    -0.00  -0.00   0.25
   2   6    -0.11  -0.47  -0.00    -0.00  -0.00   0.40     0.00   0.00  -0.21
   3   6     0.11   0.47   0.00     0.00   0.00  -0.40    -0.00   0.00  -0.21
   4   6    -0.07  -0.21  -0.00     0.00  -0.00   0.27     0.00  -0.00   0.25
   5   1     0.21  -0.16  -0.00    -0.00  -0.00   0.11     0.00   0.00  -0.10
   6   1    -0.19  -0.03  -0.02    -0.22   0.13   0.07     0.18  -0.12  -0.05
   7   1    -0.19  -0.03   0.02     0.22  -0.13   0.07    -0.18   0.12  -0.05
   8   1    -0.14  -0.13  -0.00    -0.06   0.22  -0.07     0.37  -0.05   0.03
   9   1    -0.14  -0.13   0.00     0.06  -0.22  -0.07    -0.37   0.05   0.03
  10   1     0.14   0.13   0.00     0.06  -0.22   0.07     0.37  -0.05   0.03
  11   1     0.14   0.13  -0.00    -0.06   0.22   0.07    -0.37   0.05   0.03
  12   1     0.19   0.03   0.02     0.22  -0.13  -0.07     0.18  -0.12  -0.05
  13   1     0.19   0.03  -0.02    -0.22   0.13  -0.07    -0.18   0.12  -0.05
  14   1    -0.21   0.16   0.00    -0.00   0.00  -0.11     0.00   0.00  -0.10
                     16                     17                     18
                        a                      a                      a 
 Frequencies --  1285.4375              1304.1685              1372.2103
 Red. masses --     1.0760                 1.3218                 1.5464
 Frc consts  --     0.0000                 0.0000                 0.0000
 IR Inten    --     0.0000                 2.5440                 0.0000
 Raman Activ --     0.0000                 0.0000                 0.0000
 Depolar     --     0.0000                 0.0000                 0.0000
 Atom AN      X      Y      Z        X      Y      Z        X      Y      Z
   1   6     0.00   0.00  -0.10     0.04   0.15   0.00     0.04   0.08   0.00
   2   6    -0.00  -0.00  -0.15    -0.30  -0.13   0.00    -0.43  -0.03  -0.00
   3   6    -0.00  -0.00   0.15    -0.30  -0.13  -0.00     0.43   0.03  -0.00
   4   6     0.00   0.00   0.10     0.04   0.15  -0.00    -0.04  -0.08  -0.00
   5   1     0.00  -0.00   0.01     0.16  -0.12   0.00     0.10  -0.08  -0.00
   6   1    -0.07   0.04   0.01    -0.03  -0.03  -0.04     0.02  -0.05  -0.05
   7   1     0.07  -0.04   0.01    -0.03  -0.03   0.04     0.02  -0.05   0.05
   8   1    -0.45  -0.15   0.02     0.40   0.05  -0.01     0.37   0.04   0.02
   9   1     0.45   0.15   0.02     0.40   0.05   0.01     0.37   0.04  -0.02
  10   1     0.45   0.15  -0.02     0.40   0.05  -0.01    -0.37  -0.04  -0.02
  11   1    -0.45  -0.15  -0.02     0.40   0.05   0.01    -0.37  -0.04   0.02
  12   1     0.07  -0.04  -0.01    -0.03  -0.03  -0.04    -0.02   0.05   0.05
  13   1    -0.07   0.04  -0.01    -0.03  -0.03   0.04    -0.02   0.05  -0.05
  14   1     0.00  -0.00  -0.01     0.16  -0.12  -0.00    -0.10   0.08   0.00
                     19                     20                     21
                        a                      a                      a 
 Frequencies --  1414.7192              1418.1510              1497.1676
 Red. masses --     1.2410                 1.2244                 1.0860
 Frc consts  --     0.0000                 0.0000                 0.0000
 IR Inten    --     0.0000                 1.7024                 0.6187
 Raman Activ --     0.0000                 0.0000                 0.0000
 Depolar     --     0.0000                 0.0000                 0.0000
 Atom AN      X      Y      Z        X      Y      Z        X      Y      Z
   1   6    -0.29   0.12  -0.00    -0.29   0.11  -0.00    -0.00   0.06   0.00
   2   6     0.08   0.00  -0.00     0.05   0.02  -0.00     0.06  -0.18  -0.00
   3   6    -0.08  -0.00   0.00     0.05   0.02   0.00     0.06  -0.18  -0.00
   4   6     0.29  -0.12  -0.00    -0.29   0.11   0.00    -0.00   0.06   0.00
   5   1     0.24  -0.27  -0.00     0.24  -0.26  -0.00    -0.05   0.05  -0.00
   6   1     0.34  -0.06  -0.10     0.35  -0.06  -0.10     0.00  -0.16  -0.11
   7   1     0.34  -0.06   0.10     0.35  -0.06   0.10     0.00  -0.16   0.11
   8   1    -0.06  -0.04   0.02    -0.05  -0.03   0.02    -0.07   0.34  -0.26
   9   1    -0.06  -0.04  -0.02    -0.05  -0.03  -0.02    -0.07   0.34   0.26
  10   1     0.06   0.04  -0.02    -0.05  -0.03   0.02    -0.07   0.34  -0.26
  11   1     0.06   0.04   0.02    -0.05  -0.03  -0.02    -0.07   0.34   0.26
  12   1    -0.34   0.06   0.10     0.35  -0.06  -0.10     0.00  -0.16  -0.11
  13   1    -0.34   0.06  -0.10     0.35  -0.06   0.10     0.00  -0.16   0.11
  14   1    -0.24   0.27   0.00     0.24  -0.26  -0.00    -0.05   0.05  -0.00
                     22                     23                     24
                        a                      a                      a 
 Frequencies --  1499.9504              1505.0886              1505.2992
 Red. masses --     1.0815                 1.0563                 1.0515
 Frc consts  --     0.0000                 0.0000                 0.0000
 IR Inten    --     0.0000                 0.0000                 4.9102
 Raman Activ --     0.0000                 0.0000                 0.0000
 Depolar     --     0.0000                 0.0000                 0.0000
 Atom AN      X      Y      Z        X      Y      Z        X      Y      Z
   1   6    -0.02   0.01  -0.00    -0.00  -0.00   0.15    -0.00  -0.00   0.15
   2   6     0.01  -0.19  -0.00    -0.00  -0.00   0.03    -0.00  -0.00   0.03
   3   6    -0.01   0.19   0.00    -0.00   0.00  -0.03    -0.00   0.00   0.03
   4   6     0.02  -0.01   0.00     0.00   0.00  -0.15     0.00  -0.00   0.15
   5   1     0.01  -0.02   0.00     0.00   0.00  -0.51     0.00   0.00  -0.51
   6   1     0.03  -0.03  -0.02    -0.29  -0.15  -0.06    -0.29  -0.15  -0.05
   7   1     0.03  -0.03   0.02     0.29   0.15  -0.06     0.29   0.15  -0.05
   8   1    -0.04   0.38  -0.28    -0.00   0.01  -0.00    -0.03   0.01   0.00
   9   1    -0.04   0.38   0.28     0.00  -0.01  -0.00     0.03  -0.01   0.00
  10   1     0.04  -0.38   0.28     0.00  -0.01   0.00    -0.03   0.01   0.00
  11   1     0.04  -0.38  -0.28    -0.00   0.01   0.00     0.03  -0.01   0.00
  12   1    -0.03   0.03   0.02     0.29   0.15   0.06    -0.29  -0.15  -0.05
  13   1    -0.03   0.03  -0.02    -0.29  -0.15   0.06     0.29   0.15  -0.05
  14   1    -0.01   0.02  -0.00     0.00  -0.00   0.51    -0.00   0.00  -0.51
                     25                     26                     27
                        a                      a                      a 
 Frequencies --  1507.7994              1508.6782              2958.2899
 Red. masses --     1.0706                 1.0596                 1.0911
 Frc consts  --     0.0000                 0.0000                 0.0000
 IR Inten    --     2.5617                 0.0000                 0.0000
 Raman Activ --     0.0000                 0.0000                 0.0000
 Depolar     --     0.0000                 0.0000                 0.0000
 Atom AN      X      Y      Z        X      Y      Z        X      Y      Z
   1   6     0.06   0.13   0.00    -0.05  -0.14  -0.00     0.00   0.00   0.01
   2   6     0.00   0.10   0.00    -0.04  -0.05  -0.00     0.00  -0.00  -0.20
   3   6     0.00   0.10   0.00     0.04   0.05   0.00     0.00  -0.00   0.20
   4   6     0.06   0.13   0.00     0.05   0.14   0.00     0.00   0.00  -0.01
   5   1    -0.14   0.16   0.00     0.16  -0.18  -0.00    -0.00  -0.00   0.00
   6   1    -0.04  -0.34  -0.24     0.04   0.37   0.26    -0.01   0.03  -0.03
   7   1    -0.04  -0.34   0.24     0.04   0.37  -0.26     0.01  -0.03  -0.03
   8   1     0.01  -0.15   0.12     0.03   0.02  -0.02    -0.04   0.29   0.38
   9   1     0.01  -0.15  -0.12     0.03   0.02   0.02     0.04  -0.29   0.38
  10   1     0.01  -0.15   0.12    -0.03  -0.02   0.02     0.04  -0.29  -0.38
  11   1     0.01  -0.15  -0.12    -0.03  -0.02  -0.02    -0.04   0.29  -0.38
  12   1    -0.04  -0.34  -0.24    -0.04  -0.37  -0.26     0.01  -0.03   0.03
  13   1    -0.04  -0.34   0.24    -0.04  -0.37   0.26    -0.01   0.03   0.03
  14   1    -0.14   0.16   0.00    -0.16   0.18   0.00    -0.00  -0.00  -0.00
                     28                     29                     30
                        a                      a                      a 
 Frequencies --  2971.5489              2976.1551              2982.2886
 Red. masses --     1.1006                 1.0463                 1.0525
 Frc consts  --     0.0000                 0.0000                 0.0000
 IR Inten    --    83.8643                 0.0000                63.3151
 Raman Activ --     0.0000                 0.0000                 0.0000
 Depolar     --     0.0000                 0.0000                 0.0000
 Atom AN      X      Y      Z        X      Y      Z        X      Y      Z
   1   6    -0.00  -0.00  -0.03     0.01   0.00  -0.00    -0.01  -0.03   0.00
   2   6    -0.00   0.00   0.21     0.02  -0.14   0.00    -0.02   0.15  -0.00
   3   6     0.00  -0.00   0.21    -0.02   0.14   0.00    -0.02   0.15   0.00
   4   6     0.00   0.00  -0.03    -0.01  -0.00  -0.00    -0.01  -0.03  -0.00
   5   1     0.00   0.00  -0.01    -0.02  -0.02  -0.00     0.05   0.05   0.00
   6   1     0.01  -0.05   0.06     0.00  -0.01   0.01    -0.01   0.04  -0.06
   7   1    -0.01   0.05   0.06     0.00  -0.01  -0.01    -0.01   0.04   0.06
   8   1     0.05  -0.28  -0.37    -0.04   0.27   0.41     0.04  -0.26  -0.40
   9   1    -0.05   0.28  -0.37    -0.04   0.27  -0.41     0.04  -0.26   0.40
  10   1     0.05  -0.28  -0.37     0.04  -0.27  -0.41     0.04  -0.26  -0.40
  11   1    -0.05   0.28  -0.37     0.04  -0.27   0.41     0.04  -0.26   0.40
  12   1     0.01  -0.05   0.06    -0.00   0.01  -0.01    -0.01   0.04  -0.06
  13   1    -0.01   0.05   0.06    -0.00   0.01   0.01    -0.01   0.04   0.06
  14   1    -0.00  -0.00  -0.01     0.02   0.02  -0.00     0.05   0.05   0.00
                     31                     32                     33
                        a                      a                      a 
 Frequencies --  3027.6434              3029.5063              3030.0037
 Red. masses --     1.0943                 1.0948                 1.0892
 Frc consts  --     0.0000                 0.0000                 0.0000
 IR Inten    --     0.0000               123.1905                 0.0001
 Raman Activ --     0.0000                 0.0000                 0.0000
 Depolar     --     0.0000                 0.0000                 0.0000
 Atom AN      X      Y      Z        X      Y      Z        X      Y      Z
   1   6    -0.00  -0.00   0.21     0.00   0.00  -0.20     0.06   0.19   0.00
   2   6     0.00  -0.00   0.02    -0.00   0.00  -0.04    -0.00   0.01   0.00
   3   6     0.00  -0.00  -0.02     0.00  -0.00  -0.04     0.00  -0.01   0.00
   4   6    -0.00   0.00  -0.21    -0.00  -0.00  -0.20    -0.06  -0.19   0.00
   5   1     0.00   0.00   0.03    -0.00  -0.00  -0.03    -0.31  -0.29  -0.00
   6   1    -0.05   0.29  -0.38     0.05  -0.28   0.37     0.05  -0.19   0.31
   7   1     0.05  -0.28  -0.38    -0.05   0.28   0.37     0.05  -0.19  -0.31
   8   1     0.00  -0.02  -0.03    -0.01   0.05   0.06     0.00  -0.01  -0.02
   9   1    -0.00   0.02  -0.03     0.01  -0.05   0.06     0.00  -0.01   0.02
  10   1    -0.00   0.02   0.03    -0.01   0.05   0.06    -0.00   0.01   0.02
  11   1     0.00  -0.02   0.03     0.01  -0.05   0.06    -0.00   0.01  -0.02
  12   1     0.05  -0.29   0.38     0.05  -0.28   0.37    -0.05   0.19  -0.31
  13   1    -0.05   0.29   0.38    -0.05   0.28   0.37    -0.05   0.19   0.31
  14   1     0.00   0.00  -0.03     0.00   0.00  -0.03     0.31   0.29   0.00
                     34                     35                     36
                        a                      a                      a 
 Frequencies --  3032.4808              3036.4653              3036.9843
 Red. masses --     1.0891                 1.0318                 1.0324
 Frc consts  --     0.0000                 0.0000                 0.0000
 IR Inten    --   117.3222                61.9390                 0.0000
 Raman Activ --     0.0000                 0.0000                 0.0000
 Depolar     --     0.0000                 0.0000                 0.0000
 Atom AN      X      Y      Z        X      Y      Z        X      Y      Z
   1   6     0.06   0.19   0.00    -0.11  -0.00   0.00    -0.11  -0.01   0.00
   2   6    -0.00   0.03   0.00    -0.00   0.00   0.00    -0.00  -0.00   0.00
   3   6    -0.00   0.03   0.00    -0.00   0.00   0.00     0.00   0.00   0.00
   4   6     0.06   0.19   0.00    -0.11  -0.00  -0.00     0.11   0.01   0.00
   5   1    -0.32  -0.30  -0.00     0.36   0.38   0.00     0.37   0.38   0.00
   6   1     0.05  -0.18   0.30     0.02  -0.19   0.27     0.02  -0.18   0.26
   7   1     0.05  -0.18  -0.30     0.02  -0.19  -0.27     0.02  -0.18  -0.26
   8   1     0.01  -0.05  -0.07    -0.00  -0.00  -0.01    -0.00   0.00   0.00
   9   1     0.01  -0.05   0.07    -0.00  -0.00   0.01    -0.00   0.00  -0.00
  10   1     0.01  -0.05  -0.07    -0.00  -0.00  -0.01     0.00  -0.00  -0.00
  11   1     0.01  -0.05   0.07    -0.00  -0.00   0.01     0.00  -0.00   0.00
  12   1     0.05  -0.18   0.30     0.02  -0.19   0.27    -0.02   0.18  -0.26
  13   1     0.05  -0.18  -0.30     0.02  -0.19  -0.27    -0.02   0.18   0.26
  14   1    -0.32  -0.30  -0.00     0.36   0.38   0.00    -0.37  -0.38  -0.00
