14
 energy: -13.664596935493 gnorm: 0.016259280429 xtb: 6.7.1 (41059b4)
C            1.95080961717701       -0.13163546372650        0.00002688740603
C            0.56649728183935        0.51308951626928       -0.00000433797654
C           -0.56649617776358       -0.51308925874833       -0.00002489393568
C           -1.95080812968218        0.13163658797373        0.00002003351763
H            2.74560301770185        0.62039643272970        0.00019900272846
H            2.08784490826522       -0.76400662472934        0.88386970345981
H            2.08800482284639       -0.76377319389081       -0.88395715407649
H            0.46166344696416        1.16418437732033        0.87795704445396
H            0.46170318376755        1.16418496227738       -0.87797060728145
H           -0.46169645770865       -1.16415925577868       -0.87800910600280
H           -0.46166849359458       -1.16420964082092        0.87791855195231
H           -2.08794661482425        0.76391056348865       -0.88387568408161
H           -2.08789889231004        0.76387187446964        0.88395114655207
H           -2.74560220845332       -0.62039461135102        0.00002585875559
14
 energy: -13.665094610682 gnorm: 0.005423301113 xtb: 6.7.1 (41059b4)
C            1.93617766255131       -0.13376080473847        0.00002555369733
C            0.56062032583359        0.51796459194247        0.00000086577086
C           -0.56061912168706       -0.51796405476813       -0.00002276233106
C           -1.93617623140564        0.13376183192731        0.00001801836199
H            2.72008199790309        0.62241078436591        0.00017930406165
H            2.06662512078288       -0.76012374161304        0.88264876949161
H            2.06676432220890       -0.75990998904031       -0.88272810153581
H            0.46163399168642        1.15889268099835        0.88192444650996
H            0.46166940034604        1.15890258368620       -0.88191949699319
H           -0.46166136045772       -1.15886921558803       -0.88196609592639
H           -0.46163994259068       -1.15892502545940        0.88187784085059
H           -2.06671177584712        0.76003787920879       -0.88265338071800
H           -2.06667411120411        0.75999808666558        0.88272349769457
H           -2.72008097389498       -0.62240934210411        0.00001798653717
14
 energy: -13.665125769042 gnorm: 0.001543190312 xtb: 6.7.1 (41059b4)
C            1.93751163808843       -0.13337488431101        0.00002403577894
C            0.56098724512662        0.51728941787083        0.00000721351620
C           -0.56098597285212       -0.51728868778214       -0.00002120996899
C           -1.93751026070735        0.13337584137560        0.00001490130116
H            2.72010725910720        0.62202934506130        0.00015824807089
H            2.06423154369209       -0.75850602695657        0.88152609222435
H            2.06434908669975       -0.75831516664771       -0.88159626696706
H            0.46114859755984        1.15513484042769        0.88174572370933
H            0.46117962318656        1.15515490899390       -0.88171993038373
H           -0.46117053821780       -1.15511469610560       -0.88177611083085
H           -0.46115528497653       -1.15517361729361        0.88168953766069
H           -2.06430336894553        0.75843291414522       -0.88152901758387
H           -2.06427418549627        0.75839026905947        0.88159335094857
H           -2.72010607803995       -0.62202819235425        0.00000987799565
14
 energy: -13.665127554846 gnorm: 0.000356351078 xtb: 6.7.1 (41059b4)
C            1.93768092530052       -0.13377035565466        0.00002224026791
C            0.56051797144812        0.51833494491651        0.00001402718668
C           -0.56051665581546       -0.51833408675563       -0.00001965382194
C           -1.93767958523170        0.13377126516981        0.00001130154156
H            2.72004375180144        0.62163562503718        0.00013403683751
H            2.06394308654181       -0.75868913461363        0.88159609720976
H            2.06403564928294       -0.75852444238847       -0.88165494562956
H            0.46048946597292        1.15588159310918        0.88155127551337
H            0.46051542943653        1.15591463500704       -0.88150195642372
H           -0.46050524453810       -1.15586630300230       -0.88156904445018
H           -0.46049705190989       -1.15592821312177        0.88148418574444
H           -2.06399789209060        0.75863100984487       -0.88159625809820
H           -2.06397808884156        0.75858440432365        0.88165479243808
H           -2.72004245713203       -0.62163467638867        0.00000034715558
14
 energy: -13.665127741076 gnorm: 0.000072646661 xtb: 6.7.1 (41059b4)
C            1.93807642491209       -0.13361785982004        0.00002111817152
C            0.56075004213319        0.51806825198056        0.00001816345913
C           -0.56074871781130       -0.51806737007721       -0.00001877857155
C           -1.93807509171261        0.13361876004714        0.00000909623997
H            2.72052900117512        0.62186762037461        0.00011904144718
H            2.06423862089263       -0.75857203633560        0.88170962490073
H            2.06431587930622       -0.75842380406045       -0.88176126372282
H            0.46095926516596        1.15564001585379        0.88166029790067
H            0.46098233416034        1.15568102292393       -0.88159668956458
H           -0.46097139428328       -1.15562786788940       -0.88167040386316
H           -0.46096756876461       -1.15569140811139        0.88158658284278
H           -2.06428291999752        0.75852361225081       -0.88170774634039
H           -2.06426888650844        0.75847403687811        0.88176314825570
H           -2.72052768444289       -0.62186670853175       -0.00000574568388
14
 energy: -13.665127758433 gnorm: 0.000017511360 xtb: 6.7.1 (41059b4)
C            1.93796199077909       -0.13366847176704        0.00002023122340
C            0.56070575394135        0.51805362142800        0.00002134588666
C           -0.56070442722144       -0.51805273295320       -0.00001809666305
C           -1.93796065963651        0.13366936913777        0.00000738137885
H            2.72034120584435        0.62185542488254        0.00010732851843
H            2.06425522764001       -0.75860268701691        0.88167240717338
H            2.06432060354072       -0.75846738984013       -0.88171835399688
H            0.46088118669881        1.15560508093048        0.88167558312421
H            0.46090201408852        1.15565228903990       -0.88160091991768
H           -0.46089053756896       -1.15559541372989       -0.88167974684646
H           -0.46089001625352       -1.15566017960774        0.88159675559268
H           -2.06429133260115        0.75856197768238       -0.88166883525790
H           -2.06428182130158        0.75850989930834        0.88172193046696
H           -2.72033988372475       -0.62185452201139       -0.00001056521132
