 Entering Gaussian System
 *********************************************
 Gaussian 98:
 frequency output generated by the xtb code
 *********************************************
                         Standard orientation:
 --------------------------------------------------------------------
  Center     Atomic     Atomic              Coordinates (Angstroms)
  Number     Number      Type              X           Y           Z
 --------------------------------------------------------------------
    1          6             0        1.404178    0.518973    0.000753
    2          8             0        0.583394   -0.647759    0.002651
    3          6             0       -0.726229   -0.477946   -0.000765
    4          8             0       -1.321176    0.558252   -0.004847
    5          1             0        0.778489    1.412788    0.022717
    6          1             0        2.013587    0.507282   -0.902679
    7          1             0        2.045862    0.484182    0.880674
    8          1             0       -1.204342   -1.471837    0.001226
 --------------------------------------------------------------------
     1 basis functions        1 primitive gaussians
     1 alpha electrons        1 beta electrons

 Harmonic frequencies (cm**-1), IR intensities (km*mol⁻¹),
 Raman scattering activities (A**4/amu), Raman depolarization ratios,
 reduced masses (AMU), force constants (mDyne/A) and normal coordinates:
                      1                      2                      3
                        a                      a                      a 
 Frequencies --    30.8430               310.5411               356.2291
 Red. masses --     1.0822                 3.8934                 2.5431
 Frc consts  --     0.0000                 0.0000                 0.0000
 IR Inten    --     0.3489                17.7457                31.6334
 Raman Activ --     0.0000                 0.0000                 0.0000
 Depolar     --     0.0000                 0.0000                 0.0000
 Atom AN      X      Y      Z        X      Y      Z        X      Y      Z
   1   6     0.00  -0.00  -0.01    -0.54   0.14  -0.00    -0.00   0.00   0.19
   2   8     0.00   0.00  -0.18     0.03  -0.30  -0.00     0.00  -0.00  -0.53
   3   6    -0.00   0.00  -0.02     0.05  -0.10   0.00    -0.00   0.00   0.50
   4   8    -0.00  -0.00   0.20     0.58   0.20   0.00     0.00  -0.00  -0.28
   5   1    -0.01   0.01  -0.54    -0.31  -0.06  -0.00    -0.00  -0.00   0.12
   6   1     0.40  -0.29   0.27    -0.16   0.14  -0.00     0.08   0.12   0.11
   7   1    -0.39   0.28   0.29    -0.16   0.15   0.00    -0.08  -0.12   0.11
   8   1     0.00  -0.00  -0.05    -0.08   0.03  -0.00    -0.00   0.00   0.52
                      4                      5                      6
                        a                      a                      a 
 Frequencies --   742.7759               938.4770               950.6995
 Red. masses --     4.9895                 1.5947                 4.2265
 Frc consts  --     0.0000                 0.0000                 0.0000
 IR Inten    --    15.4079                 8.6167                33.6167
 Raman Activ --     0.0000                 0.0000                 0.0000
 Depolar     --     0.0000                 0.0000                 0.0000
 Atom AN      X      Y      Z        X      Y      Z        X      Y      Z
   1   6    -0.11  -0.18   0.00     0.01   0.01   0.03     0.47   0.43  -0.00
   2   8     0.37  -0.38   0.00    -0.00  -0.01  -0.14     0.02  -0.49   0.01
   3   6     0.31   0.44   0.00    -0.01  -0.00   0.59    -0.37  -0.12  -0.02
   4   8    -0.48   0.11  -0.00    -0.00   0.00  -0.18    -0.08   0.11   0.00
   5   1    -0.23  -0.18  -0.00    -0.00   0.00  -0.03    -0.07  -0.03   0.00
   6   1    -0.04   0.12  -0.00    -0.05  -0.05  -0.03     0.10   0.22  -0.01
   7   1    -0.03   0.13   0.00     0.06   0.06  -0.03     0.10   0.23   0.01
   8   1     0.08   0.12   0.00    -0.00  -0.00  -0.76    -0.22   0.03   0.02
                      7                      8                      9
                        a                      a                      a 
 Frequencies --  1116.1354              1118.9114              1193.0516
 Red. masses --     2.0854                 1.2784                 3.6492
 Frc consts  --     0.0000                 0.0000                 0.0000
 IR Inten    --   108.4988                 2.3321               120.2441
 Raman Activ --     0.0000                 0.0000                 0.0000
 Depolar     --     0.0000                 0.0000                 0.0000
 Atom AN      X      Y      Z        X      Y      Z        X      Y      Z
   1   6     0.13  -0.43  -0.06     0.02  -0.06   0.41    -0.29  -0.03   0.00
   2   8     0.20   0.40   0.03     0.02   0.06  -0.21     0.68   0.00  -0.00
   3   6    -0.34  -0.16   0.01    -0.05  -0.02  -0.07    -0.41  -0.16  -0.00
   4   8     0.05   0.07  -0.00     0.01   0.01   0.01    -0.11   0.18  -0.00
   5   1    -0.34  -0.35   0.03    -0.04  -0.04  -0.20     0.28   0.23  -0.00
   6   1     0.06   0.35  -0.01    -0.38  -0.40  -0.16     0.02  -0.17   0.05
   7   1    -0.02   0.25   0.05     0.38   0.47  -0.15     0.01  -0.17  -0.05
   8   1     0.02  -0.08  -0.02     0.00  -0.01   0.14    -0.17   0.02  -0.00
                     10                     11                     12
                        a                      a                      a 
 Frequencies --  1352.5595              1377.7601              1443.3699
 Red. masses --     1.1460                 1.1438                 1.0599
 Frc consts  --     0.0000                 0.0000                 0.0000
 IR Inten    --    25.5097                10.2555                10.7283
 Raman Activ --     0.0000                 0.0000                 0.0000
 Depolar     --     0.0000                 0.0000                 0.0000
 Atom AN      X      Y      Z        X      Y      Z        X      Y      Z
   1   6     0.02  -0.07   0.00    -0.17  -0.26  -0.00     0.01   0.00  -0.23
   2   8     0.02   0.17  -0.00    -0.12  -0.09  -0.00     0.00   0.00  -0.03
   3   6     0.22  -0.00   0.00     0.05   0.05  -0.00    -0.00   0.00   0.00
   4   8    -0.00  -0.22   0.00     0.03  -0.05   0.00     0.00  -0.00  -0.01
   5   1    -0.04  -0.04  -0.00     0.51   0.33   0.00     0.01  -0.01   0.73
   6   1    -0.01   0.03  -0.01     0.13   0.47   0.10     0.11  -0.43   0.06
   7   1    -0.01   0.03   0.01     0.13   0.48  -0.09    -0.15   0.42   0.11
   8   1    -0.82   0.43  -0.00     0.01   0.00   0.00    -0.00   0.00   0.01
                     13                     14                     15
                        a                      a                      a 
 Frequencies --  1456.0588              1790.8865              2835.3578
 Red. masses --     1.0567                11.1806                 1.0723
 Frc consts  --     0.0000                 0.0000                 0.0000
 IR Inten    --    12.6612               517.8723                91.9627
 Raman Activ --     0.0000                 0.0000                 0.0000
 Depolar     --     0.0000                 0.0000                 0.0000
 Atom AN      X      Y      Z        X      Y      Z        X      Y      Z
   1   6     0.20  -0.07   0.00     0.01  -0.02  -0.00    -0.00  -0.00   0.00
   2   8     0.06  -0.02  -0.00    -0.08   0.04  -0.00     0.02   0.01  -0.00
   3   6    -0.02  -0.00  -0.00     0.44  -0.63   0.00     0.09   0.24  -0.00
   4   8    -0.01   0.01   0.00    -0.30   0.54  -0.00     0.01   0.00   0.00
   5   1     0.22   0.13  -0.03     0.02   0.01   0.00    -0.00  -0.01  -0.00
   6   1    -0.55   0.10  -0.38     0.01   0.03   0.00     0.00  -0.00  -0.01
   7   1    -0.52   0.06   0.40     0.01   0.03  -0.00     0.00  -0.00   0.01
   8   1     0.01  -0.01   0.00    -0.07  -0.10   0.00    -0.43  -0.87   0.00
                     16                     17                     18
                        a                      a                      a 
 Frequencies --  2994.2021              3004.5869              3010.5542
 Red. masses --     1.0558                 1.0936                 1.0640
 Frc consts  --     0.0000                 0.0000                 0.0000
 IR Inten    --     7.8862                12.6573                 9.2837
 Raman Activ --     0.0000                 0.0000                 0.0000
 Depolar     --     0.0000                 0.0000                 0.0000
 Atom AN      X      Y      Z        X      Y      Z        X      Y      Z
   1   6     0.10  -0.20  -0.01    -0.05   0.01   0.29    -0.22   0.06  -0.07
   2   8    -0.00  -0.01  -0.00    -0.00  -0.00   0.00    -0.01  -0.01  -0.00
   3   6     0.00   0.00   0.00     0.00  -0.00   0.00     0.00  -0.00  -0.00
   4   8     0.00   0.00  -0.00     0.00  -0.00  -0.00     0.00  -0.00   0.00
   5   1    -0.54   0.78   0.02     0.02  -0.04   0.04     0.09  -0.15  -0.01
   6   1     0.10  -0.02  -0.12     0.47  -0.02  -0.67     0.24   0.00  -0.42
   7   1     0.10  -0.03   0.12    -0.31   0.03  -0.38     0.46  -0.03   0.68
   8   1     0.00  -0.00  -0.00     0.00   0.00  -0.00     0.01   0.01   0.00
