      -----------------------------------------------------------      
     |                   =====================                   |     
     |                           x T B                           |     
     |                   =====================                   |     
     |                         S. Grimme                         |     
     |          Mulliken Center for Theoretical Chemistry        |     
     |                    University of Bonn                     |     
      -----------------------------------------------------------      

   * xtb version 6.7.1 (41059b4) compiled by 'michael@archlinux' on 2025-03-24

   xtb is free software: you can redistribute it and/or modify it under
   the terms of the GNU Lesser General Public License as published by
   the Free Software Foundation, either version 3 of the License, or
   (at your option) any later version.
   
   xtb is distributed in the hope that it will be useful,
   but WITHOUT ANY WARRANTY; without even the implied warranty of
   MERCHANTABILITY or FITNESS FOR A PARTICULAR PURPOSE.  See the
   GNU Lesser General Public License for more details.
   
   Cite this work as:
   * C. Bannwarth, E. Caldeweyher, S. Ehlert, A. Hansen, P. Pracht,
     J. Seibert, S. Spicher, S. Grimme, WIREs Comput. Mol. Sci., 2020, 11,
     e01493. DOI: 10.1002/wcms.1493
   
   for GFN2-xTB:
   * C. Bannwarth, S. Ehlert and S. Grimme., J. Chem. Theory Comput., 2019,
     15, 1652-1671. DOI: 10.1021/acs.jctc.8b01176
   for GFN1-xTB:
   * S. Grimme, C. Bannwarth, P. Shushkov, J. Chem. Theory Comput., 2017,
     13, 1989-2009. DOI: 10.1021/acs.jctc.7b00118
   for GFN0-xTB:
   * P. Pracht, E. Caldeweyher, S. Ehlert, S. Grimme, ChemRxiv, 2019, preprint.
     DOI: 10.26434/chemrxiv.8326202.v1
   for GFN-FF:
   * S. Spicher and S. Grimme, Angew. Chem. Int. Ed., 2020, 59, 15665-15673.
     DOI: 10.1002/anie.202004239
   
   for ALPB and GBSA implicit solvation:
   * S. Ehlert, M. Stahn, S. Spicher, S. Grimme, J. Chem. Theory Comput.,
     2021, 17, 4250-4261. DOI: 10.1021/acs.jctc.1c00471
   
   for ddCOSMO and CPCM-X implicit solvation:
   * M. Stahn, S. Ehlert, S. Grimme, J. Phys. Chem. A,
     2023, XX, XXXX-XXXX. DOI: 10.1021/acs.jpca.3c04382
   
   for DFT-D4:
   * E. Caldeweyher, C. Bannwarth and S. Grimme, J. Chem. Phys., 2017,
     147, 034112. DOI: 10.1063/1.4993215
   * E. Caldeweyher, S. Ehlert, A. Hansen, H. Neugebauer, S. Spicher,
     C. Bannwarth and S. Grimme, J. Chem. Phys., 2019, 150, 154122.
     DOI: 10.1063/1.5090222
   * E. Caldeweyher, J.-M. Mewes, S. Ehlert and S. Grimme, Phys. Chem. Chem. Phys.
     2020, 22, 8499-8512. DOI: 10.1039/D0CP00502A
   
   for sTDA-xTB:
   * S. Grimme and C. Bannwarth, J. Chem. Phys., 2016, 145, 054103.
     DOI: 10.1063/1.4959605
   
   in the mass-spec context:
   * V. Asgeirsson, C. Bauer and S. Grimme, Chem. Sci., 2017, 8, 4879.
     DOI: 10.1039/c7sc00601b
   * J. Koopman and S. Grimme, ACS Omega 2019, 4, 12, 15120-15133.
     DOI: 10.1021/acsomega.9b02011
   
   for metadynamics refer to:
   * S. Grimme, J. Chem. Theory Comput., 2019, 155, 2847-2862
     DOI: 10.1021/acs.jctc.9b00143
   
   for SPH calculations refer to:
   * S. Spicher and S. Grimme, J. Chem. Theory Comput., 2021, 17, 1701-1714
     DOI: 10.1021/acs.jctc.0c01306
   
   for ONIOM refer to:
   * C. Plett, A. Katbashev, S. Ehlert, S. Grimme, M. Bursch,
     Phys. Chem. Chem. Phys., 2023, 25, 17860-17868. DOI: 10.1039/D3CP02178E
   
   for DIPRO refer to:
   * J. Kohn, N. Gildemeister, S. Grimme, D. Fazzi, A. Hansen,
     J. Chem. Phys., 2023, just accepted.
   
   for PTB refer to:
   * S. Grimme, M. Mueller, A. Hansen, J. Chem. Phys., 2023, 158, 124111.
     DOI: 10.1063/5.0137838
   
   with help from (in alphabetical order)
   P. Atkinson, C. Bannwarth, F. Bohle, G. Brandenburg, E. Caldeweyher
   M. Checinski, S. Dohm, S. Ehlert, S. Ehrlich, I. Gerasimov, C. Hölzer
   A. Katbashev, J. Kohn, J. Koopman, C. Lavigne, S. Lehtola, F. März, M. Müller,
   F. Musil, H. Neugebauer, J. Pisarek, C. Plett, P. Pracht, F. Pultar,
   J. Seibert, P. Shushkov, S. Spicher, M. Stahn, M. Steiner, T. Strunk,
   J. Stückrath, T. Rose, and J. Unsleber
   
 * started run on 2025/04/08 at 23:37:46.625     
   ID    Z sym.   atoms
    1    6 C      1, 3
    2    8 O      2, 4
    3    1 H      5-8

           -------------------------------------------------
          |                Calculation Setup                |
           -------------------------------------------------

          program call               : /usr/bin/xtb xtb_rrho.coord --gfn2 --ohess vtight --chrg 0 --enso --norestart -I rrho-xcontrol-inp --parallel 1
          coordinate file            : xtb_rrho.coord
          omp threads                :                     1


           -------------------------------------------------
          |                 G F N 2 - x T B                 |
           -------------------------------------------------

        Reference                      10.1021/acs.jctc.8b01176
      * Hamiltonian:
        H0-scaling (s, p, d)           1.850000    2.230000    2.230000
        zeta-weighting                 0.500000
      * Dispersion:
        s8                             2.700000
        a1                             0.520000
        a2                             5.000000
        s9                             5.000000
      * Repulsion:
        kExp                           1.500000    1.000000
        rExp                           1.000000
      * Coulomb:
        alpha                          2.000000
        third order                    shell-resolved
        anisotropic                    true
        a3                             3.000000
        a5                             4.000000
        cn-shift                       1.200000
        cn-exp                         4.000000
        max-rad                        5.000000


          ...................................................
          :                      SETUP                      :
          :.................................................:
          :  # basis functions                  20          :
          :  # atomic orbitals                  20          :
          :  # shells                           12          :
          :  # electrons                        24          :
          :  max. iterations                   250          :
          :  Hamiltonian                  GFN2-xTB          :
          :  restarted?                      false          :
          :  GBSA solvation                  false          :
          :  PC potential                    false          :
          :  electronic temp.          300.0000000     K    :
          :  accuracy                    1.0000000          :
          :  -> integral cutoff          0.2500000E+02      :
          :  -> integral neglect         0.1000000E-07      :
          :  -> SCF convergence          0.1000000E-05 Eh   :
          :  -> wf. convergence          0.1000000E-03 e    :
          :  Broyden damping             0.4000000          :
          :  net charge                          0          :
          :  unpaired electrons                  0          :
          ...................................................

 iter      E             dE          RMSdq      gap      omega  full diag
   1    -14.5228479 -0.145228E+02  0.566E+00    5.98       0.0  T
   2    -14.5599035 -0.370556E-01  0.282E+00    4.84       1.0  T
   3    -14.5612867 -0.138329E-02  0.161E+00    5.28       1.0  T
   4    -14.5636383 -0.235159E-02  0.141E-01    5.03       1.0  T
   5    -14.5637025 -0.641440E-04  0.723E-02    5.06       1.0  T
   6    -14.5637042 -0.168927E-05  0.131E-02    5.06       2.7  T
   7    -14.5637043 -0.141085E-06  0.498E-03    5.06       7.1  T
   8    -14.5637044 -0.432002E-07  0.212E-03    5.06      16.7  T
   9    -14.5637044 -0.169718E-07  0.948E-04    5.06      37.3  T
  10    -14.5637044 -0.474000E-08  0.169E-04    5.06     209.7  T

   *** convergence criteria satisfied after 10 iterations ***

         #    Occupation            Energy/Eh            Energy/eV
      -------------------------------------------------------------
         1        2.0000           -0.7538618             -20.5136
       ...           ...                  ...                  ...
         6        2.0000           -0.5951026             -16.1936
         7        2.0000           -0.5725321             -15.5794
         8        2.0000           -0.5290308             -14.3957
         9        2.0000           -0.5205318             -14.1644
        10        2.0000           -0.4879558             -13.2780
        11        2.0000           -0.4605643             -12.5326
        12        2.0000           -0.4378693             -11.9150 (HOMO)
        13                         -0.2520324              -6.8582 (LUMO)
        14                         -0.0165199              -0.4495
        15                          0.1177766               3.2049
        16                          0.1308818               3.5615
        17                          0.1732472               4.7143
       ...                                ...                  ...
        20                          0.6121532              16.6575
      -------------------------------------------------------------
                  HL-Gap            0.1858369 Eh            5.0569 eV
             Fermi-level           -0.3449509 Eh           -9.3866 eV

 SCC (total)                   0 d,  0 h,  0 min,  0.002 sec
 SCC setup                      ...        0 min,  0.000 sec (  2.492%)
 Dispersion                     ...        0 min,  0.000 sec (  1.003%)
 classical contributions        ...        0 min,  0.000 sec (  0.392%)
 integral evaluation            ...        0 min,  0.000 sec ( 13.424%)
 iterations                     ...        0 min,  0.001 sec ( 52.415%)
 molecular gradient             ...        0 min,  0.001 sec ( 27.147%)
 printout                       ...        0 min,  0.000 sec (  2.786%)

         :::::::::::::::::::::::::::::::::::::::::::::::::::::
         ::                     SUMMARY                     ::
         :::::::::::::::::::::::::::::::::::::::::::::::::::::
         :: total energy             -14.442453032589 Eh    ::
         :: gradient norm              0.032135409707 Eh/a0 ::
         :: HOMO-LUMO gap              5.056879437831 eV    ::
         ::.................................................::
         :: SCC energy               -14.563703973263 Eh    ::
         :: -> isotropic ES            0.038421203426 Eh    ::
         :: -> anisotropic ES          0.001467851276 Eh    ::
         :: -> anisotropic XC          0.001413181926 Eh    ::
         :: -> dispersion             -0.002842513088 Eh    ::
         :: repulsion energy           0.121250940674 Eh    ::
         :: add. restraining           0.000000000000 Eh    ::
         :: total charge               0.000000000000 e     ::
         :::::::::::::::::::::::::::::::::::::::::::::::::::::

      ----------------------------------------------------------- 
     |                   =====================                   |
     |                        A N C O P T                        |
     |                   =====================                   |
     |               Approximate Normal Coordinate               |
     |                Rational Function Optimizer                |
      ----------------------------------------------------------- 

          ...................................................
          :                      SETUP                      :
          :.................................................:
          :   optimization level         verytight          :
          :   max. optcycles                   200          :
          :   ANC micro-cycles                  20          :
          :   degrees of freedom                18          :
          :.................................................:
          :   RF solver                   davidson          :
          :   write xtbopt.log                true          :
          :   linear?                        false          :
          :   energy convergence         0.1000000E-06 Eh   :
          :   grad. convergence          0.2000000E-03 Eh/α :
          :   maximum RF displ.          1.0000000          :
          :   Hlow (freq-cutoff)         0.1000000E-01      :
          :   Hmax (freq-cutoff)         5.0000000          :
          :   S6 in model hess.         20.0000000          :
          ...................................................

generating ANC from exact Hessian ...
Using Lindh-Hessian (1995)
 Shifting diagonal of input Hessian by    2.0290730583096932E-003
 Lowest  eigenvalues of input Hessian
    0.000000    0.000000    0.000000    0.000000    0.000000    0.000000
    0.010000    0.014035    0.024139    0.066571    0.079689    0.102329
    0.120392    0.135230    0.166224    0.226543    0.352231    0.486338
 Highest eigenvalues
    0.711676    1.121819    1.146259    1.205532    1.689329    2.382101


........................................................................
.............................. CYCLE    1 ..............................
........................................................................

 iter      E             dE          RMSdq      gap      omega  full diag
   1    -14.5637044 -0.145637E+02  0.239E-05    5.06       0.0  T
   2    -14.5637044 -0.130029E-11  0.101E-05    5.06    3508.3  T
   3    -14.5637044 -0.257572E-12  0.655E-06    5.06    5393.7  T
     SCC iter.                  ...        0 min,  0.001 sec
     gradient                   ...        0 min,  0.001 sec
 * total energy  :   -14.4424530 Eh     change       -0.8915357E-10 Eh
   gradient norm :     0.0321350 Eh/α   predicted     0.0000000E+00 (-100.00%)
   displ. norm   :     0.0767963 α      lambda       -0.1276919E-02
   maximum displ.:     0.0570125 α      in ANC's #3, #13, #6, ...

........................................................................
.............................. CYCLE    2 ..............................
........................................................................

 iter      E             dE          RMSdq      gap      omega  full diag
   1    -14.5703879 -0.145704E+02  0.130E-01    5.21       0.0  T
   2    -14.5704243 -0.364899E-04  0.786E-02    5.18       1.0  T
   3    -14.5704280 -0.369257E-05  0.437E-02    5.19       1.0  T
   4    -14.5704286 -0.569099E-06  0.655E-03    5.18       5.4  T
   5    -14.5704287 -0.734095E-07  0.271E-03    5.19      13.0  T
   6    -14.5704287 -0.685784E-08  0.731E-04    5.19      48.4  T
   7    -14.5704287 -0.221531E-09  0.701E-05    5.19     504.2  T
     SCC iter.                  ...        0 min,  0.001 sec
     gradient                   ...        0 min,  0.001 sec
 * total energy  :   -14.4432473 Eh     change       -0.7942357E-03 Eh
   gradient norm :     0.0122707 Eh/α   predicted    -0.6422246E-03 ( -19.14%)
   displ. norm   :     0.0644005 α      lambda       -0.2689523E-03
   maximum displ.:     0.0521409 α      in ANC's #2, #1, #4, ...

........................................................................
.............................. CYCLE    3 ..............................
........................................................................

 iter      E             dE          RMSdq      gap      omega  full diag
   1    -14.5722440 -0.145722E+02  0.131E-01    5.24       0.0  T
   2    -14.5722689 -0.249657E-04  0.779E-02    5.21       1.0  T
   3    -14.5722699 -0.969969E-06  0.392E-02    5.22       1.0  T
   4    -14.5722705 -0.578032E-06  0.548E-03    5.22       6.4  T
   5    -14.5722706 -0.114379E-06  0.182E-03    5.22      19.4  T
   6    -14.5722706 -0.149151E-08  0.402E-04    5.22      88.0  T
   7    -14.5722706 -0.620375E-10  0.109E-04    5.22     323.9  T
     SCC iter.                  ...        0 min,  0.001 sec
     gradient                   ...        0 min,  0.001 sec
 * total energy  :   -14.4432445 Eh     change        0.2750011E-05 Eh
   gradient norm :     0.0082218 Eh/α   predicted    -0.1350345E-03 (*******%)
   displ. norm   :     0.0729683 α      lambda       -0.3479717E-03
   maximum displ.:     0.0609576 α      in ANC's #2, #1, #4, ...

........................................................................
.............................. CYCLE    4 ..............................
........................................................................

 iter      E             dE          RMSdq      gap      omega  full diag
   1    -14.5728543 -0.145729E+02  0.138E-01    5.24       0.0  T
   2    -14.5728673 -0.129875E-04  0.821E-02    5.23       1.0  T
   3    -14.5728672  0.973684E-07  0.308E-02    5.23       1.1  T
   4    -14.5728680 -0.793245E-06  0.422E-03    5.23       8.4  T
   5    -14.5728681 -0.706676E-07  0.166E-03    5.23      21.3  T
   6    -14.5728681 -0.638494E-09  0.245E-04    5.23     144.2  T
   7    -14.5728681 -0.322338E-10  0.961E-05    5.23     367.8  T
     SCC iter.                  ...        0 min,  0.001 sec
     gradient                   ...        0 min,  0.001 sec
 * total energy  :   -14.4433235 Eh     change       -0.7895954E-04 Eh
   gradient norm :     0.0065951 Eh/α   predicted    -0.1749130E-03 ( 121.52%)
   displ. norm   :     0.0245351 α      lambda       -0.1153715E-03
   maximum displ.:     0.0153675 α      in ANC's #2, #10, #13, ...

........................................................................
.............................. CYCLE    5 ..............................
........................................................................

 iter      E             dE          RMSdq      gap      omega  full diag
   1    -14.5713291 -0.145713E+02  0.569E-02    5.19       0.0  T
   2    -14.5713387 -0.959939E-05  0.342E-02    5.20       1.0  T
   3    -14.5713394 -0.674694E-06  0.194E-02    5.20       1.8  T
   4    -14.5713394 -0.254677E-07  0.360E-03    5.20       9.8  T
   5    -14.5713395 -0.359197E-07  0.900E-04    5.20      39.3  T
   6    -14.5713395 -0.468297E-09  0.207E-04    5.20     170.5  T
     SCC iter.                  ...        0 min,  0.001 sec
     gradient                   ...        0 min,  0.001 sec
 * total energy  :   -14.4433753 Eh     change       -0.5177270E-04 Eh
   gradient norm :     0.0017502 Eh/α   predicted    -0.5771935E-04 (  11.49%)
   displ. norm   :     0.0063488 α      lambda       -0.4715691E-05
   maximum displ.:     0.0042591 α      in ANC's #2, #16, #1, ...

........................................................................
.............................. CYCLE    6 ..............................
........................................................................

 iter      E             dE          RMSdq      gap      omega  full diag
   1    -14.5716197 -0.145716E+02  0.176E-02    5.21       0.0  T
   2    -14.5716207 -0.104307E-05  0.969E-03    5.20       3.6  T
   3    -14.5716208 -0.571563E-07  0.555E-03    5.21       6.4  T
   4    -14.5716208 -0.884636E-09  0.133E-03    5.20      26.5  T
   5    -14.5716208 -0.423630E-08  0.277E-04    5.21     127.5  T
   6    -14.5716208 -0.557581E-10  0.655E-05    5.21     539.4  T
     SCC iter.                  ...        0 min,  0.001 sec
     gradient                   ...        0 min,  0.001 sec
 * total energy  :   -14.4433773 Eh     change       -0.2013618E-05 Eh
   gradient norm :     0.0007662 Eh/α   predicted    -0.2359703E-05 (  17.19%)
   displ. norm   :     0.0033049 α      lambda       -0.1050609E-05
   maximum displ.:     0.0023500 α      in ANC's #2, #10, #5, ...

........................................................................
.............................. CYCLE    7 ..............................
........................................................................

 iter      E             dE          RMSdq      gap      omega  full diag
   1    -14.5714550 -0.145715E+02  0.622E-03    5.20       0.0  T
   2    -14.5714551 -0.379854E-07  0.390E-03    5.20       9.1  T
   3    -14.5714551 -0.130854E-08  0.179E-03    5.20      19.8  T
   4    -14.5714551 -0.260572E-08  0.174E-04    5.20     203.1  T
   5    -14.5714551 -0.937419E-10  0.905E-05    5.20     390.7  T
     SCC iter.                  ...        0 min,  0.001 sec
     gradient                   ...        0 min,  0.001 sec
 * total energy  :   -14.4433781 Eh     change       -0.8211047E-06 Eh
   gradient norm :     0.0001404 Eh/α   predicted    -0.5258480E-06 ( -35.96%)
   displ. norm   :     0.0007814 α      lambda       -0.4557613E-07
   maximum displ.:     0.0003495 α      in ANC's #10, #3, #1, ...

........................................................................
.............................. CYCLE    8 ..............................
........................................................................

 iter      E             dE          RMSdq      gap      omega  full diag
   1    -14.5714463 -0.145714E+02  0.161E-03    5.20       0.0  T
   2    -14.5714463 -0.107541E-08  0.101E-03    5.20      35.0  T
   3    -14.5714463  0.704770E-10  0.256E-04    5.20     137.9  T
   4    -14.5714463 -0.140522E-09  0.344E-05    5.20    1026.6  T
     SCC iter.                  ...        0 min,  0.000 sec
     gradient                   ...        0 min,  0.001 sec
 * total energy  :   -14.4433781 Eh     change       -0.2966267E-07 Eh
   gradient norm :     0.0000797 Eh/α   predicted    -0.2124528E-07 ( -28.38%)
   displ. norm   :     0.0002609 α      lambda       -0.6639294E-08
   maximum displ.:     0.0002106 α      in ANC's #2, #11, #1, ...

   *** GEOMETRY OPTIMIZATION CONVERGED AFTER 8 ITERATIONS ***

------------------------------------------------------------------------
 total energy gain   :        -0.0009251 Eh       -0.5805 kcal/mol
 total RMSD          :         0.0283918 a0        0.0150 Å
 total power (kW/mol):        -0.3036004 (step) -142.2765 (real)
------------------------------------------------------------------------

 ANCopt (total)                0 d,  0 h,  0 min,  0.017 sec
 optimizer setup                ...        0 min,  0.000 sec (  0.236%)
 model hessian                  ...        0 min,  0.000 sec (  1.009%)
 ANC generation                 ...        0 min,  0.000 sec (  0.336%)
 coordinate transformation      ...        0 min,  0.000 sec (  0.144%)
 single point calculation       ...        0 min,  0.016 sec ( 92.513%)
 optimization log               ...        0 min,  0.000 sec (  2.305%)
 hessian update                 ...        0 min,  0.000 sec (  0.176%)
 rational function              ...        0 min,  0.000 sec (  1.670%)

================
 final structure:
================
$coord
        2.65350621441034        0.98073147620379        0.00143402627583      C
        1.10246121482648       -1.22408213510351        0.00501092664869      O
       -1.37236968319343       -0.90319339537049       -0.00145118056316      C
       -2.49666688055187        1.05493025006820       -0.00916663381541      O
        1.47111642631931        2.66979059048703        0.04293911441976      H
        3.80512847465604        0.95864676889273       -1.70580187723034      H
        3.86610875803523        0.91498781531663        1.66424703030434      H
       -2.27586088332596       -2.78137963292858        0.00230329702681      H
$end

 Bond Distances (Angstroems)
 ---------------------------
C1-O2=1.4265         C1-H5=1.0913         C1-H6=1.0898         C1-H7=1.0896         O2-C1=1.4265         O2-C3=1.3206         
C3-O2=1.3206         C3-O4=1.1949         C3-H8=1.1029         O4-C3=1.1949         H5-C1=1.0913         H6-C1=1.0898         
H7-C1=1.0896         H8-C3=1.1029         
 C  H  Rav=1.0934 sigma=0.0055  Rmin=1.0896  Rmax=1.1029     4
 O  C  Rav=1.3140 sigma=0.0947  Rmin=1.1949  Rmax=1.4265     3

 selected bond angles (degree)
 --------------------
H5-C1-O2=109.88                H6-C1-O2=108.30                H6-C1-H5=110.25                H7-C1-O2=108.16                
H7-C1-H5=110.34                H7-C1-H6=109.86                C3-O2-C1=117.74                O4-C3-O2=127.25                
H8-C3-O2=108.30                H8-C3-O4=124.45                

 selected dihedral angles (degree)
 ---------------------------------
C3-O2-C1-H5=  1.46            C3-O2-C1-H6=240.98            C3-O2-C1-H7=121.96            O4-C3-O2-C1=359.97            
H8-C3-O2-C1=179.99            
           -------------------------------------------------
          |                Final Singlepoint                |
           -------------------------------------------------

          ...................................................
          :                      SETUP                      :
          :.................................................:
          :  # basis functions                  20          :
          :  # atomic orbitals                  20          :
          :  # shells                           12          :
          :  # electrons                        24          :
          :  max. iterations                   250          :
          :  Hamiltonian                  GFN2-xTB          :
          :  restarted?                      false          :
          :  GBSA solvation                  false          :
          :  PC potential                    false          :
          :  electronic temp.          300.0000000     K    :
          :  accuracy                    1.0000000          :
          :  -> integral cutoff          0.2500000E+02      :
          :  -> integral neglect         0.1000000E-07      :
          :  -> SCF convergence          0.1000000E-05 Eh   :
          :  -> wf. convergence          0.1000000E-03 e    :
          :  Broyden damping             0.4000000          :
          :  net charge                          0          :
          :  unpaired electrons                  0          :
          ...................................................

 iter      E             dE          RMSdq      gap      omega  full diag
   1    -14.5714463 -0.145714E+02  0.167E-05    5.20       0.0  T
   2    -14.5714463 -0.106581E-12  0.998E-06    5.20    3542.0  T
   3    -14.5714463  0.355271E-14  0.336E-06    5.20   10509.4  T

   *** convergence criteria satisfied after 3 iterations ***

         #    Occupation            Energy/Eh            Energy/eV
      -------------------------------------------------------------
         1        2.0000           -0.7601987             -20.6861
       ...           ...                  ...                  ...
         6        2.0000           -0.6014544             -16.3664
         7        2.0000           -0.5737300             -15.6120
         8        2.0000           -0.5300018             -14.4221
         9        2.0000           -0.5203359             -14.1591
        10        2.0000           -0.4865457             -13.2396
        11        2.0000           -0.4609213             -12.5423
        12        2.0000           -0.4357399             -11.8571 (HOMO)
        13                         -0.2445928              -6.6557 (LUMO)
        14                          0.0056957               0.1550
        15                          0.1215367               3.3072
        16                          0.1478186               4.0223
        17                          0.1784060               4.8547
       ...                                ...                  ...
        20                          0.6484502              17.6452
      -------------------------------------------------------------
                  HL-Gap            0.1911471 Eh            5.2014 eV
             Fermi-level           -0.3401664 Eh           -9.2564 eV

 SCC (total)                   0 d,  0 h,  0 min,  0.002 sec
 SCC setup                      ...        0 min,  0.000 sec (  2.338%)
 Dispersion                     ...        0 min,  0.000 sec (  0.823%)
 classical contributions        ...        0 min,  0.000 sec (  0.317%)
 integral evaluation            ...        0 min,  0.000 sec ( 24.126%)
 iterations                     ...        0 min,  0.000 sec ( 19.198%)
 molecular gradient             ...        0 min,  0.001 sec ( 49.080%)
 printout                       ...        0 min,  0.000 sec (  3.627%)

         :::::::::::::::::::::::::::::::::::::::::::::::::::::
         ::                     SUMMARY                     ::
         :::::::::::::::::::::::::::::::::::::::::::::::::::::
         :: total energy             -14.443378115018 Eh    ::
         :: gradient norm              0.000079347861 Eh/a0 ::
         :: HOMO-LUMO gap              5.201377441689 eV    ::
         ::.................................................::
         :: SCC energy               -14.571445895865 Eh    ::
         :: -> isotropic ES            0.038275900444 Eh    ::
         :: -> anisotropic ES          0.001516549619 Eh    ::
         :: -> anisotropic XC          0.000753408332 Eh    ::
         :: -> dispersion             -0.002857539052 Eh    ::
         :: repulsion energy           0.128067780846 Eh    ::
         :: add. restraining           0.000000000000 Eh    ::
         :: total charge               0.000000000000 e     ::
         :::::::::::::::::::::::::::::::::::::::::::::::::::::

           ------------------------------------------------- 
          |                Numerical Hessian                |
           ------------------------------------------------- 
step length          :   0.00500
SCC accuracy         :   0.30000
Hessian scale factor :   1.00000
frozen atoms in %    :   0.00000    0
RMS gradient         :   0.00008
estimated CPU  time      0.00 min
estimated wall time      0.00 min

writing file <hessian>, containing the non-mass-weighted Hessian matrix in atomic units (Eₕ/Bohr²).

 projected vibrational frequencies (cm⁻¹)
eigval :       -0.00    -0.00    -0.00     0.00     0.00     0.00
eigval :       30.84   310.54   356.23   742.78   938.48   950.70
eigval :     1116.14  1118.91  1193.05  1352.56  1377.76  1443.37
eigval :     1456.06  1790.89  2835.36  2994.20  3004.59  3010.55
           -------------------------------------------------
          |                Property Printout                |
           -------------------------------------------------

    * Orbital Energies and Occupations

         #    Occupation            Energy/Eh            Energy/eV
      -------------------------------------------------------------
         1        2.0000           -0.7601987             -20.6861
         2        2.0000           -0.7310344             -19.8925
         3        2.0000           -0.6876652             -18.7123
         4        2.0000           -0.6219401             -16.9239
         5        2.0000           -0.6044190             -16.4471
         6        2.0000           -0.6014544             -16.3664
         7        2.0000           -0.5737300             -15.6120
         8        2.0000           -0.5300018             -14.4221
         9        2.0000           -0.5203359             -14.1591
        10        2.0000           -0.4865457             -13.2396
        11        2.0000           -0.4609213             -12.5423
        12        2.0000           -0.4357399             -11.8571 (HOMO)
        13                         -0.2445928              -6.6557 (LUMO)
        14                          0.0056957               0.1550
        15                          0.1215367               3.3072
        16                          0.1478186               4.0223
        17                          0.1784060               4.8547
        18                          0.1861479               5.0653
        19                          0.2783285               7.5737
        20                          0.6484503              17.6452
      -------------------------------------------------------------
                  HL-Gap            0.1911471 Eh            5.2014 eV
             Fermi-level           -0.3401664 Eh           -9.2564 eV

     #   Z          covCN         q      C6AA      α(0)
     1   6          3.652     0.019    20.555     6.511
     2   8          1.703    -0.237    17.931     5.717
     3   6          2.663     0.338    21.259     7.544
     4   8          0.856    -0.375    21.188     6.171
     5   1          0.924     0.082     1.962     2.190
     6   1          0.925     0.070     2.086     2.259
     7   1          0.925     0.070     2.082     2.256
     8   1          0.923     0.033     2.550     2.497

 Mol. C6AA /au·bohr⁶  :        565.628187
 Mol. C8AA /au·bohr⁸  :      11876.114363
 Mol. α(0) /au        :         35.145735


Wiberg/Mayer (AO) data.
largest (>0.10) Wiberg bond orders for each atom

 ---------------------------------------------------------------------------
     #   Z sym  total        # sym  WBO       # sym  WBO       # sym  WBO
 ---------------------------------------------------------------------------
     1   6      3.916 --     7      0.977     6      0.977     5      0.975
                             2      0.947
     2   8      2.347 --     3      1.181     1      0.947     4      0.198
     3   6      3.922 --     4      1.796     2      1.181     8      0.915
     4   8      2.072 --     3      1.796     2      0.198
     5   1      0.993 --     1      0.975
     6   1      0.995 --     1      0.977
     7   1      0.995 --     1      0.977
     8   1      0.999 --     3      0.915
 ---------------------------------------------------------------------------

Topologies differ in total number of bonds
Writing topology from bond orders to xtbtopo.mol

molecular dipole:
                 x           y           z       tot (Debye)
 q only:        0.847      -0.133       0.003
   full:        0.884      -0.270       0.003       2.350
molecular quadrupole (traceless):
                xx          xy          yy          xz          yz          zz
 q only:        0.119       4.213       0.001      -0.008       0.011      -0.121
  q+dip:       -0.996       4.717      -0.161      -0.018       0.014       1.157
   full:       -1.033       5.091      -0.493      -0.018       0.018       1.526

           -------------------------------------------------
          |                Geometry Summary                 |
           -------------------------------------------------

      molecular mass/u    :       60.0520446
   center of mass at/Å    :        0.0000172       0.0000088      -0.0005550
  moments of inertia/u·Å² :        0.2397265E+02   0.7537097E+02   0.9613649E+02
rotational constants/cm⁻¹ :        0.7032028E+00   0.2236621E+00   0.1753510E+00

 * 7 selected distances

     #   Z          #   Z                                           value/Å
     1   6          2   8                                         1.4265186 (max)
     2   8          3   6                                         1.3205914
     3   6          4   8                                         1.1948574
     1   6          5   1                                         1.0912719
     1   6          6   1                                         1.0898195
     1   6          7   1                                         1.0896008 (min)
     3   6          8   1                                         1.1029118

 * 2 distinct bonds (by element types)

   Z      Z             #   av. dist./Å        max./Å        min./Å
   1 H    6 C           4     1.0934010     1.1029118     1.0896008
   6 C    8 O           3     1.3139892     1.4265186     1.1948574

           -------------------------------------------------
          |               Frequency Printout                |
Molecule has the following symmetry elements: (sigma) 
It seems to be the Cs point group
           -------------------------------------------------
 projected vibrational frequencies (cm⁻¹)
eigval :       -0.00    -0.00    -0.00     0.00     0.00     0.00
eigval :       30.84   310.54   356.23   742.78   938.48   950.70
eigval :     1116.14  1118.91  1193.05  1352.56  1377.76  1443.37
eigval :     1456.06  1790.89  2835.36  2994.20  3004.59  3010.55
 reduced masses (amu)
    1:      6.66    2:      4.51    3:      4.02    4:      5.79    5:      7.26    6:      4.65
    7:      1.08    8:      3.89    9:      2.54   10:      4.99   11:      1.59   12:      4.23
   13:      2.09   14:      1.28   15:      3.65   16:      1.15   17:      1.14   18:      1.06
   19:      1.06   20:     11.18   21:      1.07   22:      1.06   23:      1.09   24:      1.06
 IR intensities (km·mol⁻¹)
    1:      1.15    2:      0.84    3:      2.10    4:      1.08    5:      0.89    6:      0.05
    7:      0.35    8:     17.75    9:     31.63   10:     15.41   11:      8.62   12:     33.62
   13:    108.50   14:      2.33   15:    120.24   16:     25.51   17:     10.26   18:     10.73
   19:     12.66   20:    517.87   21:     91.96   22:      7.89   23:     12.66   24:      9.28
 Raman intensities (Ä⁴*amu⁻¹)
    1:      0.00    2:      0.00    3:      0.00    4:      0.00    5:      0.00    6:      0.00
    7:      0.00    8:      0.00    9:      0.00   10:      0.00   11:      0.00   12:      0.00
   13:      0.00   14:      0.00   15:      0.00   16:      0.00   17:      0.00   18:      0.00
   19:      0.00   20:      0.00   21:      0.00   22:      0.00   23:      0.00   24:      0.00
 output can be read by thermo (or use thermo option).
 writing <g98.out> molden fake output.
 recommended (thermochemical) frequency scaling factor: 1.0
           -------------------------------------------------
          |             Thermodynamic Functions             |
           -------------------------------------------------

cs  symmetry found (for desy threshold:  0.10E+00) used in thermo

          ...................................................
          :                      SETUP                      :
          :.................................................:
          :  # frequencies                          18      :
          :  # imaginary freq.                       0      :
          :  linear?                             false      :
          :  only rotor calc.                    false      :
          :  symmetry                               cs      :
          :  rotational number                       1      :
          :  scaling factor                  1.0000000      :
          :  rotor cutoff                    0.0000000 cm⁻¹ :
          :  imag. cutoff                 -100.0000000 cm⁻¹ :
          :.................................................:

    mode    ω/cm⁻¹     T·S(HO)/kcal·mol⁻¹    T·S(FR)/kcal·mol⁻¹   T·S(vib)
   ------------------------------------------------------------------------
       1     30.84    -1.72165 (100.00%)    -1.19719 (  0.00%)    -1.72165
   ------------------------------------------------------------------------

   temp. (K)  partition function   enthalpy   heat capacity  entropy
                                   cal/mol     cal/K/mol   cal/K/mol   J/K/mol
 298.15  VIB   12.1                 1204.554      8.017      8.998
         ROT  0.318E+05              888.727      2.981     23.585
         INT  0.386E+06             2093.281     10.998     32.583
         TR   0.142E+26             1481.212      4.968     38.198
         TOT                        3574.4933    15.9662    70.7812   296.1486

       T/K    H(0)-H(T)+PV         H(T)/Eh          T*S/Eh         G(T)/Eh
   ------------------------------------------------------------------------
    298.15    0.569632E-02    0.649811E-01    0.336304E-01    0.313506E-01
   ------------------------------------------------------------------------

         :::::::::::::::::::::::::::::::::::::::::::::::::::::
         ::                  THERMODYNAMIC                  ::
         :::::::::::::::::::::::::::::::::::::::::::::::::::::
         :: total free energy         -14.412027478544 Eh   ::
         ::.................................................::
         :: total energy              -14.443378115018 Eh   ::
         :: zero point energy           0.059284755460 Eh   ::
         :: G(RRHO) w/o ZPVE           -0.027934118986 Eh   ::
         :: G(RRHO) contrib.            0.031350636474 Eh   ::
         :::::::::::::::::::::::::::::::::::::::::::::::::::::

optimized geometry written to: xtbopt.coord


           -------------------------------------------------
          | TOTAL ENERGY              -14.443378115018 Eh   |
          | TOTAL ENTHALPY            -14.378397041884 Eh   |
          | TOTAL FREE ENERGY         -14.412027478544 Eh   |
          | GRADIENT NORM               0.000079373421 Eh/α |
          | HOMO-LUMO GAP               5.201378012696 eV   |
           -------------------------------------------------

------------------------------------------------------------------------
 * finished run on 2025/04/08 at 23:37:46.733     
------------------------------------------------------------------------
 total:
 * wall-time:     0 d,  0 h,  0 min,  0.108 sec
 *  cpu-time:     0 d,  0 h,  0 min,  0.107 sec
 * ratio c/w:     0.990 speedup
 SCF:
 * wall-time:     0 d,  0 h,  0 min,  0.002 sec
 *  cpu-time:     0 d,  0 h,  0 min,  0.002 sec
 * ratio c/w:     0.994 speedup
 ANC optimizer:
 * wall-time:     0 d,  0 h,  0 min,  0.019 sec
 *  cpu-time:     0 d,  0 h,  0 min,  0.019 sec
 * ratio c/w:     0.987 speedup
 analytical hessian:
 * wall-time:     0 d,  0 h,  0 min,  0.081 sec
 *  cpu-time:     0 d,  0 h,  0 min,  0.081 sec
 * ratio c/w:     0.993 speedup

