8
 energy: -14.442453032678 gnorm: 0.032134988555 xtb: 6.7.1 (41059b4)
C            1.41272157831866        0.53110703295760        0.00080377624911
O            0.59178207021436       -0.66104054304840        0.00311801011472
C           -0.74288105371766       -0.48738130704778        0.00010856125720
O           -1.33488586562918        0.55985052944454       -0.00513910502361
H            0.78905989133362        1.42607449080315        0.02282558696383
H            2.02233938932426        0.50969021413544       -0.90505057627040
H            2.05499996913783        0.48666289194689        0.88269059869932
H           -1.21937809248782       -1.48100890130002        0.00038633993210
8
 energy: -14.443247268407 gnorm: 0.012270693959 xtb: 6.7.1 (41059b4)
C            1.40705105621420        0.52403712540382        0.00076759123018
O            0.58858465687024       -0.65439967723967        0.00085584508780
C           -0.73070353149761       -0.47983660730571       -0.00397761849417
O           -1.31541377327572        0.56125974258014       -0.00419972141016
H            0.77281051423333        1.40989943342561        0.02280631255838
H            2.01466695149280        0.50912863439602       -0.90378989966314
H            2.04558325009895        0.48489866013112        0.88279800713551
H           -1.20882123764211       -1.47103290349993        0.00448267547789
8
 energy: -14.443244518395 gnorm: 0.008221815465 xtb: 6.7.1 (41059b4)
C            1.40401917588411        0.51955029665547        0.00066996166922
O            0.58380494396229       -0.64868112356206        0.01186267262166
C           -0.72648838067115       -0.47731489766550        0.01527637146049
O           -1.31484108498496        0.56018592011926       -0.00744064203463
H            0.77393605894120        1.40896602209215        0.02204289469182
H            2.00823509807618        0.50394652587627       -0.90512288859667
H            2.04787979767909        0.48768543366542        0.87805938620781
H           -1.20278772239269       -1.47038376928961       -0.01560456409743
8
 energy: -14.443323477931 gnorm: 0.006595101469 xtb: 6.7.1 (41059b4)
C            1.40242051955322        0.51676300678006        0.00082174271191
O            0.58021053087330       -0.64471644841377       -0.00110739855068
C           -0.72481565457880       -0.47663292182241       -0.00738830120853
O           -1.31888997498079        0.55871649726784       -0.00409023127647
H            0.77824468145422        1.41142173181341        0.02322051487185
H            2.01339924746007        0.50805624586549       -0.90035954856535
H            2.04287153950107        0.48206373427147        0.88034529388329
H           -1.19968300278824       -1.47171743787069        0.00830112005626
8
 energy: -14.443375250628 gnorm: 0.001750177665 xtb: 6.7.1 (41059b4)
C            1.40452042430385        0.51957200970697        0.00077689720292
O            0.58353306887895       -0.64816610783927        0.00220868342713
C           -0.72738161159033       -0.47821285393285       -0.00166357296650
O           -1.32073328112251        0.55888058710980       -0.00478801580844
H            0.77832564629462        1.41284262701633        0.02282561718767
H            2.01373991526983        0.50740773368152       -0.90267583301057
H            2.04573076462871        0.48391210323103        0.88090798228715
H           -1.20397704016906       -1.47228169108212        0.00215143360291
8
 energy: -14.443377264246 gnorm: 0.000766238565 xtb: 6.7.1 (41059b4)
C            1.40391716269643        0.51868819888687        0.00076552254183
O            0.58297043239953       -0.64733287444212        0.00308725785008
C           -0.72618662416833       -0.47774952464500       -0.00005626639427
O           -1.32077678808120        0.55844974965370       -0.00510638585081
H            0.77842386291122        1.41265858688657        0.02278671299745
H            2.01310262896248        0.50702708161273       -0.90270546363719
H            2.04580052537537        0.48413436465330        0.88043434618448
H           -1.20349331360143       -1.47192117471465        0.00053746823071
8
 energy: -14.443378085350 gnorm: 0.000140392758 xtb: 6.7.1 (41059b4)
C            1.40412545351596        0.51890934918498        0.00076480650533
O            0.58328468414354       -0.64763624451350        0.00259501959798
C           -0.72629548150625       -0.47791940207980       -0.00090185313566
O           -1.32120097293680        0.55829956491074       -0.00488490457716
H            0.77857604386286        1.41285536061134        0.02276464802763
H            2.01356888195786        0.50729654225076       -0.90265058599522
H            2.04582583536441        0.48409940473373        0.88067721074311
H           -1.20412655790751       -1.47195016720684        0.00137885075626
8
 energy: -14.443378115013 gnorm: 0.000079665909 xtb: 6.7.1 (41059b4)
C            1.40417501765940        0.51898074722377        0.00075885402501
O            0.58339735079226       -0.64775637017209        0.00265166818800
C           -0.72622676128218       -0.47794936186951       -0.00076793168293
O           -1.32117921640806        0.55824504742987       -0.00485077371582
H            0.77848128739544        1.41279233837299        0.02272240080736
H            2.01358727335175        0.50729402340526       -0.90267147974840
H            2.04585664963052        0.48419070012085        0.88068160175254
H           -1.20433371464506       -1.47184271661971        0.00121885229653
