
                                 *****************
                                 * O   R   C   A *
                                 *****************

                                            #,                                       
                                            ###                                      
                                            ####                                     
                                            #####                                    
                                            ######                                   
                                           ########,                                 
                                     ,,################,,,,,                         
                               ,,#################################,,                 
                          ,,##########################################,,             
                       ,#########################################, ''#####,          
                    ,#############################################,,   '####,        
                  ,##################################################,,,,####,       
                ,###########''''           ''''###############################       
              ,#####''   ,,,,##########,,,,          '''####'''          '####       
            ,##' ,,,,###########################,,,                        '##       
           ' ,,###''''                  '''############,,,                           
         ,,##''                                '''############,,,,        ,,,,,,###''
      ,#''                                            '''#######################'''  
     '                                                          ''''####''''         
             ,#######,   #######,   ,#######,      ##                                
            ,#'     '#,  ##    ##  ,#'     '#,    #''#        ,####,   ,####,        
            ##       ##  ##   ,#'  ##            #'  '#       #'       #'  '#        
            ##       ##  #######   ##           ,######,      #####,   #    #        
            '#,     ,#'  ##    ##  '#,     ,#' ,#      #,     #,   #   #,  ,#        
             '#######'   ##     ##  '#######'  #'      '#     '####' # '####'        



                #########################################################
                #                        -***-                          #
                #          Department of theory and spectroscopy        #
                #                                                       #
                #                      Frank Neese                      #
                #                                                       #
                #     Directorship, Architecture, Infrastructure        #
                #                    SHARK, DRIVERS                     #
                #        Core code/Algorithms in most modules           #
                #                                                       #
                #        Max Planck Institute fuer Kohlenforschung      #
                #                Kaiser Wilhelm Platz 1                 #
                #                 D-45470 Muelheim/Ruhr                 #
                #                      Germany                          #
                #                                                       #
                #                  All rights reserved                  #
                #                        -***-                          #
                #########################################################


                         Program Version 6.0.1  -  RELEASE   -


 With contributions from (in alphabetic order):
[Max-Planck-Institut fuer Kohlenforschung]                               
  Daniel Aravena         : Magnetic Suceptibility                        
  Michael Atanasov       : Ab Initio Ligand Field Theory (pilot matlab implementation)
  Alexander A. Auer      : GIAO ZORA, VPT2 properties, NMR spectrum      
  Ute Becker             : All parallelization in ORCA, NUMFREQ, NUMCALC 
  Giovanni Bistoni       : ED, misc. LED, open-shell LED, HFLD           
  Martin Brehm           : Molecular dynamics                            
  Dmytro Bykov           : pre 5.0 version of the SCF Hessian            
  Marcos Casanova-Páez   : Triplet and SCS-CIS(D). UHF-(DLPNO)-IP/EA/STEOM-CCSD. UHF-CVS-IP/STEOM-CCSD   
  Vijay G. Chilkuri      : MRCI spin determinant printing, contributions to CSF-ICE 
  Pauline Colinet        : FMM embedding                                 
  Dipayan Datta          : RHF DLPNO-CCSD density                        
  Achintya Kumar Dutta   : EOM-CC, STEOM-CC                              
  Nicolas Foglia         : Exact transition moments, OPA infrastructure, MCD improvements    
  Dmitry Ganyushin       : Spin-Orbit,Spin-Spin,Magnetic field MRCI      
  Miquel Garcia-Rates    : C-PCM and meta-GGA Hessian, CCSD/C-PCM, Gaussian charge scheme 
  Tiago L. C. Gouveia    : GS-ROHF, GS-ROCIS                             
  Yang Guo               : DLPNO-NEVPT2, F12-NEVPT2, CIM, IAO-localization        
  Andreas Hansen         : Spin unrestricted coupled pair/coupled cluster methods 
  Ingolf Harden          : AUTO-CI MPn and infrastructure                
  Benjamin Helmich-Paris : MC-RPA, TRAH-(SCF,CASSCF), AVAS, COSX integrals, SCF dyn. polar. 
  Lee Huntington         : MR-EOM, pCC                                   
  Robert Izsak           : Overlap fitted RIJCOSX, COSX-SCS-MP3, EOM     
  Riya Kayal             : Wick's Theorem for AUTO-CI, AUTO-CI UHF-CCSDT 
  Emily Kempfer          : AUTO-CI, RHF CISDT and CCSDT                  
  Christian Kollmar      : KDIIS, OOCD, Brueckner-CCSD(T), CCSD density, CASPT2, CASPT2-K, improved NEVPT2 
  Axel Koslowski         : Symmetry handling                             
  Simone Kossmann        : meta-GGA functionals, TD-DFT gradient, OOMP2, (MP2 Hessian; deprecated post 5.0) 
  Lucas Lang             : DCDCAS                                        
  Marvin Lechner         : AUTO-CI (C++ implementation), FIC-MRCC        
  Spencer Leger          : CASSCF response                               
  Dagmar Lenk            : GEPOL surface, SMD, ORCA-2-JSON               
  Dimitrios Liakos       : Extrapolation schemes; Compound Job, initial MDCI parallelization 
  Dimitrios Manganas     : Further ROCIS development; embedding schemes. LFT, Crystal Embedding 
  Dimitrios Pantazis     : SARC Basis sets                               
  Anastasios Papadopoulos: AUTO-CI, single reference methods and gradients 
  Taras Petrenko         : pre 6.0 DFT Hessian and TD-DFT gradient, (ASA, deprecated), ECA, 1-Electron XAS/XES, NRVS 
  Peter Pinski           : DLPNO-MP2, DLPNO-MP2 Gradient                 
  Christoph Reimann      : Effective Core Potentials                     
  Marius Retegan         : Local ZFS, SOC                                
  Christoph Riplinger    : Optimizer, TS searches, QM/MM, DLPNO-CCSD(T), (RO)-DLPNO pert. Triples 
  Michael Roemelt        : Original ROCIS implementation                 
  Masaaki Saitow         : Open-shell DLPNO-CCSD energy and density      
  Barbara Sandhoefer     : DKH picture change effects                    
  Kantharuban Sivalingam : CASSCF convergence/infrastructure, NEVPT2 and variants, FIC-MRCI 
  Bernardo de Souza      : ESD, SOC TD-DFT                               
  Georgi L. Stoychev     : AutoAux, RI-MP2 NMR, DLPNO-MP2 response, X2C  
  Van Anh Tran           : RI-MP2 g-tensors                              
  Willem Van den Heuvel  : Paramagnetic NMR                              
  Zikuan Wang            : NOTCH, Electric field optimization            
  Frank Wennmohs         : Technical directorship and infrastructure     
  Hang Xu                : AUTO-CI-Response properties                   
                                                                         
[FACCTs GmbH]                                                            
  Markus Bursch, Miquel Garcia-Rates, Christoph Riplinger, Bernardo de Souza, Georgi L. Stoychev 
                                                                 
  APM, Basis sets (HGBS, AHGBS, def-TZVP (Ac-Lr), def2-XVPD (La-Lu)), CI-OPT, improved COSX, DLPNO-Multilevel,           
  DOCKER, DRACO, updates on ESD, GOAT, IRC, LR-CPCM, MBIS, meta-GGA TD-DFT gradient, ML-optimized integration grids, 
  MM, NACMEs, nearIR, NEB, NEB-TS, NL-DFT gradient (VV10), 2- and 3-layer-ONIOM, interface openCOSMO-RS, QMMM,   
  Crystal-QMMM, SF, symmetry and pop. for TD-DFT, r2SCAN hybrids, SOLVATOR                                   
                                                                         
[Other institutions]                                                     
  V. Asgeirsson          : NEB                                           
  Christoph Bannwarth    : sTDA-DFT, sTD-DFT, PBEh-3c, B97-3c, D3        
  Sebastian Ehlert       : rSCAN, r2SCAN, r2SCAN-3c, D4, dhf basis sets  
  Marvin Friede          : D4 for Fr, Ra, Ac-Lr                          
  Lars Goerigk           : TD-DFT with DH, B97 family of functionals     
  Stefan Grimme          : VdW corrections, initial TS optimization, DFT functionals, gCP, sTDA/sTD-DF 
  Waldemar Hujo          : DFT-NL                                        
  H. Jonsson             : NEB                                           
  Holger Kruse           : gCP                                           
  Marcel Mueller         : wB97X-3c, vDZP basis set                      
  Hagen Neugebauer       : wr2SCAN                                       
  Tobias Risthaus        : range-separated hybrid DFT                    
  Lukas Wittmann         : regularized MP2, r2SCAN double-hybrids, wr2SCAN        
                                                                         
We gratefully acknowledge several colleagues who have allowed us to      
interface, adapt or use parts of their codes:                            
  Ed Valeev, F. Pavosevic, A. Kumar             : LibInt (2-el integral package), F12 methods 
  Garnet Chan, S. Sharma, J. Yang, R. Olivares  : DMRG                   
  Ulf Ekstrom                                   : XCFun DFT Library      
  Mihaly Kallay                                 : mrcc  (arbitrary order and MRCC methods)
  Frank Weinhold                                : gennbo (NPA and NBO analysis)           
  Simon Mueller                                 : openCOSMO-RS                            
  Christopher J. Cramer and Donald G. Truhlar   : smd solvation model                     
  S Lehtola, MJT Oliveira, MAL Marques          : LibXC Library                           
  Liviu Ungur et al                             : ANISO software                          


 Your calculation uses the libint2 library for the computation of 2-el integrals
 For citations please refer to: http://libint.valeyev.net

 Your ORCA version has been built with support for libXC version: 6.2.2
 For citations please refer to: https://libxc.gitlab.io

 This ORCA versions uses:
   CBLAS   interface :  Fast vector & matrix operations
   LAPACKE interface :  Fast linear algebra routines
   SCALAPACK package :  Parallel linear algebra routines
   Shared memory     :  Shared parallel matrices
   BLAS/LAPACK       :  OpenBLAS 0.3.27  USE64BITINT DYNAMIC_ARCH NO_AFFINITY Zen SINGLE_THREADED
        Core in use  :  Zen
   Copyright (c) 2011-2014, The OpenBLAS Project


Your calculation utilizes the geometrical counterpoise correction gCP
Please cite in your paper:
H.Kruse, S. Grimme J.Chem.Phys., 136, (2012), 154101 
   

Your calculation utilizes the atom-pairwise dispersion correction
based on EEQ partial charges (D4)


================================================================================

----- Orbital basis set information -----
Your calculation utilizes the basis: def2-SV(P)
   F. Weigend and R. Ahlrichs, Phys. Chem. Chem. Phys. 7, 3297 (2005).

----- AuxJ basis set information -----
Your calculation utilizes the auxiliary basis: def2/J
   F. Weigend, Phys. Chem. Chem. Phys. 8, 1057 (2006).

================================================================================
                                        WARNINGS
                       Please study these warnings very carefully!
================================================================================


================================================================================
                                       INPUT FILE
================================================================================
NAME = sp.inp
|  1> ! pbe def2-sv(p) def2/J RI DEFGRID1 loosescf d4 GCP(DFT/SV(P)) printgap
|  2> %output
|  3>     printlevel normal
|  4> end
|  5> * xyz 0 1
|  6> C -2.5854249027 0.5984821921 0.0011998433
|  7> C -1.2337084948 -0.0545602461 0.0001099514
|  8> C -1.1483754123 -1.4430737548 -0.0003614738
|  9> C 0.0752893185 -2.0824575488 -0.0006392875
| 10> C 1.2404687246 -1.3379248433 8.26962e-05
| 11> C 1.1687447965 0.0465401669 0.0002487916
| 12> C -0.0661188154 0.7046247618 -0.0007632502
| 13> C -0.0476524543 2.2038777812 -0.0012290564
| 14> O 2.2963339958 0.818046204 0.0009258393
| 15> H -2.71968954 1.2100968703 -0.8901789339
| 16> H -3.3686435223 -0.1548573782 0.0189324996
| 17> H -2.7057946273 1.2379129173 0.8745245427
| 18> H -2.0558373018 -2.029024979 -0.0002500982
| 19> H 0.1264879179 -3.1610110756 -0.0009735189
| 20> H 2.2063314369 -1.8267565614 0.0005387382
| 21> H 0.457545302 2.5636288447 0.894410256
| 22> H 0.5246778496 2.5610197871 -0.8563408675
| 23> H -1.0445298461 2.6274708307 -0.0397252795
| 24> H 3.0728795518 0.2463087808 0.0004749251
| 25> *
| 26> 
| 27>                          ****END OF INPUT****
================================================================================

                       ****************************
                       * Single Point Calculation *
                       ****************************

---------------------------------
CARTESIAN COORDINATES (ANGSTROEM)
---------------------------------
  C     -2.585425    0.598482    0.001200
  C     -1.233708   -0.054560    0.000110
  C     -1.148375   -1.443074   -0.000361
  C      0.075289   -2.082458   -0.000639
  C      1.240469   -1.337925    0.000083
  C      1.168745    0.046540    0.000249
  C     -0.066119    0.704625   -0.000763
  C     -0.047652    2.203878   -0.001229
  O      2.296334    0.818046    0.000926
  H     -2.719690    1.210097   -0.890179
  H     -3.368644   -0.154857    0.018932
  H     -2.705795    1.237913    0.874525
  H     -2.055837   -2.029025   -0.000250
  H      0.126488   -3.161011   -0.000974
  H      2.206331   -1.826757    0.000539
  H      0.457545    2.563629    0.894410
  H      0.524678    2.561020   -0.856341
  H     -1.044530    2.627471   -0.039725
  H      3.072880    0.246309    0.000475

----------------------------
CARTESIAN COORDINATES (A.U.)
----------------------------
  NO LB      ZA    FRAG     MASS         X           Y           Z
   0 C     6.0000    0    12.011   -4.885745    1.130967    0.002267
   1 C     6.0000    0    12.011   -2.331371   -0.103104    0.000208
   2 C     6.0000    0    12.011   -2.170115   -2.727014   -0.000683
   3 C     6.0000    0    12.011    0.142276   -3.935274   -0.001208
   4 C     6.0000    0    12.011    2.344146   -2.528312    0.000156
   5 C     6.0000    0    12.011    2.208608    0.087948    0.000470
   6 C     6.0000    0    12.011   -0.124946    1.331548   -0.001442
   7 C     6.0000    0    12.011   -0.090050    4.164725   -0.002323
   8 O     8.0000    0    15.999    4.339442    1.545883    0.001750
   9 H     1.0000    0     1.008   -5.139468    2.286752   -1.682194
  10 H     1.0000    0     1.008   -6.365814   -0.292638    0.035777
  11 H     1.0000    0     1.008   -5.113211    2.339316    1.652612
  12 H     1.0000    0     1.008   -3.884969   -3.834302   -0.000473
  13 H     1.0000    0     1.008    0.239028   -5.973445   -0.001840
  14 H     1.0000    0     1.008    4.169362   -3.452070    0.001018
  15 H     1.0000    0     1.008    0.864635    4.844556    1.690190
  16 H     1.0000    0     1.008    0.991497    4.839626   -1.618250
  17 H     1.0000    0     1.008   -1.973875    4.965200   -0.075070
  18 H     1.0000    0     1.008    5.806901    0.465456    0.000897

--------------------------------
INTERNAL COORDINATES (ANGSTROEM)
--------------------------------
 C      0   0   0     0.000000000000     0.00000000     0.00000000
 C      1   0   0     1.501200473401     0.00000000     0.00000000
 C      2   1   0     1.391133250646   119.30293560     0.00000000
 C      3   2   1     1.380640100321   121.10453837   180.03505366
 C      4   3   2     1.382740944363   119.83423595     0.02537839
 C      5   4   3     1.386321648795   119.61235819   359.96044494
 C      2   1   3     1.392705388136   121.18130563   179.98426522
 C      7   2   1     1.499366812907   123.73823297   359.97570591
 O      6   5   4     1.366264771577   121.41463467   180.00143240
 H      1   2   3     1.089337244319   110.77059316   241.09482919
 H      1   2   3     1.086860782882   110.32573532     0.98043965
 H      1   2   3     1.089062235831   110.82505670   120.94191792
 H      3   2   1     1.080197172020   119.33369276     0.00000000
 H      4   3   2     1.079768085500   120.30553997   179.99808341
 H      5   4   3     1.082519023208   120.57764264   179.95919302
 H      8   7   2     1.089410564744   109.61245568   119.17401646
 H      8   7   2     1.089187127459   109.54751405   236.37666053
 H      8   7   2     1.083825431082   112.30176997   357.77583970
 H      9   6   5     0.964316796989   109.25708463     0.04759576

---------------------------
INTERNAL COORDINATES (A.U.)
---------------------------
 C      0   0   0     0.000000000000     0.00000000     0.00000000
 C      1   0   0     2.836857766842     0.00000000     0.00000000
 C      2   1   0     2.628860859513   119.30293560     0.00000000
 C      3   2   1     2.609031679116   121.10453837   180.03505366
 C      4   3   2     2.613001699007   119.83423595     0.02537839
 C      5   4   3     2.619768249749   119.61235819   359.96044494
 C      2   1   3     2.631831768813   121.18130563   179.98426522
 C      7   2   1     2.833392650685   123.73823297   359.97570591
 O      6   5   4     2.581866244706   121.41463467   180.00143240
 H      1   2   3     2.058549059244   110.77059316   241.09482919
 H      1   2   3     2.053869225347   110.32573532     0.98043965
 H      1   2   3     2.058029368516   110.82505670   120.94191792
 H      3   2   1     2.041276825755   119.33369276     0.00000000
 H      4   3   2     2.040465969743   120.30553997   179.99808341
 H      5   4   3     2.045664488622   120.57764264   179.95919302
 H      8   7   2     2.058687614767   109.61245568   119.17401646
 H      8   7   2     2.058265379491   109.54751405   236.37666053
 H      8   7   2     2.048133241724   112.30176997   357.77583970
 H      9   6   5     1.822294652649   109.25708463     0.04759576

---------------------
BASIS SET INFORMATION
---------------------
There are 3 groups of distinct atoms

 Group   1 Type C   : 7s4p1d contracted to 3s2p1d pattern {511/31/1}
 Group   2 Type O   : 7s4p1d contracted to 3s2p1d pattern {511/31/1}
 Group   3 Type H   : 4s contracted to 2s pattern {31}

Atom   0C    basis set group =>   1
Atom   1C    basis set group =>   1
Atom   2C    basis set group =>   1
Atom   3C    basis set group =>   1
Atom   4C    basis set group =>   1
Atom   5C    basis set group =>   1
Atom   6C    basis set group =>   1
Atom   7C    basis set group =>   1
Atom   8O    basis set group =>   2
Atom   9H    basis set group =>   3
Atom  10H    basis set group =>   3
Atom  11H    basis set group =>   3
Atom  12H    basis set group =>   3
Atom  13H    basis set group =>   3
Atom  14H    basis set group =>   3
Atom  15H    basis set group =>   3
Atom  16H    basis set group =>   3
Atom  17H    basis set group =>   3
Atom  18H    basis set group =>   3
---------------------------------
AUXILIARY/J BASIS SET INFORMATION
---------------------------------
There are 3 groups of distinct atoms

 Group   1 Type C   : 12s5p4d2f1g contracted to 6s4p3d1f1g pattern {711111/2111/211/2/1}
 Group   2 Type O   : 12s5p4d2f1g contracted to 6s4p3d1f1g pattern {711111/2111/211/2/1}
 Group   3 Type H   : 5s2p1d contracted to 3s1p1d pattern {311/2/1}

Atom   0C    basis set group =>   1
Atom   1C    basis set group =>   1
Atom   2C    basis set group =>   1
Atom   3C    basis set group =>   1
Atom   4C    basis set group =>   1
Atom   5C    basis set group =>   1
Atom   6C    basis set group =>   1
Atom   7C    basis set group =>   1
Atom   8O    basis set group =>   2
Atom   9H    basis set group =>   3
Atom  10H    basis set group =>   3
Atom  11H    basis set group =>   3
Atom  12H    basis set group =>   3
Atom  13H    basis set group =>   3
Atom  14H    basis set group =>   3
Atom  15H    basis set group =>   3
Atom  16H    basis set group =>   3
Atom  17H    basis set group =>   3
Atom  18H    basis set group =>   3
------------------------------------------------------------------------------
                             ORCA STARTUP CALCULATIONS
                           -- RI-GTO INTEGRALS CHOSEN --
------------------------------------------------------------------------------
------------------------------------------------------------------------------
                   ___                                                        
                  /   \      - P O W E R E D   B Y -                         
                 /     \                                                     
                 |  |  |   _    _      __       _____    __    __             
                 |  |  |  | |  | |    /  \     |  _  \  |  |  /  |          
                  \  \/   | |  | |   /    \    | | | |  |  | /  /          
                 / \  \   | |__| |  /  /\  \   | |_| |  |  |/  /          
                |  |  |   |  __  | /  /__\  \  |    /   |      \           
                |  |  |   | |  | | |   __   |  |    \   |  |\   \          
                \     /   | |  | | |  |  |  |  | |\  \  |  | \   \       
                 \___/    |_|  |_| |__|  |__|  |_| \__\ |__|  \__/        
                                                                              
                      - O R C A' S   B I G   F R I E N D -                    
                                      &                                       
                       - I N T E G R A L  F E E D E R -                       
                                                                              
 v1 FN, 2020, v2 2021, v3 2022-2024                                           
------------------------------------------------------------------------------


----------------------
SHARK INTEGRAL PACKAGE
----------------------

Number of atoms                             ...     19
Number of basis functions                   ...    146
Number of shells                            ...     74
Maximum angular momentum                    ...      2
Integral batch strategy                     ... SHARK/LIBINT Hybrid
RI-J (if used) integral strategy            ... SPLIT-RIJ (Revised 2003 algorithm where possible)
Printlevel                                  ...      1
Contraction scheme used                     ... SEGMENTED contraction
Prescreening option                         ... SCHWARTZ
   Thresh                                   ... 1.000e-09
   Tcut                                     ... 1.000e-10
   Tpresel                                  ... 1.000e-10 
Coulomb Range Separation                    ... NOT USED
Exchange Range Separation                   ... NOT USED
Multipole approximations                    ... NOT USED
Finite Nucleus Model                        ... NOT USED
CABS basis                                  ... NOT available
Auxiliary Coulomb fitting basis             ... AVAILABLE
   # of basis functions in Aux-J            ...    551
   # of shells in Aux-J                     ...    185
   Maximum angular momentum in Aux-J        ...      4
Auxiliary J/K fitting basis                 ... NOT available
Auxiliary Correlation fitting basis         ... NOT available
Auxiliary 'external' fitting basis          ... NOT available

Checking pre-screening integrals            ... done (  0.0 sec) Dimension = 74
Check shell pair data                       ... done (  0.0 sec)
Shell pair information
Shell pair cut-off parameter TPreSel        ...   1.0e-10
Total number of shell pairs                 ...      2775
Shell pairs after pre-screening             ...      2626
Total number of primitive shell pairs       ...     11173
Primitive shell pairs kept                  ...      7401
          la=0 lb=0:   1041 shell pairs
          la=1 lb=0:    817 shell pairs
          la=1 lb=1:    170 shell pairs
          la=2 lb=0:    394 shell pairs
          la=2 lb=1:    160 shell pairs
          la=2 lb=2:     44 shell pairs

Calculating one electron integrals          ... done (  0.0 sec)
Calculating RI/J V-Matrix + Cholesky decomp.... done (  0.0 sec)
Calculating Nuclear repulsion               ... done (  0.0 sec) ENN=    433.202244937979 Eh

Diagonalization of the overlap matrix:
Smallest eigenvalue                        ... 2.154e-04
Time for diagonalization                   ...    0.001 sec
Threshold for overlap eigenvalues          ... 1.000e-07
Number of eigenvalues below threshold      ... 0
Time for construction of square roots      ...    0.000 sec
Total time needed                          ...    0.003 sec

-------------------
DFT GRID GENERATION
-------------------

General Integration Accuracy     IntAcc      ... 4.159
Radial Grid Type                 RadialGrid  ... OptM3 with GC (2021)
Angular Grid (max. ang.)         AngularGrid ... 3 (Lebedev-194)
Angular grid pruning method      GridPruning ... 4 (adaptive)
Weight generation scheme         WeightScheme... mBecke (2022)
Basis function cutoff            BFCut       ... 1.0000e-10
Integration weight cutoff        WCut        ... 1.0000e-14
Partially contracted basis set               ... off
Rotationally invariant grid construction     ... off
Angular grids for H and He will be reduced by one unit

Total number of grid points                  ...    43348
Total number of batches                      ...      688
Average number of points per batch           ...       63
Average number of grid points per atom       ...     2281
Initializing property integral containers    ... done (  0.0 sec)

SHARK setup successfully completed in   0.3 seconds

Maximum memory used throughout the entire STARTUP-calculation: 21.7 MB
-------------------------------------------------------------------------------
                                 ORCA GUESS
                   Start orbitals & Density for SCF / CASSCF
-------------------------------------------------------------------------------

------------
SCF SETTINGS
------------
Hamiltonian:
 Density Functional     Method          .... DFT(GTOs)
 Exchange Functional    Exchange        .... PBE
   PBE kappa parameter   XKappa         ....  0.804000
   PBE mue parameter    XMuePBE         ....  0.219520
 Correlation Functional Correlation     .... PBE
   PBE beta parameter  CBetaPBE         ....  0.066725
 LDA part of GGA corr.  LDAOpt          .... PW91-LDA
 Gradients option       PostSCFGGA      .... off
   NL short-range parameter             ....  6.400000
 RI-approximation to the Coulomb term is turned on
   Number of AuxJ basis functions       .... 551


General Settings:
 Integral files         IntName         .... sp
 Hartree-Fock type      HFTyp           .... RHF
 Total Charge           Charge          ....    0
 Multiplicity           Mult            ....    1
 Number of Electrons    NEL             ....   66
 Basis Dimension        Dim             ....  146
 Nuclear Repulsion      ENuc            ....    433.2022449380 Eh

Convergence Acceleration:
 AO-DIIS                CNVDIIS         .... on
   Start iteration      DIISMaxIt       ....    12
   Startup error        DIISStart       ....  0.200000
   # of expansion vecs  DIISMaxEq       ....     5
   Bias factor          DIISBfac        ....   1.050
   Max. coefficient     DIISMaxC        ....  10.000
 MO-DIIS                CNVKDIIS        .... off
 Trust-Rad. Augm. Hess. CNVTRAH         .... auto
   Auto Start mean grad. ratio tolernc. ....  1.125000
   Auto Start start iteration           ....    50
   Auto Start num. interpolation iter.  ....    10
   Max. Number of Micro iterations      ....    24
   Max. Number of Macro iterations      .... Maxiter - #DIIS iter
   Number of Davidson start vectors     ....     2
   Converg. threshold    (grad. norm)   ....   1.000e-04
   Grad. Scal. Fac. for Micro threshold ....   0.100
   Minimum threshold for Micro iter.    ....   1.000e-02
   NR start threshold (gradient norm)   ....   1.000e-04
   Initial trust radius                 ....   0.400
   Minimum AH scaling param. (alpha)    ....   1.000
   Maximum AH scaling param. (alpha)    .... 1000.000
   Quad. conv. algorithm                .... NR
   White noise on init. David. guess    .... on
   Maximum white noise                  ....   0.010
   Pseudo random numbers                .... off
   Inactive MOs                         .... canonical
   Orbital update algorithm             .... Taylor
   Preconditioner                       .... Diag
   Full preconditioner red. dimension   ....   250
 SOSCF                  CNVSOSCF        .... on
   Start iteration      SOSCFMaxIt      ....   150
   Startup grad/error   SOSCFStart      ....  0.003300
   Hessian update       SOSCFHessUp     .... L-BFGS
 Level Shifting         CNVShift        .... on
   Level shift para.    LevelShift      ....    0.2500
   Turn off err/grad.   ShiftErr        ....    0.0010
 Zerner damping         CNVZerner       .... off
 Static damping         CNVDamp         .... on
   Fraction old density DampFac         ....    0.7000
   Max. Damping (<1)    DampMax         ....    0.9800
   Min. Damping (>=0)   DampMin         ....    0.0000
   Turn off err/grad.   DampErr         ....    0.1000

SCF Procedure:
 Maximum # iterations   MaxIter         ....   125
 SCF integral mode      SCFMode         .... Direct
   Integral package                     .... SHARK and LIBINT hybrid scheme
 Reset frequency        DirectResetFreq ....    20
 Integral Threshold     Thresh          ....  1.000e-09 Eh
 Primitive CutOff       TCut            ....  1.000e-10 Eh

Convergence Tolerance:
 Convergence Check Mode ConvCheckMode   .... Total+1el-Energy
 Convergence forced     ConvForced      .... 0
 Energy Change          TolE            ....  1.000e-05 Eh
 1-El. energy change                    ....  1.000e-02 Eh
 Orbital Gradient       TolG            ....  1.000e-04
 Orbital Rotation angle TolX            ....  1.000e-04
 DIIS Error             TolErr          ....  5.000e-04

------------------------------
INITIAL GUESS: MODEL POTENTIAL
------------------------------
Loading Hartree-Fock densities                     ... done
Calculating cut-offs                               ... done
Initializing the effective Hamiltonian             ... done
Setting up the integral package (SHARK)            ... done
Starting the Coulomb interaction                   ... done (   0.1 sec)
Making the grid                                    ... done (   0.1 sec)
Mapping shells                                     ... done
Starting the XC term evaluation                    ... done (   0.1 sec)
  promolecular density results
     # of electrons  =     65.990845089
     EX              =    -52.058829255
     EC              =     -2.186080736
     EX+EC           =    -54.244909991
Transforming the Hamiltonian                       ... done (   0.0 sec)
Diagonalizing the Hamiltonian                      ... done (   0.0 sec)
Back transforming the eigenvectors                 ... done (   0.0 sec)
Now organizing SCF variables                       ... done
                      ------------------
                      INITIAL GUESS DONE (   0.3 sec)
                      ------------------
             **** ENERGY FILE WAS UPDATED (sp.en.tmp) ****
Finished Guess after   0.3 sec
Maximum memory used throughout the entire GUESS-calculation: 16.9 MB

-------------------------------------------------------------------------------------------
                                      ORCA LEAN-SCF
                              memory conserving SCF solver
-------------------------------------------------------------------------------------------

----------------------------------------D-I-I-S--------------------------------------------
Iteration    Energy (Eh)           Delta-E    RMSDP     MaxDP     DIISErr   Damp  Time(sec)
-------------------------------------------------------------------------------------------
               ***  Starting incremental Fock matrix formation  ***
    1    -385.0837932021543111     0.00e+00  4.41e-03  7.81e-02  1.76e-01  0.700   0.4
    2    -385.1880323481498181    -1.04e-01  3.16e-03  4.57e-02  7.73e-02  0.700   0.3
                               ***Turning on AO-DIIS***
    3    -385.2263477385812394    -3.83e-02  1.22e-03  1.42e-02  2.42e-02  0.700   0.3
    4    -385.2485020711327479    -2.22e-02  1.87e-03  2.36e-02  1.04e-02  0.000   0.3
    5    -385.2979150990911421    -4.94e-02  5.35e-04  6.69e-03  9.27e-03  0.000   0.3
                              *** Initializing SOSCF ***
---------------------------------------S-O-S-C-F--------------------------------------
Iteration    Energy (Eh)           Delta-E    RMSDP     MaxDP     MaxGrad    Time(sec)
--------------------------------------------------------------------------------------
    6    -385.2983346256312416    -4.20e-04  1.85e-04  2.55e-03  1.99e-03     0.3
               *** Restarting incremental Fock matrix formation ***
    7    -385.2983713091585969    -3.67e-05  1.11e-04  1.54e-03  2.46e-04     0.3
    8    -385.2983679879633883     3.32e-06  4.99e-05  1.06e-03  7.23e-04     0.3
                 **** Energy Check signals convergence ****

               *****************************************************
               *                     SUCCESS                       *
               *           SCF CONVERGED AFTER   8 CYCLES          *
               *****************************************************

             **** ENERGY FILE WAS UPDATED (sp.en.tmp) ****

----------------
TOTAL SCF ENERGY
----------------

Total Energy       :       -385.29836798796339 Eh          -10484.50161 eV

Components:
Nuclear Repulsion  :        433.20224493797946 Eh           11788.03238 eV
Electronic Energy  :       -818.50061292594285 Eh          -22272.53399 eV
One Electron Energy:      -1380.07094977173938 Eh          -37553.63973 eV
Two Electron Energy:        561.57033684579653 Eh           15281.10574 eV

Virial components:
Potential Energy   :       -767.34528664670006 Eh          -20880.52680 eV
Kinetic Energy     :        382.04691865873662 Eh           10396.02518 eV
Virial Ratio       :          2.00851060215494

DFT components:
N(Alpha)           :       33.000165008244 electrons
N(Beta)            :       33.000165008244 electrons
N(Total)           :       66.000330016488 electrons
E(X)               :      -53.054511994074 Eh       
E(C)               :       -2.202003178182 Eh       
E(XC)              :      -55.256515172256 Eh       

---------------
SCF CONVERGENCE
---------------

  Last Energy change         ...   -3.3212e-06  Tolerance :   1.0000e-05
  Last MAX-Density change    ...    1.0563e-03  Tolerance :   1.0000e-03
  Last RMS-Density change    ...    4.9891e-05  Tolerance :   1.0000e-04
  Last DIIS Error            ...    1.9934e-03  Tolerance :   5.0000e-04
  Last Orbital Gradient      ...    7.2269e-04  Tolerance :   1.0000e-04
  Last Orbital Rotation      ...    1.4532e-03  Tolerance :   1.0000e-04


----------------
ORBITAL ENERGIES
----------------

  NO   OCC          E(Eh)            E(eV) 
   0   2.0000     -18.778779      -510.9966 
   1   2.0000      -9.942540      -270.5503 
   2   2.0000      -9.895589      -269.2727 
   3   2.0000      -9.889900      -269.1179 
   4   2.0000      -9.884848      -268.9804 
   5   2.0000      -9.883441      -268.9421 
   6   2.0000      -9.879651      -268.8390 
   7   2.0000      -9.876234      -268.7460 
   8   2.0000      -9.874269      -268.6925 
   9   2.0000      -0.960413       -26.1342 
  10   2.0000      -0.771119       -20.9832 
  11   2.0000      -0.697275       -18.9738 
  12   2.0000      -0.677613       -18.4388 
  13   2.0000      -0.618439       -16.8286 
  14   2.0000      -0.599533       -16.3141 
  15   2.0000      -0.551115       -14.9966 
  16   2.0000      -0.515429       -14.0255 
  17   2.0000      -0.469000       -12.7621 
  18   2.0000      -0.433645       -11.8001 
  19   2.0000      -0.427269       -11.6266 
  20   2.0000      -0.387887       -10.5549 
  21   2.0000      -0.374281       -10.1847 
  22   2.0000      -0.361090        -9.8258 
  23   2.0000      -0.356193        -9.6925 
  24   2.0000      -0.347357        -9.4521 
  25   2.0000      -0.340631        -9.2690 
  26   2.0000      -0.335588        -9.1318 
  27   2.0000      -0.322249        -8.7689 
  28   2.0000      -0.299826        -8.1587 
  29   2.0000      -0.284691        -7.7468 
  30   2.0000      -0.283096        -7.7034 
  31   2.0000      -0.209350        -5.6967 
  32   2.0000      -0.187555        -5.1036 
  33   0.0000      -0.025304        -0.6886 
  34   0.0000      -0.010637        -0.2895 
  35   0.0000       0.024287         0.6609 
  36   0.0000       0.052183         1.4200 
  37   0.0000       0.056408         1.5350 
  38   0.0000       0.088894         2.4189 
  39   0.0000       0.099014         2.6943 
  40   0.0000       0.100193         2.7264 
  41   0.0000       0.120662         3.2834 
  42   0.0000       0.127518         3.4699 
  43   0.0000       0.137646         3.7455 
*Only the first 10 virtual orbitals were printed.

                    ********************************
                    * MULLIKEN POPULATION ANALYSIS *
                    ********************************

-----------------------
MULLIKEN ATOMIC CHARGES
-----------------------
   0 C :   -0.237715
   1 C :   -0.022744
   2 C :   -0.130429
   3 C :   -0.046265
   4 C :   -0.165294
   5 C :    0.177031
   6 C :   -0.091188
   7 C :   -0.206186
   8 O :   -0.338157
   9 H :    0.118150
  10 H :    0.098879
  11 H :    0.117417
  12 H :    0.027026
  13 H :    0.045163
  14 H :    0.019520
  15 H :    0.113552
  16 H :    0.113519
  17 H :    0.092640
  18 H :    0.315081
Sum of atomic charges:   -0.0000000

--------------------------------
MULLIKEN REDUCED ORBITAL CHARGES
--------------------------------
  0 C s       :     3.019902  s :     3.019902
      pz      :     1.064063  p :     3.188905
      px      :     1.055919
      py      :     1.068923
      dz2     :     0.005093  d :     0.028907
      dxz     :     0.003160
      dyz     :     0.008486
      dx2y2   :     0.004188
      dxy     :     0.007980

  1 C s       :     3.060812  s :     3.060812
      pz      :     0.980267  p :     2.919829
      px      :     1.035857
      py      :     0.903705
      dz2     :     0.002694  d :     0.042103
      dxz     :     0.006313
      dyz     :     0.007294
      dx2y2   :     0.012855
      dxy     :     0.012947

  2 C s       :     3.256958  s :     3.256958
      pz      :     1.046217  p :     2.838939
      px      :     0.812978
      py      :     0.979745
      dz2     :     0.003175  d :     0.034532
      dxz     :     0.003277
      dyz     :     0.005120
      dx2y2   :     0.010007
      dxy     :     0.012954

  3 C s       :     3.188266  s :     3.188266
      pz      :     0.996000  p :     2.821961
      px      :     0.987102
      py      :     0.838859
      dz2     :     0.003129  d :     0.036037
      dxz     :     0.007887
      dyz     :     0.001950
      dx2y2   :     0.013945
      dxy     :     0.009126

  4 C s       :     3.261377  s :     3.261377
      pz      :     1.090393  p :     2.870871
      px      :     0.804337
      py      :     0.976141
      dz2     :     0.003317  d :     0.033045
      dxz     :     0.002876
      dyz     :     0.005697
      dx2y2   :     0.011608
      dxy     :     0.009548

  5 C s       :     2.968266  s :     2.968266
      pz      :     0.990565  p :     2.783298
      px      :     0.918541
      py      :     0.874192
      dz2     :     0.004987  d :     0.071404
      dxz     :     0.013323
      dyz     :     0.010344
      dx2y2   :     0.019503
      dxy     :     0.023247

  6 C s       :     3.101316  s :     3.101316
      pz      :     1.035765  p :     2.950839
      px      :     0.962916
      py      :     0.952159
      dz2     :     0.002786  d :     0.039034
      dxz     :     0.005809
      dyz     :     0.006647
      dx2y2   :     0.011019
      dxy     :     0.012773

  7 C s       :     3.005267  s :     3.005267
      pz      :     1.079892  p :     3.171970
      px      :     1.043405
      py      :     1.048674
      dz2     :     0.005100  d :     0.028949
      dxz     :     0.005353
      dyz     :     0.006410
      dx2y2   :     0.005958
      dxy     :     0.006127

  8 O s       :     3.750397  s :     3.750397
      pz      :     1.827752  p :     4.571418
      px      :     1.191987
      py      :     1.551678
      dz2     :     0.002752  d :     0.016342
      dxz     :     0.001107
      dyz     :     0.001919
      dx2y2   :     0.001850
      dxy     :     0.008714

  9 H s       :     0.881850  s :     0.881850

 10 H s       :     0.901121  s :     0.901121

 11 H s       :     0.882583  s :     0.882583

 12 H s       :     0.972974  s :     0.972974

 13 H s       :     0.954837  s :     0.954837

 14 H s       :     0.980480  s :     0.980480

 15 H s       :     0.886448  s :     0.886448

 16 H s       :     0.886481  s :     0.886481

 17 H s       :     0.907360  s :     0.907360

 18 H s       :     0.684919  s :     0.684919


------------------------
MULLIKEN OVERLAP CHARGES
------------------------
B(  0-C ,  1-C ) :   0.8803 B(  0-C ,  2-C ) :  -0.2138 B(  0-C ,  6-C ) :  -0.2221 
B(  0-C ,  7-C ) :  -0.0577 B(  0-C ,  9-H ) :   0.6979 B(  0-C , 10-H ) :   0.7063 
B(  0-C , 11-H ) :   0.6983 B(  0-C , 12-H ) :  -0.0510 B(  1-C ,  2-C ) :   0.4644 
B(  1-C ,  3-C ) :   0.3373 B(  1-C ,  4-C ) :  -0.3730 B(  1-C ,  5-C ) :   0.2725 
B(  1-C ,  6-C ) :   0.5581 B(  1-C ,  7-C ) :  -0.1838 B(  1-C , 12-H ) :  -0.1641 
B(  1-C , 17-H ) :  -0.0556 B(  2-C ,  3-C ) :   0.3286 B(  2-C ,  4-C ) :   0.3164 
B(  2-C ,  5-C ) :  -0.4072 B(  2-C ,  6-C ) :   0.2450 B(  2-C , 12-H ) :   0.8718 
B(  2-C , 13-H ) :  -0.1783 B(  3-C ,  4-C ) :   0.2133 B(  3-C ,  5-C ) :   0.4010 
B(  3-C ,  6-C ) :  -0.3357 B(  3-C , 12-H ) :  -0.1951 B(  3-C , 13-H ) :   0.8815 
B(  3-C , 14-H ) :  -0.1497 B(  4-C ,  5-C ) :   0.3169 B(  4-C ,  6-C ) :   0.0745 
B(  4-C ,  8-O ) :  -0.1755 B(  4-C , 13-H ) :  -0.1816 B(  4-C , 14-H ) :   0.8369 
B(  5-C ,  6-C ) :   0.1889 B(  5-C ,  7-C ) :  -0.1721 B(  5-C ,  8-O ) :   0.8946 
B(  5-C , 14-H ) :  -0.2004 B(  5-C , 18-H ) :  -0.0745 B(  6-C ,  7-C ) :   0.7910 
B(  6-C ,  8-O ) :  -0.2267 B(  7-C , 15-H ) :   0.7134 B(  7-C , 16-H ) :   0.7115 
B(  7-C , 17-H ) :   0.6998 B(  8-O , 18-H ) :   0.5362 B(  9-H , 11-H ) :  -0.0541 



                     *******************************
                     * LOEWDIN POPULATION ANALYSIS *
                     *******************************

----------------------
LOEWDIN ATOMIC CHARGES
----------------------
   0 C :   -0.323114
   1 C :   -0.043172
   2 C :   -0.149787
   3 C :   -0.122737
   4 C :   -0.182254
   5 C :    0.025495
   6 C :   -0.072036
   7 C :   -0.322528
   8 O :   -0.236979
   9 H :    0.130865
  10 H :    0.123991
  11 H :    0.130534
  12 H :    0.118180
  13 H :    0.122062
  14 H :    0.117151
  15 H :    0.133342
  16 H :    0.133105
  17 H :    0.121180
  18 H :    0.296703

-------------------------------
LOEWDIN REDUCED ORBITAL CHARGES
-------------------------------
  0 C s       :     2.935570  s :     2.935570
      pz      :     1.122855  p :     3.316802
      px      :     1.077556
      py      :     1.116390
      dz2     :     0.013122  d :     0.070742
      dxz     :     0.006287
      dyz     :     0.020716
      dx2y2   :     0.010011
      dxy     :     0.020606

  1 C s       :     2.848547  s :     2.848547
      pz      :     0.962819  p :     3.084052
      px      :     1.045358
      py      :     1.075875
      dz2     :     0.007065  d :     0.110574
      dxz     :     0.012443
      dyz     :     0.015094
      dx2y2   :     0.037970
      dxy     :     0.038001

  2 C s       :     2.887096  s :     2.887096
      pz      :     1.038372  p :     3.170960
      px      :     1.065691
      py      :     1.066898
      dz2     :     0.007144  d :     0.091731
      dxz     :     0.006467
      dyz     :     0.011075
      dx2y2   :     0.030339
      dxy     :     0.036706

  3 C s       :     2.886887  s :     2.886887
      pz      :     0.989243  p :     3.141021
      px      :     1.091101
      py      :     1.060678
      dz2     :     0.007147  d :     0.094828
      dxz     :     0.017794
      dyz     :     0.003268
      dx2y2   :     0.038010
      dxy     :     0.028610

  4 C s       :     2.890032  s :     2.890032
      pz      :     1.071008  p :     3.202366
      px      :     1.066964
      py      :     1.064394
      dz2     :     0.007583  d :     0.089856
      dxz     :     0.005520
      dyz     :     0.012170
      dx2y2   :     0.034342
      dxy     :     0.030241

  5 C s       :     2.838485  s :     2.838485
      pz      :     0.980216  p :     2.965225
      px      :     0.945177
      py      :     1.039832
      dz2     :     0.011347  d :     0.170795
      dxz     :     0.027132
      dyz     :     0.021330
      dx2y2   :     0.050372
      dxy     :     0.060615

  6 C s       :     2.849030  s :     2.849030
      pz      :     1.015421  p :     3.118080
      px      :     1.060674
      py      :     1.041985
      dz2     :     0.007350  d :     0.104926
      dxz     :     0.012233
      dyz     :     0.012054
      dx2y2   :     0.035513
      dxy     :     0.037777

  7 C s       :     2.930034  s :     2.930034
      pz      :     1.131201  p :     3.321157
      px      :     1.121263
      py      :     1.068692
      dz2     :     0.013225  d :     0.071336
      dxz     :     0.012851
      dyz     :     0.014384
      dx2y2   :     0.016628
      dxy     :     0.014249

  8 O s       :     3.510076  s :     3.510076
      pz      :     1.820930  p :     4.698173
      px      :     1.261532
      py      :     1.615710
      dz2     :     0.004476  d :     0.028731
      dxz     :     0.002173
      dyz     :     0.002165
      dx2y2   :     0.003736
      dxy     :     0.016181

  9 H s       :     0.869135  s :     0.869135

 10 H s       :     0.876009  s :     0.876009

 11 H s       :     0.869466  s :     0.869466

 12 H s       :     0.881820  s :     0.881820

 13 H s       :     0.877938  s :     0.877938

 14 H s       :     0.882849  s :     0.882849

 15 H s       :     0.866658  s :     0.866658

 16 H s       :     0.866895  s :     0.866895

 17 H s       :     0.878820  s :     0.878820

 18 H s       :     0.703297  s :     0.703297


---------------------------------
LOEWDIN BOND ORDERS (THRESH 0.050000)
---------------------------------
B(  0-C ,  1-C ) :   1.0914 B(  0-C ,  2-C ) :   0.0762 B(  0-C ,  6-C ) :   0.0692 
B(  0-C ,  9-H ) :   0.9237 B(  0-C , 10-H ) :   0.9291 B(  0-C , 11-H ) :   0.9242 
B(  1-C ,  2-C ) :   1.4265 B(  1-C ,  3-C ) :   0.0869 B(  1-C ,  4-C ) :   0.1034 
B(  1-C ,  5-C ) :   0.0898 B(  1-C ,  6-C ) :   1.4071 B(  1-C ,  7-C ) :   0.0682 
B(  2-C ,  3-C ) :   1.5077 B(  2-C ,  4-C ) :   0.0918 B(  2-C ,  5-C ) :   0.0990 
B(  2-C ,  6-C ) :   0.0852 B(  2-C , 12-H ) :   0.8824 B(  3-C ,  4-C ) :   1.4937 
B(  3-C ,  5-C ) :   0.0931 B(  3-C ,  6-C ) :   0.1087 B(  3-C , 13-H ) :   0.8868 
B(  4-C ,  5-C ) :   1.4295 B(  4-C ,  6-C ) :   0.0853 B(  4-C ,  8-O ) :   0.1132 
B(  4-C , 14-H ) :   0.8783 B(  5-C ,  6-C ) :   1.3467 B(  5-C ,  7-C ) :   0.0733 
B(  5-C ,  8-O ) :   1.3165 B(  6-C ,  7-C ) :   1.0923 B(  6-C ,  8-O ) :   0.1011 
B(  7-C , 15-H ) :   0.9213 B(  7-C , 16-H ) :   0.9214 B(  7-C , 17-H ) :   0.9271 
B(  8-O , 18-H ) :   0.8733 

------------------------------------------
LOEWDIN REDUCED ORBITAL POPULATIONS PER MO
-------------------------------------------
THRESHOLD FOR PRINTING IS 0.1%%
                      0         1         2         3         4         5   
                 -18.77878  -9.94254  -9.89559  -9.88990  -9.88485  -9.88344
                   2.00000   2.00000   2.00000   2.00000   2.00000   2.00000
                  --------  --------  --------  --------  --------  --------
 1 C  s               0.0       0.0      99.5       0.1       0.0       0.0
 1 C  px              0.0       0.0       0.0       0.1       0.0       0.0
 2 C  px              0.0       0.0       0.0       0.0       0.1       0.0
 2 C  py              0.0       0.0       0.1       0.0       0.0       0.0
 3 C  s               0.0       0.0       0.0       0.0      98.7       0.9
 3 C  px              0.0       0.0       0.0       0.0       0.0       0.1
 4 C  s               0.0       0.0       0.0       0.0       0.9      98.7
 4 C  px              0.0       0.0       0.0       0.0       0.1       0.0
 4 C  py              0.0       0.1       0.0       0.0       0.0       0.0
 5 C  s               0.0      99.5       0.0       0.0       0.0       0.0
 5 C  px              0.0       0.0       0.0       0.1       0.0       0.0
 5 C  py              0.0       0.0       0.0       0.0       0.0       0.1
 6 C  s               0.0       0.0       0.0      99.5       0.0       0.0
 6 C  px              0.0       0.1       0.1       0.0       0.0       0.0
 7 C  py              0.0       0.0       0.0       0.1       0.0       0.0
 8 O  s              99.9       0.0       0.0       0.0       0.0       0.0

                      6         7         8         9        10        11   
                  -9.87965  -9.87623  -9.87427  -0.96041  -0.77112  -0.69727
                   2.00000   2.00000   2.00000   2.00000   2.00000   2.00000
                  --------  --------  --------  --------  --------  --------
 0 C  s              99.7       0.0       0.0       0.0       3.1       7.1
 0 C  px              0.0       0.0       0.0       0.0       1.3       0.8
 0 C  py              0.0       0.0       0.0       0.0       0.3       0.0
 1 C  s               0.0       0.0       0.0       0.1      15.3       5.9
 1 C  px              0.1       0.0       0.0       0.1       1.2       0.3
 1 C  py              0.0       0.1       0.0       0.0       0.1       4.0
 1 C  dz2             0.0       0.0       0.0       0.0       0.2       0.1
 2 C  s               0.0      99.5       0.0       0.0      11.3       1.2
 2 C  px              0.0       0.0       0.0       0.0       1.3       2.9
 2 C  py              0.0       0.0       0.0       0.0       1.2       3.0
 2 C  dz2             0.0       0.0       0.0       0.0       0.1       0.0
 2 C  dx2y2           0.0       0.0       0.0       0.0       0.0       0.1
 3 C  s               0.0       0.0       0.0       0.1       9.4      13.5
 3 C  px              0.0       0.1       0.0       0.0       0.0       0.9
 3 C  py              0.0       0.0       0.0       0.1       2.2       0.6
 3 C  dz2             0.0       0.0       0.0       0.0       0.1       0.1
 4 C  s               0.0       0.0       0.0       0.9       8.3      13.6
 4 C  px              0.0       0.0       0.0       0.1       2.1       1.0
 4 C  py              0.0       0.0       0.0       1.4       0.2       0.4
 4 C  dz2             0.0       0.0       0.0       0.0       0.1       0.1
 5 C  s               0.0       0.0       0.0      10.6       6.8       0.4
 5 C  px              0.0       0.0       0.0       6.9       4.9       0.8
 5 C  py              0.0       0.0       0.0       2.4       0.9       7.5
 5 C  dz2             0.0       0.0       0.0       0.4       0.1       0.0
 5 C  dx2y2           0.0       0.0       0.0       0.2       0.0       0.1
 5 C  dxy             0.0       0.0       0.0       0.6       0.1       0.0
 6 C  s               0.0       0.0       0.0       0.8      13.7       7.7
 6 C  px              0.0       0.0       0.0       1.3       0.2       1.4
 6 C  py              0.0       0.0       0.1       0.1       1.5       2.0
 6 C  dz2             0.0       0.0       0.0       0.0       0.2       0.1
 7 C  s               0.0       0.0      99.7       0.1       2.5       8.3
 7 C  py              0.0       0.0       0.0       0.1       1.4       0.9
 8 O  s               0.0       0.0       0.0      58.1       1.7       0.1
 8 O  px              0.0       0.0       0.0       0.1       1.0       0.0
 8 O  py              0.0       0.0       0.0       3.4       0.1       0.2
 9 H  s               0.1       0.0       0.0       0.0       0.5       1.5
10 H  s               0.1       0.0       0.0       0.0       0.6       1.2
11 H  s               0.1       0.0       0.0       0.0       0.5       1.5
12 H  s               0.0       0.1       0.0       0.0       1.5       0.1
13 H  s               0.0       0.0       0.0       0.0       1.2       2.4
14 H  s               0.0       0.0       0.0       0.2       0.9       2.5
15 H  s               0.0       0.0       0.1       0.0       0.4       1.5
16 H  s               0.0       0.0       0.1       0.1       0.4       1.5
17 H  s               0.0       0.0       0.1       0.0       0.5       2.0
18 H  s               0.0       0.0       0.0      11.6       0.6       0.0

                     12        13        14        15        16        17   
                  -0.67761  -0.61844  -0.59953  -0.55111  -0.51543  -0.46900
                   2.00000   2.00000   2.00000   2.00000   2.00000   2.00000
                  --------  --------  --------  --------  --------  --------
 0 C  s              10.4      12.6       7.1       3.1       1.0       1.8
 0 C  px              0.3       0.1       0.5       2.1       0.1       7.6
 0 C  py              0.5       0.1       0.6       0.0       1.8       1.1
 0 C  dxy             0.0       0.0       0.0       0.0       0.0       0.1
 1 C  s               6.9       0.1       2.4       3.2       0.3       5.7
 1 C  px              5.7       2.8       4.5       4.6       2.1       0.3
 1 C  py              2.1       3.7       2.1       1.8       9.1       0.6
 1 C  dx2y2           0.0       0.2       0.0       0.0       0.2       0.0
 1 C  dxy             0.1       0.0       0.1       0.1       0.0       0.0
 2 C  s               9.7       9.2       1.4       2.6       4.6       0.3
 2 C  px              0.2       0.7       0.4       0.2       6.5       1.1
 2 C  py              0.5       1.3       2.5       3.7       2.4       2.2
 2 C  dx2y2           0.0       0.0       0.1       0.0       0.0       0.1
 3 C  s               1.1       4.2       5.1       1.0       7.6       0.2
 3 C  px              3.1       6.4       3.4       3.3       0.6       4.9
 3 C  py              0.0       0.2       0.4       0.6       2.9       3.3
 3 C  dxy             0.1       0.2       0.1       0.0       0.0       0.0
 4 C  s               2.1       5.8       5.6       1.7       1.8       1.1
 4 C  px              0.1       1.7       0.0       0.3       6.2       3.9
 4 C  py              1.8       2.9       3.8       0.1       6.0      10.8
 4 C  dx2y2           0.1       0.1       0.0       0.0       0.0       0.0
 5 C  s               8.2       5.4       2.0       3.1       0.6       1.1
 5 C  px              2.1       0.1       1.7       1.0       3.9       8.3
 5 C  py              0.0       3.9       1.8       6.9       7.1       3.1
 5 C  dx2y2           0.0       0.1       0.1       0.0       0.1       0.0
 5 C  dxy             0.1       0.0       0.0       0.1       0.0       0.3
 6 C  s               6.4       0.2       1.7       1.6       4.3       0.0
 6 C  px              5.9       0.3       0.3       9.7       0.0       6.2
 6 C  py              1.4       3.5       9.9       0.8       0.4       0.7
 6 C  dx2y2           0.0       0.1       0.2       0.0       0.2       0.1
 6 C  dxy             0.1       0.1       0.0       0.1       0.0       0.3
 7 C  s               7.6       8.8      13.9       0.0       4.4       0.2
 7 C  px              0.2       0.0       0.1       1.0       0.0       0.2
 7 C  py              0.6       0.1       1.0       0.1       4.1       0.3
 8 O  s               1.8       1.1       0.0       0.1       1.1       0.2
 8 O  px              4.4       1.6       2.1      29.0       0.1      15.6
 8 O  py              0.1       0.6       0.0       0.3       1.9       0.1
 8 O  dxy             0.1       0.0       0.0       0.3       0.0       0.1
 9 H  s               1.9       3.3       2.5       1.0       0.8       1.7
10 H  s               2.7       3.1       1.9       2.1       0.0       2.2
11 H  s               1.9       3.3       2.5       1.0       0.8       1.7
12 H  s               2.3       2.1       0.2       2.2       3.2       0.1
13 H  s               0.2       1.2       2.0       0.7       5.4       1.7
14 H  s               0.3       1.8       2.5       1.1       1.7       5.5
15 H  s               1.7       2.4       3.8       0.1       2.1       0.2
16 H  s               1.7       2.4       3.7       0.1       2.1       0.2
17 H  s               1.1       1.8       5.3       0.1       2.0       0.0
18 H  s               1.9       0.5       0.6       8.7       0.0       4.2

                     18        19        20        21        22        23   
                  -0.43365  -0.42727  -0.38789  -0.37428  -0.36109  -0.35619
                   2.00000   2.00000   2.00000   2.00000   2.00000   2.00000
                  --------  --------  --------  --------  --------  --------
 0 C  pz              0.0       0.0      16.6       0.0      34.5       0.0
 0 C  px              0.9       1.0       0.0       3.7       0.0      10.4
 0 C  py              2.7       4.2       0.0      10.2       0.0       0.6
 0 C  dz2             0.0       0.0       0.0       0.1       0.0       0.0
 0 C  dyz             0.0       0.0       0.1       0.0       0.4       0.0
 1 C  s               0.3       0.4       0.0       1.3       0.0       0.3
 1 C  pz              0.0       0.0       9.8       0.0       3.2       0.0
 1 C  px              0.5       1.4       0.0       5.1       0.0      10.4
 1 C  py              8.0       0.9       0.0       0.3       0.0       3.3
 1 C  dxz             0.0       0.0       0.0       0.0       0.2       0.0
 1 C  dx2y2           0.0       0.0       0.0       0.2       0.0       0.0
 1 C  dxy             0.1       0.2       0.0       0.0       0.0       0.0
 2 C  s               0.7       0.4       0.0       2.6       0.0       0.0
 2 C  pz              0.0       0.0       2.4       0.0       0.3       0.0
 2 C  px              0.4      13.6       0.0       1.3       0.0       3.2
 2 C  py             15.9       0.6       0.0       0.3       0.0       3.1
 2 C  dx2y2           0.0       0.0       0.0       0.1       0.0       0.5
 2 C  dxy             0.0       0.1       0.0       0.2       0.0       0.0
 3 C  s               0.1       0.5       0.0       1.1       0.0       0.1
 3 C  pz              0.0       0.0       1.3       0.0       0.1       0.0
 3 C  px             10.8       1.4       0.0       1.0       0.0       2.1
 3 C  py              6.5       4.8       0.0      14.8       0.0       8.4
 3 C  dx2y2           0.0       0.0       0.0       0.8       0.0       0.1
 3 C  dxy             0.1       0.0       0.0       0.1       0.0       0.4
 4 C  s               0.2       0.8       0.0       1.2       0.0       1.0
 4 C  pz              0.0       0.0       2.6       0.0       1.3       0.0
 4 C  px              7.8       5.0       0.0       4.4       0.0      12.5
 4 C  py              4.9       3.5       0.0       4.7       0.0       0.6
 4 C  dx2y2           0.1       0.0       0.0       0.7       0.0       0.0
 4 C  dxy             0.0       0.2       0.0       0.2       0.0       0.1
 5 C  s               0.7       0.1       0.0       2.3       0.0       0.0
 5 C  pz              0.0       0.0       9.8       0.0       6.7       0.0
 5 C  px              2.2       6.2       0.0       0.2       0.0       0.0
 5 C  py              2.2       1.3       0.0       1.4       0.0       0.8
 5 C  dx2y2           0.0       0.0       0.0       0.0       0.0       0.5
 5 C  dxy             0.2       0.9       0.0       0.0       0.0       0.1
 6 C  s               1.4       3.4       0.0       0.5       0.0       0.0
 6 C  pz              0.0       0.0      13.2       0.0       2.2       0.0
 6 C  px              3.5       7.3       0.0       0.4       0.0       0.0
 6 C  py              0.6       0.9       0.0       1.7       0.0       9.1
 6 C  dxz             0.0       0.0       0.0       0.0       0.1       0.0
 6 C  dxy             0.0       0.0       0.0       0.1       0.0       0.2
 7 C  s               0.2       0.2       0.0       0.1       0.0       0.0
 7 C  pz              0.0       0.0      17.2       0.0      11.1       0.0
 7 C  px              4.3       3.9       0.0       0.2       0.0       1.4
 7 C  py              2.4       5.7       0.0       4.4       0.0       8.2
 7 C  dxz             0.0       0.0       0.1       0.0       0.1       0.0
 7 C  dx2y2           0.0       0.2       0.0       0.0       0.0       0.1
 8 O  s               2.1       0.1       0.0       0.7       0.0       0.5
 8 O  pz              0.0       0.0       6.6       0.0       8.4       0.0
 8 O  px              0.0       7.0       0.0       0.5       0.0       0.0
 8 O  py              8.4       0.7       0.0       3.8       0.0       1.9
 8 O  dxy             0.0       0.1       0.0       0.0       0.0       0.0
 9 H  s               0.1       0.4       5.2       2.2      11.8       0.5
10 H  s               1.1       1.9       0.0       0.2       0.0       1.6
11 H  s               0.2       0.5       5.0       2.5      11.2       0.6
12 H  s               4.3       6.8       0.0       0.3       0.0       3.7
13 H  s               2.3       1.0       0.0      13.3       0.0       4.9
14 H  s               0.5       6.0       0.0       8.9       0.0       5.5
15 H  s               1.3       0.1       5.1       0.7       4.2       1.4
16 H  s               1.5       0.0       4.6       0.7       3.9       1.5
17 H  s               0.2       4.3       0.0       0.1       0.0       0.0
18 H  s               0.2       2.0       0.0       0.4       0.0       0.1

                     24        25        26        27        28        29   
                  -0.34736  -0.34063  -0.33559  -0.32225  -0.29983  -0.28469
                   2.00000   2.00000   2.00000   2.00000   2.00000   2.00000
                  --------  --------  --------  --------  --------  --------
 0 C  s               0.1       0.3       0.0       0.0       0.2       0.0
 0 C  pz              0.0       0.0       0.0       0.0       0.0       3.2
 0 C  px              2.3      11.3       0.0       3.5       4.8       0.0
 0 C  py             10.1       3.2       0.0      14.2       2.3       0.0
 0 C  dz2             0.1       0.0       0.0       0.2       0.0       0.0
 0 C  dyz             0.0       0.0       0.0       0.0       0.0       0.2
 0 C  dx2y2           0.0       0.0       0.0       0.1       0.0       0.0
 0 C  dxy             0.1       0.2       0.0       0.4       0.1       0.0
 1 C  s               0.0       0.7       0.0       0.0       0.0       0.0
 1 C  pz              0.0       0.0       0.3       0.0       0.0       8.3
 1 C  px              0.1       1.7       0.0       1.8       8.7       0.0
 1 C  py              0.0       2.4       0.0       6.5       1.2       0.0
 1 C  dyz             0.0       0.0       0.0       0.0       0.0       0.2
 1 C  dx2y2           0.0       0.0       0.0       0.4       0.0       0.0
 1 C  dxy             0.0       0.3       0.0       0.2       0.6       0.0
 2 C  s               0.1       0.0       0.0       0.4       0.1       0.0
 2 C  pz              0.0       0.0       1.4       0.0       0.0      21.9
 2 C  px              8.7       1.7       0.0       0.3       9.8       0.0
 2 C  py              0.7       1.0       0.0       5.9       0.8       0.0
 2 C  dxz             0.0       0.0       0.0       0.0       0.0       0.1
 2 C  dxy             0.3       0.1       0.0       0.0       1.0       0.0
 3 C  s               0.6       0.0       0.0       0.0       0.1       0.0
 3 C  pz              0.0       0.0       3.2       0.0       0.0      23.0
 3 C  px              1.6       3.4       0.0       2.2       8.9       0.0
 3 C  py              2.0       0.0       0.0       0.0       0.2       0.0
 3 C  dxy             0.1       0.0       0.0       0.0       0.3       0.0
 4 C  s               0.2       0.1       0.0       0.4       0.1       0.0
 4 C  pz              0.0       0.0       8.2       0.0       0.0       8.1
 4 C  px              0.0       1.4       0.0       0.5       6.2       0.0
 4 C  py              0.1       1.2       0.0       1.9       0.6       0.0
 4 C  dxz             0.0       0.0       0.0       0.0       0.0       0.2
 4 C  dxy             0.1       0.1       0.0       0.1       0.4       0.0
 5 C  s               0.5       0.0       0.0       0.2       0.4       0.0
 5 C  pz              0.0       0.0      15.9       0.0       0.0       0.3
 5 C  px              4.5       0.1       0.0       0.1       2.6       0.0
 5 C  py              0.0       0.8       0.0       2.9       0.2       0.0
 5 C  dxz             0.0       0.0       0.2       0.0       0.0       0.4
 5 C  dyz             0.0       0.0       0.0       0.0       0.0       0.3
 5 C  dx2y2           0.0       0.1       0.0       0.2       0.2       0.0
 5 C  dxy             0.0       0.0       0.0       0.1       0.4       0.0
 6 C  s               0.4       0.5       0.0       0.0       0.2       0.0
 6 C  pz              0.0       0.0       0.0       0.0       0.0       2.1
 6 C  px              0.5       0.1       0.0       7.2       7.3       0.0
 6 C  py              9.8       0.0       0.0       1.3       0.9       0.0
 6 C  dyz             0.0       0.0       0.3       0.0       0.0       0.0
 6 C  dx2y2           0.2       0.0       0.0       0.0       0.0       0.0
 6 C  dxy             0.2       0.2       0.0       0.0       0.5       0.0
 7 C  s               0.2       0.1       0.0       0.0       0.0       0.0
 7 C  pz              0.0       0.0      26.1       0.0       0.0       0.1
 7 C  px              4.2      31.9       0.1       0.1       8.3       0.0
 7 C  py             11.6       0.2       0.0       1.1       0.4       0.0
 7 C  dz2             0.0       0.3       0.0       0.0       0.1       0.0
 7 C  dxz             0.0       0.0       0.3       0.0       0.0       0.0
 7 C  dyz             0.0       0.0       0.1       0.0       0.0       0.0
 7 C  dx2y2           0.3       0.0       0.0       0.0       0.0       0.0
 7 C  dxy             0.1       0.2       0.0       0.1       0.3       0.0
 8 O  s               2.4       0.1       0.0       4.0       0.2       0.0
 8 O  pz              0.0       0.0      25.5       0.0       0.0      27.2
 8 O  px              0.1       0.2       0.0       0.3       1.0       0.0
 8 O  py             15.0       3.3       0.0      22.8       7.2       0.0
 9 H  s               1.4       0.4       0.0       2.5       0.4       1.9
10 H  s               5.8       7.8       0.0      11.2       0.4       0.0
11 H  s               1.5       0.4       0.0       2.9       0.4       2.0
12 H  s               5.7       0.5       0.0       0.5       9.8       0.0
13 H  s               0.5       0.0       0.0       0.1       0.2       0.0
14 H  s               0.1       0.4       0.0       0.1       3.5       0.0
15 H  s               0.1       4.5       8.9       0.3       1.6       0.1
16 H  s               0.1       4.7       9.0       0.3       2.2       0.1
17 H  s               7.2      13.7       0.0       0.1       4.7       0.0
18 H  s               0.5       0.1       0.0       2.3       0.2       0.0

                     30        31        32        33        34        35   
                  -0.28310  -0.20935  -0.18755  -0.02530  -0.01064   0.02429
                   2.00000   2.00000   2.00000   0.00000   0.00000   0.00000
                  --------  --------  --------  --------  --------  --------
 0 C  s               0.2       0.0       0.0       0.0       0.0       0.7
 0 C  pz              0.0       1.8       0.0       0.3       0.0       0.0
 0 C  px              3.2       0.0       0.0       0.0       0.0       0.0
 0 C  py              4.0       0.0       0.0       0.0       0.0       0.0
 0 C  dxz             0.0       0.2       0.0       0.3       0.3       0.0
 0 C  dyz             0.0       0.3       0.0       0.5       0.1       0.0
 1 C  pz              0.0      25.7       0.8      18.4      11.4       0.0
 1 C  px              1.0       0.0       0.0       0.0       0.0       0.0
 1 C  py              7.5       0.0       0.0       0.0       0.0       0.1
 1 C  dxz             0.0       0.2       0.1       0.5       0.0       0.0
 1 C  dyz             0.0       0.0       0.5       0.2       1.0       0.0
 1 C  dx2y2           0.7       0.0       0.0       0.0       0.0       0.1
 2 C  s               0.1       0.0       0.0       0.0       0.0       0.2
 2 C  pz              0.0       1.9      24.0       0.4      28.7       0.0
 2 C  px              0.8       0.0       0.0       0.0       0.0       0.0
 2 C  py              8.0       0.0       0.0       0.0       0.0       0.3
 2 C  dxz             0.0       0.2       0.0       0.5       0.2       0.0
 2 C  dyz             0.0       0.5       0.0       1.0       0.2       0.0
 2 C  dx2y2           0.3       0.0       0.0       0.0       0.0       0.1
 3 C  s               0.1       0.0       0.0       0.0       0.0       0.1
 3 C  pz              0.0      15.7       6.1      25.0       6.2       0.0
 3 C  px              0.4       0.0       0.0       0.0       0.0       0.2
 3 C  py              6.1       0.0       0.0       0.0       0.0       0.5
 3 C  dxz             0.0       0.3       0.5       0.2       1.2       0.0
 3 C  dyz             0.0       0.0       0.0       0.3       0.1       0.0
 3 C  dx2y2           0.8       0.0       0.0       0.0       0.0       0.3
 4 C  s               0.2       0.0       0.0       0.0       0.0       1.7
 4 C  pz              0.0      23.8       9.6      19.7       7.0       0.0
 4 C  px              0.1       0.0       0.0       0.0       0.0       3.0
 4 C  py              8.1       0.0       0.0       0.0       0.0       1.4
 4 C  dxz             0.0       0.1       0.0       0.6       0.0       0.0
 4 C  dyz             0.0       0.1       0.3       0.2       1.3       0.0
 4 C  dx2y2           0.4       0.0       0.0       0.0       0.0       0.2
 4 C  dxy             0.1       0.0       0.0       0.0       0.0       0.1
 5 C  pz              0.0       0.0      16.3       0.1      28.9       0.0
 5 C  px              1.6       0.0       0.0       0.0       0.0       0.2
 5 C  py              8.4       0.0       0.0       0.0       0.0       0.7
 5 C  dxz             0.0       0.2       0.6       0.5       0.0       0.0
 5 C  dyz             0.0       0.5       0.2       1.1       0.0       0.0
 5 C  dx2y2           0.8       0.0       0.0       0.0       0.0       0.5
 6 C  s               0.0       0.0       0.0       0.0       0.0       0.4
 6 C  pz              0.0      18.9      14.3      22.3       3.4       0.0
 6 C  px              1.4       0.0       0.0       0.0       0.0       0.3
 6 C  py              7.0       0.0       0.0       0.0       0.0       0.1
 6 C  dxz             0.0       0.2       0.2       0.2       1.5       0.0
 6 C  dyz             0.0       0.1       0.1       0.1       0.0       0.0
 6 C  dx2y2           0.9       0.0       0.0       0.0       0.0       0.1
 7 C  s               0.2       0.0       0.0       0.0       0.0       1.3
 7 C  pz              0.0       1.4       0.6       0.1       0.1       0.0
 7 C  py             10.7       0.0       0.0       0.0       0.0       0.1
 7 C  dyz             0.0       0.3       0.2       0.7       0.1       0.0
 8 O  s               1.4       0.0       0.0       0.0       0.0       8.0
 8 O  pz              0.0       0.2      23.1       0.1       6.1       0.0
 8 O  px              0.0       0.0       0.0       0.0       0.0       5.8
 8 O  py             10.9       0.0       0.0       0.0       0.0       3.5
 8 O  dxz             0.0       0.0       0.1       0.0       0.2       0.0
 9 H  s               1.0       2.2       0.1       1.8       0.5       0.3
10 H  s               0.2       0.0       0.0       0.0       0.0       0.9
11 H  s               0.9       2.1       0.1       1.8       0.4       0.3
12 H  s               0.5       0.0       0.0       0.0       0.0       0.8
13 H  s               6.6       0.0       0.0       0.0       0.0       0.5
14 H  s               2.5       0.0       0.0       0.0       0.0       9.6
15 H  s               0.3       1.6       1.1       1.6       0.5       0.9
16 H  s               0.3       1.5       1.0       1.5       0.4       1.0
17 H  s               0.8       0.0       0.0       0.0       0.0       0.8
18 H  s               1.1       0.0       0.0       0.0       0.0      54.3

                     36        37        38        39        40        41   
                   0.05218   0.05641   0.08889   0.09901   0.10019   0.12066
                   0.00000   0.00000   0.00000   0.00000   0.00000   0.00000
                  --------  --------  --------  --------  --------  --------
 0 C  s              10.2       5.0       0.7       0.3       4.7       1.4
 0 C  pz              0.0       0.0       0.0       9.7       0.5       0.0
 0 C  px              0.1       4.7       2.3       0.0       0.5       1.9
 0 C  py              1.5       0.1       3.1       0.3       4.9       5.2
 0 C  dz2             0.0       0.0       0.1       0.0       0.2       0.1
 0 C  dyz             0.0       0.0       0.0       0.8       0.1       0.0
 0 C  dxy             0.0       0.1       0.1       0.0       0.3       0.1
 1 C  s               0.2       0.6       0.7       0.0       0.2       0.5
 1 C  pz              0.0       0.0       0.0       3.1       0.3       0.0
 1 C  px              0.1       0.6       0.5       0.0       0.1       0.4
 1 C  py              0.0       0.0       0.2       0.0       0.7       0.1
 1 C  dz2             0.2       0.0       0.0       0.0       0.1       0.0
 1 C  dxz             0.0       0.0       0.0       0.5       0.0       0.0
 1 C  dyz             0.0       0.0       0.0       0.2       0.0       0.0
 1 C  dx2y2           0.0       0.0       0.1       0.0       0.2       0.4
 1 C  dxy             0.3       0.5       0.4       0.0       0.5       0.0
 2 C  s               0.1       2.9       0.9       0.0       0.3       0.5
 2 C  pz              0.0       0.0       0.0       7.5       0.6       0.0
 2 C  px              0.1       3.8       1.6       0.1       1.5       0.5
 2 C  py              0.2       1.4       1.0       0.1       1.6       0.4
 2 C  dxz             0.0       0.0       0.0       0.2       0.0       0.0
 2 C  dx2y2           0.0       0.2       0.0       0.0       0.0       0.1
 2 C  dxy             0.4       0.2       0.0       0.0       0.1       0.3
 3 C  s               1.9       2.7       1.3       0.0       0.2       2.8
 3 C  pz              0.0       0.0       0.0       9.4       0.7       0.0
 3 C  px              0.0       0.3       0.2       0.0       0.1       0.1
 3 C  py              1.6       3.7       1.0       0.0       0.3       3.8
 3 C  dyz             0.0       0.0       0.0       0.4       0.0       0.0
 3 C  dx2y2           0.4       0.7       0.0       0.0       0.0       0.0
 3 C  dxy             0.0       0.0       0.0       0.0       0.1       0.0
 4 C  s               1.3       0.8       1.6       0.0       0.5       3.2
 4 C  pz              0.0       0.0       0.0       8.5       0.6       0.0
 4 C  px              1.9       0.4       2.9       0.1       1.6       1.3
 4 C  py              0.6       0.4       0.7       0.0       0.7       0.7
 4 C  dz2             0.0       0.0       0.0       0.0       0.0       0.2
 4 C  dxz             0.0       0.0       0.0       0.3       0.0       0.0
 4 C  dx2y2           0.1       0.2       0.0       0.0       0.0       0.2
 4 C  dxy             0.4       0.5       0.4       0.0       0.1       0.0
 5 C  s               0.5       0.5       0.0       0.1       1.0       0.6
 5 C  pz              0.0       0.0       0.0       6.2       0.5       0.0
 5 C  px              1.4       0.6       0.7       0.0       0.6       0.9
 5 C  py              0.1       0.2       0.6       0.0       0.4       0.4
 5 C  dz2             0.1       0.1       0.0       0.0       0.2       0.1
 5 C  dyz             0.0       0.0       0.0       0.1       0.0       0.0
 5 C  dx2y2           0.0       0.1       0.2       0.0       0.0       0.2
 5 C  dxy             0.7       0.3       0.6       0.0       0.3       0.3
 6 C  s               0.4       0.5       0.2       0.0       0.1       0.3
 6 C  pz              0.0       0.0       0.0       2.1       0.2       0.0
 6 C  px              0.1       0.2       0.6       0.0       0.0       0.7
 6 C  py              0.1       0.2       0.5       0.0       0.2       0.1
 6 C  dz2             0.3       0.0       0.2       0.0       0.0       0.0
 6 C  dxz             0.0       0.0       0.0       0.1       0.0       0.0
 6 C  dyz             0.0       0.0       0.0       0.4       0.0       0.0
 6 C  dx2y2           0.4       0.2       0.1       0.0       0.1       0.0
 6 C  dxy             0.0       0.0       0.5       0.0       0.0       1.2
 7 C  s               9.8       0.2       5.2       0.5       6.2       0.1
 7 C  pz              0.0       0.0       0.0       4.5       0.5       0.1
 7 C  px              0.2       0.7       2.4       0.5       3.3       4.8
 7 C  py              0.4       1.0       1.6       0.0       0.6       0.4
 7 C  dz2             0.0       0.0       0.2       0.0       0.0       0.3
 7 C  dxz             0.0       0.0       0.0       0.6       0.0       0.0
 7 C  dyz             0.0       0.0       0.0       0.3       0.0       0.0
 7 C  dxy             0.0       0.0       0.1       0.0       0.0       0.4
 8 O  s               0.4       1.6       0.7       0.0       0.5       0.5
 8 O  pz              0.0       0.0       0.0       1.1       0.1       0.0
 8 O  px              0.8       0.2       0.0       0.0       0.6       0.0
 8 O  py              0.0       1.2       1.0       0.0       0.0       0.2
 9 H  s              10.8       3.8       0.4      19.0       5.9       0.5
10 H  s               2.2      10.6      13.9       0.1       1.4      18.0
11 H  s              10.6       3.7       0.5       7.4      17.0       0.3
[...]
 0 C  dxy             0.0       1.6       0.0       1.8       2.0       0.2
 1 C  s               0.5       2.4       0.0       0.1       0.0       0.0
 1 C  px              1.7       0.1       0.0       0.0       0.1       0.3
 1 C  py              0.2       1.2       0.0       0.7       0.8       0.8
 1 C  dz2             0.0       2.2       0.0       0.2       0.0       0.0
 1 C  dxz             0.0       0.0       0.2       0.0       0.0       0.0
 1 C  dx2y2           2.6       0.5       0.0      10.4      13.9       4.0
 1 C  dxy             6.9      12.1       0.0       0.0       4.8       0.3
 2 C  s               2.6       0.3       0.0       0.1       0.1       0.2
 2 C  px              2.1       0.2       0.0       0.2       0.7       0.0
 2 C  py              0.1       0.8       0.0       1.1       2.3       0.4
 2 C  dz2             0.9       0.8       0.0       0.0       0.1       0.1
 2 C  dx2y2           1.6      14.5       0.0       2.6       5.1       2.8
 2 C  dxy             0.4       1.6       0.0       0.1       5.1       0.4
 3 C  s               0.1       0.0       0.0       0.5       0.8       0.5
 3 C  px              4.0       1.6       0.0       0.1       1.0       0.7
 3 C  py              0.1       0.0       0.0       0.1       0.2       0.1
 3 C  dz2             0.1       0.6       0.0       0.2       0.3       0.2
 3 C  dx2y2           2.1       7.7       0.0       0.7       3.4       1.9
 3 C  dxy            24.4       5.3       0.0       0.8       3.1       2.2
 4 C  s               0.4       2.3       0.0       0.3       0.1       0.2
 4 C  px              1.3       0.9       0.0       0.0       0.1       0.2
 4 C  py              1.7       0.1       0.0       0.0       0.1       1.8
 4 C  dz2             0.0       1.7       0.0       0.2       0.0       0.1
 4 C  dxz             0.0       0.0       0.5       0.0       0.0       0.0
 4 C  dyz             0.0       0.0       0.6       0.0       0.0       0.0
 4 C  dx2y2          17.3       3.3       0.0       0.4       1.4       1.3
 4 C  dxy             3.2       3.8       0.0       1.6       0.6       6.8
 5 C  s               2.5       0.3       0.0       0.1       0.2       0.3
 5 C  pz              0.0       0.0       0.4       0.0       0.0       0.0
 5 C  px              0.4       0.2       0.0       0.2       0.3       0.1
 5 C  py              0.9       1.0       0.0       0.9       0.4       0.9
 5 C  dz2             0.6       0.3       0.0       1.6       0.5       0.2
 5 C  dxz             0.0       0.0      12.2       0.0       0.0       0.0
 5 C  dyz             0.0       0.0       6.2       0.0       0.0       0.0
 5 C  dx2y2           0.0       2.2       0.0       1.5       0.5      19.5
 5 C  dxy             0.0       0.1       0.0       1.0       0.0       3.7
 6 C  s               0.2       0.3       0.0       0.6       0.4       0.1
 6 C  px              1.2       0.1       0.0       0.3       0.8       1.1
 6 C  py              0.4       1.1       0.0       0.1       0.1       0.1
 6 C  dz2             0.0       1.2       0.0       1.0       0.1       0.0
 6 C  dyz             0.0       0.0       1.5       0.0       0.0       0.0
 6 C  dx2y2           0.6      10.5       0.0       3.2       2.7       0.1
 6 C  dxy            14.1       1.7       0.0       1.0       5.9      11.4
 7 C  s               0.0       0.5       0.0       0.1       0.1       0.0
 7 C  py              0.1       1.0       0.0       0.2       0.1       0.0
 7 C  dz2             0.0       1.5       0.0       0.3       0.2       0.0
 7 C  dyz             0.0       0.0       0.3       0.0       0.0       0.0
 7 C  dx2y2           0.3       3.9       0.0       0.8       0.3       0.0
 7 C  dxy             2.0       0.6       0.0       0.0       1.1       1.2
 8 O  s               0.0       0.1       0.0       1.5       1.2       0.1
 8 O  pz              0.0       0.0       0.9       0.0       0.0       0.0
 8 O  px              0.0       0.0       0.0       1.0       0.1       0.0
 8 O  py              0.0       0.1       0.0       1.8       0.4       0.4
 8 O  dz2             0.0       1.7       0.0      41.8      15.7       0.5
 8 O  dxz             0.0       0.0      49.7       0.0       0.0       0.0
 8 O  dyz             0.0       0.0      27.3       0.0       0.0       0.0
 8 O  dx2y2           0.1       1.5       0.0       5.5       7.2      19.7
 8 O  dxy             0.0       0.0       0.0       8.7      10.7      14.0
13 H  s               0.0       0.4       0.0       0.0       0.1       0.1
14 H  s               0.0       0.3       0.0       0.1       0.1       0.1
18 H  s               0.0       0.1       0.0       4.1       3.0       0.5

                    144       145   
                   3.20047   3.46459
                   0.00000   0.00000
                  --------  --------
 0 C  px              0.2       0.1
 0 C  dx2y2           0.4       0.1
 0 C  dxy             0.3       0.3
 1 C  s               0.7       0.2
 1 C  px              0.3       0.0
 1 C  dz2             0.4       0.1
 1 C  dx2y2           2.0       3.1
 1 C  dxy             9.2       3.6
 2 C  s               0.6       0.6
 2 C  dz2             0.4       0.3
 2 C  dx2y2           0.8       0.8
 2 C  dxy             8.8       3.9
 3 C  s               0.6       0.4
 3 C  px              0.2       0.0
 3 C  dz2             0.5       0.2
 3 C  dx2y2           6.0       5.5
 4 C  s               0.7       0.5
 4 C  py              0.1       0.1
 4 C  dz2             0.7       0.1
 4 C  dx2y2           2.9       2.4
 4 C  dxy             0.6       5.4
 5 C  s               3.6       0.3
 5 C  px              1.5       1.6
 5 C  py              0.2       0.7
 5 C  dz2             2.7       0.2
 5 C  dx2y2           3.4       2.9
 5 C  dxy             0.3      16.8
 6 C  s               0.3       0.2
 6 C  px              0.7       0.2
 6 C  dz2             0.3       0.1
 6 C  dx2y2           6.1       9.7
 6 C  dxy             1.2       0.0
 7 C  s               0.1       0.1
 7 C  py              0.1       0.2
 7 C  dx2y2           0.4       0.5
 8 O  s               3.2       2.0
 8 O  px              2.2       2.3
 8 O  py              0.2       0.4
 8 O  dz2            10.7       4.5
 8 O  dx2y2          11.8       2.5
 8 O  dxy            13.1      25.7
12 H  s               0.4       0.2
13 H  s               0.2       0.2
14 H  s               0.1       0.3
18 H  s               0.1       0.4


                      *****************************
                      * MAYER POPULATION ANALYSIS *
                      *****************************

  NA   - Mulliken gross atomic population
  ZA   - Total nuclear charge
  QA   - Mulliken gross atomic charge
  VA   - Mayer's total valence
  BVA  - Mayer's bonded valence
  FA   - Mayer's free valence

  ATOM       NA         ZA         QA         VA         BVA        FA
  0 C      6.2377     6.0000    -0.2377     3.9412     3.9412    -0.0000
  1 C      6.0227     6.0000    -0.0227     4.1176     4.1176     0.0000
  2 C      6.1304     6.0000    -0.1304     3.8174     3.8174    -0.0000
  3 C      6.0463     6.0000    -0.0463     3.8091     3.8091     0.0000
  4 C      6.1653     6.0000    -0.1653     3.7451     3.7451     0.0000
  5 C      5.8230     6.0000     0.1770     4.0473     4.0473     0.0000
  6 C      6.0912     6.0000    -0.0912     4.0951     4.0951     0.0000
  7 C      6.2062     6.0000    -0.2062     3.9454     3.9454    -0.0000
  8 O      8.3382     8.0000    -0.3382     2.1641     2.1641     0.0000
  9 H      0.8819     1.0000     0.1181     0.9488     0.9488    -0.0000
 10 H      0.9011     1.0000     0.0989     0.9672     0.9672    -0.0000
 11 H      0.8826     1.0000     0.1174     0.9491     0.9491    -0.0000
 12 H      0.9730     1.0000     0.0270     0.9609     0.9609    -0.0000
 13 H      0.9548     1.0000     0.0452     0.9494     0.9494    -0.0000
 14 H      0.9805     1.0000     0.0195     0.9636     0.9636     0.0000
 15 H      0.8864     1.0000     0.1136     0.9561     0.9561    -0.0000
 16 H      0.8865     1.0000     0.1135     0.9576     0.9576     0.0000
 17 H      0.9074     1.0000     0.0926     0.9747     0.9747    -0.0000
 18 H      0.6849     1.0000     0.3151     0.8787     0.8787     0.0000

  Mayer bond orders larger than 0.100000
B(  0-C ,  1-C ) :   1.1190 B(  0-C ,  9-H ) :   0.9277 B(  0-C , 10-H ) :   0.9379 
B(  0-C , 11-H ) :   0.9281 B(  1-C ,  2-C ) :   1.3728 B(  1-C ,  6-C ) :   1.4459 
B(  2-C ,  3-C ) :   1.3649 B(  2-C , 12-H ) :   0.9599 B(  3-C ,  4-C ) :   1.3476 
B(  3-C , 13-H ) :   0.9623 B(  4-C ,  5-C ) :   1.3286 B(  4-C , 14-H ) :   0.9583 
B(  5-C ,  6-C ) :   1.3740 B(  5-C ,  8-O ) :   1.2072 B(  6-C ,  7-C ) :   1.1449 
B(  7-C , 15-H ) :   0.9301 B(  7-C , 16-H ) :   0.9294 B(  7-C , 17-H ) :   0.9235 
B(  8-O , 18-H ) :   0.8428 

-------
TIMINGS
-------

Total SCF time: 0 days 0 hours 0 min 2 sec 

Total time                  ....       2.680 sec
Sum of individual times     ....       2.663 sec  ( 99.4%)

SCF preparation             ....       0.028 sec  (  1.0%)
Fock matrix formation       ....       2.542 sec  ( 94.9%)
  Startup                   ....       0.001 sec  (  0.1% of F)
  Split-RI-J                ....       1.227 sec  ( 48.3% of F)
  XC integration            ....       1.304 sec  ( 51.3% of F)
    Basis function eval.    ....       0.564 sec  ( 43.3% of XC)
    Density eval.           ....       0.278 sec  ( 21.4% of XC)
    XC-Functional eval.     ....       0.093 sec  (  7.1% of XC)
    XC-Potential eval.      ....       0.317 sec  ( 24.3% of XC)
Diagonalization             ....       0.000 sec  (  0.0%)
Density matrix formation    ....       0.005 sec  (  0.2%)
Total Energy calculation    ....       0.001 sec  (  0.0%)
Population analysis         ....       0.055 sec  (  2.0%)
Orbital Transformation      ....       0.005 sec  (  0.2%)
Orbital Orthonormalization  ....       0.000 sec  (  0.0%)
DIIS solution               ....       0.022 sec  (  0.8%)
  MO trafo                  ....       0.000 sec  (  0.0 % of DIIS)
  Orb grad                  ....       0.000 sec  (  0.0 % of DIIS)
  Energy W gradient         ....       0.000 sec  (  0.0 % of DIIS)
  DIIS error                ....       0.003 sec  ( 13.5 % of DIIS)
  DIIS work                 ....       0.016 sec  ( 73.4 % of DIIS)
  Form Q                    ....       0.000 sec  (  0.0 % of DIIS)
  Form QpQm                 ....       0.000 sec  (  0.0 % of DIIS)
  Exp/Cayley                ....       0.000 sec  (  0.0 % of DIIS)
  Orb update                ....       0.000 sec  (  0.0 % of DIIS)
  Wake-sleep                ....       0.000 sec  (  1.2 % of DIIS)
SOSCF solution              ....       0.006 sec  (  0.2%)
  MO trafo                  ....       0.003 sec  ( 60.2 % of SOSCF)
  Orb grad                  ....       0.000 sec  (  1.0 % of SOSCF)
  Rot update                ....       0.000 sec  (  2.6 % of SOSCF)
  Step                      ....       0.002 sec  ( 35.7 % of SOSCF)
Finished LeanSCF after   2.7 sec

Maximum memory used throughout the entire LEANSCF-calculation: 14.2 MB


-------------------------------------------------------------------------------
                          DFT DISPERSION CORRECTION                            
                                                                               
                                DFTD4 V3.4.0                                   
-------------------------------------------------------------------------------
The PBE functional is recognized
Active option DFTDOPT                   ...         5   

-------------------------   ----------------
Dispersion correction           -0.019481189
-------------------------   ----------------

------------------   -----------------
gCP correction             0.078483692
------------------   -----------------

-------------------------   --------------------
FINAL SINGLE POINT ENERGY      -385.239365484918
-------------------------   --------------------


------------------------------------------------------------------------------
                              ORCA PROPERTY CALCULATIONS
------------------------------------------------------------------------------

GBWName                                 ... sp.gbw
Number of atoms                         ...     19
Number of basis functions               ...    146
Max core memory                         ...   1024 MB

Electric properties:
Dipole moment                           ... YES
Quadrupole moment                       ...  NO
Static polarizability (Dipole/Dipole)   ...  NO
Static polarizability (Dipole/Quad.)    ...  NO
Static polarizability (Quad./Quad.)     ...  NO
Static polarizability (Velocity)        ...  NO

Atomic electric properties:
Dipole moment                           ...  NO
Quadrupole moment                       ...  NO
Static polarizability                   ...  NO

Choice of electric origin               ... Center of mass
Position of electric origin             ...    -0.000023     0.000000    -0.000000

General magnetic properties:
Magnetizability                         ...  NO

EPR properties:
g-Tensor (aka g-matrix)                 ...  NO
Zero-Field splitting spin-orbit         ...  NO
Zero-field splitting spin-spin          ...  NO
Hyperfine couplings                     ...  NO (   0 nuclei)
Quadrupole couplings                    ...  NO (   0 nuclei)
Contact density                         ...  NO (   0 nuclei)

NMR properties:
Chemical shifts                         ...  NO (   0 nuclei)
Spin-rotation constants                 ...  NO (   0 nuclei)
Spin-spin couplings                     ...  NO (   0 nuclei,    0 pairs)

Choice of magnetic origin               ... GIAO
Position of magnetic origin             ...     0.000000     0.000000     0.000000

Properties with geometric perturbations:
SCF Hessian                             ...  NO
IR spectrum                             ...  NO
VCD spectrum                            ...  NO
X-ray spectroscopy properties:
SCF XES/XAS/RIXS spectra                ...  NO


-------------
DIPOLE MOMENT
-------------

Method             : SCF
Type of density    : Electron Density
Multiplicity       :   1
Irrep              :   0
Energy             :  -385.2983679879633883 Eh
Relativity type    : 
Basis              : AO
                                X                 Y                 Z
Electronic contribution:      5.446820095      -3.244265410      -0.000895416
Nuclear contribution   :     -5.132062545       3.084427213       0.001338663
                        -----------------------------------------
Total Dipole Moment    :      0.314757550      -0.159838197       0.000443246
                        -----------------------------------------
Magnitude (a.u.)       :      0.353016658
Magnitude (Debye)      :      0.897297035



--------------------
Rotational spectrum 
--------------------
 
Rotational constants in cm-1:             0.076004             0.059428             0.033767 
Rotational constants in MHz :          2278.545951          1781.593729          1012.314469 

Dipole components along the rotational axes: 
x,y,z [a.u.] :     0.305765    -0.176432     0.000445 
x,y,z [Debye]:     0.777194    -0.448454     0.001130 

 

Dipole moment calculation done in   0.0 sec 

Maximum memory used throughout the entire PROP-calculation: 9.2 MB

--------------------------------
SUGGESTED CITATIONS FOR THIS RUN
--------------------------------

Below you find a list of papers that are relevant to this ORCA run
We neither can nor want to force you to cite these papers, but we appreciate if you do
You receive ORCA, which is the product of decades of hard work by many enthusiastic individuals, for free
The only thing we kindly ask in return is that you cite our papers,
We deeply appreciate it, if you show your appreciation for ORCA by not just citing the generic ORCA reference.

Please note that relegating all ORCA citations to the supporting information does *not* help us.
SI sections are not indexed - citations you put there will not count into any citation statistics
But we need these citations in order to attract the funding resources that allow us to do what we are doing

Therefore, if you are a happy ORCA user, please consider citing a few of the papers listed below in the main body of your paper

In addition to the list printed below, the program has created the file sp.bibtex that contains the list in bibtex format
You can import this file easily into all common literature databanks and citation aid programs


List of essential papers. We consider these as the minimum necessary citations

  1. Neese,F.
     Software update: the ORCA program system, version 5.0
     WIRES Comput. Molec. Sci., 2022 12(1)e1606
     doi.org/10.1002/wcms.1606

List of papers to cite with high priority. The work reported in these papers was absolutely
necessary for this run to complete.
Our perspective: the developers of density functionals and basis sets usually get cited in chemistry papers
Good! But without the algorithms to do something with them, the functionals or basis sets would not do anything.
Hence, in our opinion, the algorithm design and method developments papers are equally worthy of getting cited

  1. Neese,F.
     An improvement of the resolution of the identity approximation for the formation of the Coulomb matrix
     J. Comp. Chem., 2003 24(14)1740-1747
     doi.org/10.1002/jcc.10318
  2. Neese,F.
     The SHARK Integral Generation and Digestion System
     J. Comp. Chem., 2022  1-16
     doi.org/10.1002/jcc.26942
  3. Caldeweyher,E.; Bannwarth,C.; Grimme,S.
     Extension of the D3 dispersion coefficient model
     J. Chem. Phys., 2017 147 034112
     doi.org/10.1063/1.4993215
  4. Caldeweyher,E.; Ehlert,S.; Hansen,A.; Neugebauer,H.; Spicher,S.; Bannwarth,C.; Grimme,S.
     A generally applicable atomic-charge dependent London dispersion correction
     J. Chem. Phys., 2019 150 154122
     doi.org/10.1063/1.5090222
  5. Caldeweyher,E.; Mewes,J.; Ehlert,S.; Grimme,S.
     Extension and evaluation of the D4 London-dispersion model for periodic systems
     Phys. Chem. Chem. Phys., 2020 22(16)8499-8512
     doi.org/10.1039/D0CP00502A
  6. Wittmann,L.; Gordiy,I.; Friede,M.; Helmich-Paris,B.; Grimme,S.; Hansen,A.; Bursch,M.
     Extension of the D3 and D4 London Dispersion Corrections to the full Actinides Series
     Phys. Chem. Chem. Phys., 2024 26(32)21379-21394
     doi.org/https://doi.org/10.1039/D4CP01514B 

List of suggested additional citations. These are papers that are important in the 'surrounding' of 
of this run, or papers that preceded the highly important papers. If you like your results we are grateful for a citation.

  1. Neese,F.
     The ORCA program system
     WIRES Comput. Molec. Sci., 2012 2(1)73-78
     doi.org/10.1002/wcms.81
  2. Neese,F.
     Software update: the ORCA program system, version 4.0
     WIRES Comput. Molec. Sci., 2018 8(1)1-6
     doi.org/10.1002/wcms.1327
  3. Neese,F.; Wennmohs,F.; Becker,U.; Riplinger,C.
     The ORCA quantum chemistry program package
     J. Chem. Phys., 2020 152 Art. No. L224108
     doi.org/10.1063/5.0004608

List of optional additional citations

  1. Neese,F.
     Approximate second-order SCF convergence for spin unrestricted wavefunctions
     Chem. Phys. Lett., 2000 325(1-3)93-98
     doi.org/10.1016/s0009-2614(00)00662-x

Timings for individual modules:

Sum of individual times          ...        3.355 sec (=   0.056 min)
Startup calculation              ...        0.286 sec (=   0.005 min)   8.5 %
SCF iterations                   ...        3.033 sec (=   0.051 min)  90.4 %
Property calculations            ...        0.036 sec (=   0.001 min)   1.1 %
                             ****ORCA TERMINATED NORMALLY****
TOTAL RUN TIME: 0 days 0 hours 0 minutes 3 seconds 431 msec
