
                                 *****************
                                 * O   R   C   A *
                                 *****************

                                            #,                                       
                                            ###                                      
                                            ####                                     
                                            #####                                    
                                            ######                                   
                                           ########,                                 
                                     ,,################,,,,,                         
                               ,,#################################,,                 
                          ,,##########################################,,             
                       ,#########################################, ''#####,          
                    ,#############################################,,   '####,        
                  ,##################################################,,,,####,       
                ,###########''''           ''''###############################       
              ,#####''   ,,,,##########,,,,          '''####'''          '####       
            ,##' ,,,,###########################,,,                        '##       
           ' ,,###''''                  '''############,,,                           
         ,,##''                                '''############,,,,        ,,,,,,###''
      ,#''                                            '''#######################'''  
     '                                                          ''''####''''         
             ,#######,   #######,   ,#######,      ##                                
            ,#'     '#,  ##    ##  ,#'     '#,    #''#        ,####,   ,####,        
            ##       ##  ##   ,#'  ##            #'  '#       #'       #'  '#        
            ##       ##  #######   ##           ,######,      #####,   #    #        
            '#,     ,#'  ##    ##  '#,     ,#' ,#      #,     #,   #   #,  ,#        
             '#######'   ##     ##  '#######'  #'      '#     '####' # '####'        



                #########################################################
                #                        -***-                          #
                #          Department of theory and spectroscopy        #
                #                                                       #
                #                      Frank Neese                      #
                #                                                       #
                #     Directorship, Architecture, Infrastructure        #
                #                    SHARK, DRIVERS                     #
                #        Core code/Algorithms in most modules           #
                #                                                       #
                #        Max Planck Institute fuer Kohlenforschung      #
                #                Kaiser Wilhelm Platz 1                 #
                #                 D-45470 Muelheim/Ruhr                 #
                #                      Germany                          #
                #                                                       #
                #                  All rights reserved                  #
                #                        -***-                          #
                #########################################################


                         Program Version 6.0.1  -  RELEASE   -


 With contributions from (in alphabetic order):
[Max-Planck-Institut fuer Kohlenforschung]                               
  Daniel Aravena         : Magnetic Suceptibility                        
  Michael Atanasov       : Ab Initio Ligand Field Theory (pilot matlab implementation)
  Alexander A. Auer      : GIAO ZORA, VPT2 properties, NMR spectrum      
  Ute Becker             : All parallelization in ORCA, NUMFREQ, NUMCALC 
  Giovanni Bistoni       : ED, misc. LED, open-shell LED, HFLD           
  Martin Brehm           : Molecular dynamics                            
  Dmytro Bykov           : pre 5.0 version of the SCF Hessian            
  Marcos Casanova-Páez   : Triplet and SCS-CIS(D). UHF-(DLPNO)-IP/EA/STEOM-CCSD. UHF-CVS-IP/STEOM-CCSD   
  Vijay G. Chilkuri      : MRCI spin determinant printing, contributions to CSF-ICE 
  Pauline Colinet        : FMM embedding                                 
  Dipayan Datta          : RHF DLPNO-CCSD density                        
  Achintya Kumar Dutta   : EOM-CC, STEOM-CC                              
  Nicolas Foglia         : Exact transition moments, OPA infrastructure, MCD improvements    
  Dmitry Ganyushin       : Spin-Orbit,Spin-Spin,Magnetic field MRCI      
  Miquel Garcia-Rates    : C-PCM and meta-GGA Hessian, CCSD/C-PCM, Gaussian charge scheme 
  Tiago L. C. Gouveia    : GS-ROHF, GS-ROCIS                             
  Yang Guo               : DLPNO-NEVPT2, F12-NEVPT2, CIM, IAO-localization        
  Andreas Hansen         : Spin unrestricted coupled pair/coupled cluster methods 
  Ingolf Harden          : AUTO-CI MPn and infrastructure                
  Benjamin Helmich-Paris : MC-RPA, TRAH-(SCF,CASSCF), AVAS, COSX integrals, SCF dyn. polar. 
  Lee Huntington         : MR-EOM, pCC                                   
  Robert Izsak           : Overlap fitted RIJCOSX, COSX-SCS-MP3, EOM     
  Riya Kayal             : Wick's Theorem for AUTO-CI, AUTO-CI UHF-CCSDT 
  Emily Kempfer          : AUTO-CI, RHF CISDT and CCSDT                  
  Christian Kollmar      : KDIIS, OOCD, Brueckner-CCSD(T), CCSD density, CASPT2, CASPT2-K, improved NEVPT2 
  Axel Koslowski         : Symmetry handling                             
  Simone Kossmann        : meta-GGA functionals, TD-DFT gradient, OOMP2, (MP2 Hessian; deprecated post 5.0) 
  Lucas Lang             : DCDCAS                                        
  Marvin Lechner         : AUTO-CI (C++ implementation), FIC-MRCC        
  Spencer Leger          : CASSCF response                               
  Dagmar Lenk            : GEPOL surface, SMD, ORCA-2-JSON               
  Dimitrios Liakos       : Extrapolation schemes; Compound Job, initial MDCI parallelization 
  Dimitrios Manganas     : Further ROCIS development; embedding schemes. LFT, Crystal Embedding 
  Dimitrios Pantazis     : SARC Basis sets                               
  Anastasios Papadopoulos: AUTO-CI, single reference methods and gradients 
  Taras Petrenko         : pre 6.0 DFT Hessian and TD-DFT gradient, (ASA, deprecated), ECA, 1-Electron XAS/XES, NRVS 
  Peter Pinski           : DLPNO-MP2, DLPNO-MP2 Gradient                 
  Christoph Reimann      : Effective Core Potentials                     
  Marius Retegan         : Local ZFS, SOC                                
  Christoph Riplinger    : Optimizer, TS searches, QM/MM, DLPNO-CCSD(T), (RO)-DLPNO pert. Triples 
  Michael Roemelt        : Original ROCIS implementation                 
  Masaaki Saitow         : Open-shell DLPNO-CCSD energy and density      
  Barbara Sandhoefer     : DKH picture change effects                    
  Kantharuban Sivalingam : CASSCF convergence/infrastructure, NEVPT2 and variants, FIC-MRCI 
  Bernardo de Souza      : ESD, SOC TD-DFT                               
  Georgi L. Stoychev     : AutoAux, RI-MP2 NMR, DLPNO-MP2 response, X2C  
  Van Anh Tran           : RI-MP2 g-tensors                              
  Willem Van den Heuvel  : Paramagnetic NMR                              
  Zikuan Wang            : NOTCH, Electric field optimization            
  Frank Wennmohs         : Technical directorship and infrastructure     
  Hang Xu                : AUTO-CI-Response properties                   
                                                                         
[FACCTs GmbH]                                                            
  Markus Bursch, Miquel Garcia-Rates, Christoph Riplinger, Bernardo de Souza, Georgi L. Stoychev 
                                                                 
  APM, Basis sets (HGBS, AHGBS, def-TZVP (Ac-Lr), def2-XVPD (La-Lu)), CI-OPT, improved COSX, DLPNO-Multilevel,           
  DOCKER, DRACO, updates on ESD, GOAT, IRC, LR-CPCM, MBIS, meta-GGA TD-DFT gradient, ML-optimized integration grids, 
  MM, NACMEs, nearIR, NEB, NEB-TS, NL-DFT gradient (VV10), 2- and 3-layer-ONIOM, interface openCOSMO-RS, QMMM,   
  Crystal-QMMM, SF, symmetry and pop. for TD-DFT, r2SCAN hybrids, SOLVATOR                                   
                                                                         
[Other institutions]                                                     
  V. Asgeirsson          : NEB                                           
  Christoph Bannwarth    : sTDA-DFT, sTD-DFT, PBEh-3c, B97-3c, D3        
  Sebastian Ehlert       : rSCAN, r2SCAN, r2SCAN-3c, D4, dhf basis sets  
  Marvin Friede          : D4 for Fr, Ra, Ac-Lr                          
  Lars Goerigk           : TD-DFT with DH, B97 family of functionals     
  Stefan Grimme          : VdW corrections, initial TS optimization, DFT functionals, gCP, sTDA/sTD-DF 
  Waldemar Hujo          : DFT-NL                                        
  H. Jonsson             : NEB                                           
  Holger Kruse           : gCP                                           
  Marcel Mueller         : wB97X-3c, vDZP basis set                      
  Hagen Neugebauer       : wr2SCAN                                       
  Tobias Risthaus        : range-separated hybrid DFT                    
  Lukas Wittmann         : regularized MP2, r2SCAN double-hybrids, wr2SCAN        
                                                                         
We gratefully acknowledge several colleagues who have allowed us to      
interface, adapt or use parts of their codes:                            
  Ed Valeev, F. Pavosevic, A. Kumar             : LibInt (2-el integral package), F12 methods 
  Garnet Chan, S. Sharma, J. Yang, R. Olivares  : DMRG                   
  Ulf Ekstrom                                   : XCFun DFT Library      
  Mihaly Kallay                                 : mrcc  (arbitrary order and MRCC methods)
  Frank Weinhold                                : gennbo (NPA and NBO analysis)           
  Simon Mueller                                 : openCOSMO-RS                            
  Christopher J. Cramer and Donald G. Truhlar   : smd solvation model                     
  S Lehtola, MJT Oliveira, MAL Marques          : LibXC Library                           
  Liviu Ungur et al                             : ANISO software                          


 Your calculation uses the libint2 library for the computation of 2-el integrals
 For citations please refer to: http://libint.valeyev.net

 Your ORCA version has been built with support for libXC version: 6.2.2
 For citations please refer to: https://libxc.gitlab.io

 This ORCA versions uses:
   CBLAS   interface :  Fast vector & matrix operations
   LAPACKE interface :  Fast linear algebra routines
   SCALAPACK package :  Parallel linear algebra routines
   Shared memory     :  Shared parallel matrices
   BLAS/LAPACK       :  OpenBLAS 0.3.27  USE64BITINT DYNAMIC_ARCH NO_AFFINITY Zen SINGLE_THREADED
        Core in use  :  Zen
   Copyright (c) 2011-2014, The OpenBLAS Project


Your calculation utilizes the geometrical counterpoise correction gCP
Please cite in your paper:
H.Kruse, S. Grimme J.Chem.Phys., 136, (2012), 154101 
   

Your calculation utilizes the atom-pairwise dispersion correction
based on EEQ partial charges (D4)


================================================================================

----- Orbital basis set information -----
Your calculation utilizes the basis: def2-SV(P)
   F. Weigend and R. Ahlrichs, Phys. Chem. Chem. Phys. 7, 3297 (2005).

----- AuxJ basis set information -----
Your calculation utilizes the auxiliary basis: def2/J
   F. Weigend, Phys. Chem. Chem. Phys. 8, 1057 (2006).

================================================================================
                                        WARNINGS
                       Please study these warnings very carefully!
================================================================================


================================================================================
                                       INPUT FILE
================================================================================
NAME = sp.inp
|  1> ! pbe def2-sv(p) def2/J RI DEFGRID1 loosescf d4 GCP(DFT/SV(P)) printgap
|  2> %output
|  3>     printlevel normal
|  4> end
|  5> * xyz 0 1
|  6> C 2.3935414333 4.53209e-05 0.0410479996
|  7> N 0.9852669373 3.15933e-05 -0.2846996333
|  8> C 0.316123241 1.1860151156 0.2183415466
|  9> C -1.1380369816 1.1882974854 -0.2432247007
| 10> N -1.7905642551 -5.52509e-05 0.2732531537
| 11> C -1.1379252029 -1.1883389526 -0.2432437186
| 12> C 0.3162260045 -1.1859958921 0.2183451723
| 13> H 2.8587697279 -0.8847400401 -0.3916676221
| 14> H 2.581123427 -0.0001810821 1.1270439564
| 15> H 2.858645198 0.8851007303 -0.3912493156
| 16> H 0.3406143124 1.2243913542 1.3220464675
| 17> H 0.8279158614 2.0681147883 -0.1740103184
| 18> H -1.6495273106 2.0702350498 0.1488967126
| 19> H -1.1546330241 1.2272424836 -1.3463876241
| 20> H -2.7735144335 -8.53985e-05 0.017952851
| 21> H -1.6493310658 -2.0703284994 0.148864921
| 22> H -1.1545103629 -1.2272800356 -1.3464069225
| 23> H 0.3407021285 -1.2243565979 1.322055626
| 24> H 0.8281029145 -2.0680589918 -0.1739897234
| 25> *
| 26> 
| 27>                          ****END OF INPUT****
================================================================================

                       ****************************
                       * Single Point Calculation *
                       ****************************

---------------------------------
CARTESIAN COORDINATES (ANGSTROEM)
---------------------------------
  C      2.393541    0.000045    0.041048
  N      0.985267    0.000032   -0.284700
  C      0.316123    1.186015    0.218342
  C     -1.138037    1.188297   -0.243225
  N     -1.790564   -0.000055    0.273253
  C     -1.137925   -1.188339   -0.243244
  C      0.316226   -1.185996    0.218345
  H      2.858770   -0.884740   -0.391668
  H      2.581123   -0.000181    1.127044
  H      2.858645    0.885101   -0.391249
  H      0.340614    1.224391    1.322046
  H      0.827916    2.068115   -0.174010
  H     -1.649527    2.070235    0.148897
  H     -1.154633    1.227242   -1.346388
  H     -2.773514   -0.000085    0.017953
  H     -1.649331   -2.070328    0.148865
  H     -1.154510   -1.227280   -1.346407
  H      0.340702   -1.224357    1.322056
  H      0.828103   -2.068059   -0.173990

----------------------------
CARTESIAN COORDINATES (A.U.)
----------------------------
  NO LB      ZA    FRAG     MASS         X           Y           Z
   0 C     6.0000    0    12.011    4.523138    0.000086    0.077569
   1 N     7.0000    0    14.007    1.861885    0.000060   -0.538004
   2 C     6.0000    0    12.011    0.597386    2.241244    0.412606
   3 C     6.0000    0    12.011   -2.150578    2.245557   -0.459628
   4 N     7.0000    0    14.007   -3.383676   -0.000104    0.516374
   5 C     6.0000    0    12.011   -2.150367   -2.245635   -0.459664
   6 C     6.0000    0    12.011    0.597581   -2.241207    0.412613
   7 H     1.0000    0     1.008    5.402292   -1.671916   -0.740145
   8 H     1.0000    0     1.008    4.877616   -0.000342    2.129804
   9 H     1.0000    0     1.008    5.402057    1.672598   -0.739354
  10 H     1.0000    0     1.008    0.643668    2.313764    2.498306
  11 H     1.0000    0     1.008    1.564534    3.908171   -0.328832
  12 H     1.0000    0     1.008   -3.117155    3.912177    0.281374
  13 H     1.0000    0     1.008   -2.181940    2.319152   -2.544304
  14 H     1.0000    0     1.008   -5.241183   -0.000161    0.033926
  15 H     1.0000    0     1.008   -3.116784   -3.912354    0.281314
  16 H     1.0000    0     1.008   -2.181708   -2.319223   -2.544340
  17 H     1.0000    0     1.008    0.643834   -2.313699    2.498323
  18 H     1.0000    0     1.008    1.564888   -3.908065   -0.328793

--------------------------------
INTERNAL COORDINATES (ANGSTROEM)
--------------------------------
 C      0   0   0     0.000000000000     0.00000000     0.00000000
 N      1   0   0     1.445457912432     0.00000000     0.00000000
 C      2   1   0     1.451675111773   111.77656388     0.00000000
 C      3   2   1     1.525657419885   109.61696690   175.67375590
 N      4   3   2     1.450766501756   108.64923511    60.02808768
 C      5   4   3     1.450767006544   109.98893827   298.99430865
 C      2   1   3     1.451664920816   111.77339202   236.77144156
 H      1   2   3     1.089277425819   109.06129437   182.36519411
 H      1   2   3     1.102077254009   112.82391015    61.62657083
 H      1   2   3     1.089277539645   109.06072195   300.89027438
 H      3   2   1     1.104643426942   111.37023210   296.21069813
 H      3   2   1     1.092690031456   108.61450602    55.86525556
 H      4   3   2     1.092334851100   109.81079077   178.96544581
 H      4   3   2     1.103974898753   108.46315305   297.81014927
 H      5   4   3     1.015563537492   110.23469087   177.23476664
 H      6   5   4     1.092332688572   108.84073807   180.55060686
 H      6   5   4     1.103974877394   112.20291987   301.08803295
 H      7   2   1     1.104648084234   111.37039345    63.79222176
 H      7   2   1     1.092693897314   108.61452434   304.13748385

---------------------------
INTERNAL COORDINATES (A.U.)
---------------------------
 C      0   0   0     0.000000000000     0.00000000     0.00000000
 N      1   0   0     2.731519592606     0.00000000     0.00000000
 C      2   1   0     2.743268396680   111.77656388     0.00000000
 C      3   2   1     2.883074697768   109.61696690   175.67375590
 N      4   3   2     2.741551372587   108.64923511    60.02808768
 C      5   4   3     2.741552326498   109.98893827   298.99430865
 C      2   1   3     2.743249138562   111.77339202   236.77144156
 H      1   2   3     2.058436018661   109.06129437   182.36519411
 H      1   2   3     2.082624188502   112.82391015    61.62657083
 H      1   2   3     2.058436233761   109.06072195   300.89027438
 H      3   2   1     2.087473552557   111.37023210   296.21069813
 H      3   2   1     2.064884908717   108.61450602    55.86525556
 H      4   3   2     2.064213715118   109.81079077   178.96544581
 H      4   3   2     2.086210217366   108.46315305   297.81014927
 H      5   4   3     1.919136957457   110.23469087   177.23476664
 H      6   5   4     2.064209628530   108.84073807   180.55060686
 H      6   5   4     2.086210177003   112.20291987   301.08803295
 H      7   2   1     2.087482353563   111.37039345    63.79222176
 H      7   2   1     2.064892214131   108.61452434   304.13748385

---------------------
BASIS SET INFORMATION
---------------------
There are 3 groups of distinct atoms

 Group   1 Type C   : 7s4p1d contracted to 3s2p1d pattern {511/31/1}
 Group   2 Type N   : 7s4p1d contracted to 3s2p1d pattern {511/31/1}
 Group   3 Type H   : 4s contracted to 2s pattern {31}

Atom   0C    basis set group =>   1
Atom   1N    basis set group =>   2
Atom   2C    basis set group =>   1
Atom   3C    basis set group =>   1
Atom   4N    basis set group =>   2
Atom   5C    basis set group =>   1
Atom   6C    basis set group =>   1
Atom   7H    basis set group =>   3
Atom   8H    basis set group =>   3
Atom   9H    basis set group =>   3
Atom  10H    basis set group =>   3
Atom  11H    basis set group =>   3
Atom  12H    basis set group =>   3
Atom  13H    basis set group =>   3
Atom  14H    basis set group =>   3
Atom  15H    basis set group =>   3
Atom  16H    basis set group =>   3
Atom  17H    basis set group =>   3
Atom  18H    basis set group =>   3
---------------------------------
AUXILIARY/J BASIS SET INFORMATION
---------------------------------
There are 3 groups of distinct atoms

 Group   1 Type C   : 12s5p4d2f1g contracted to 6s4p3d1f1g pattern {711111/2111/211/2/1}
 Group   2 Type N   : 12s5p4d2f1g contracted to 6s4p3d1f1g pattern {711111/2111/211/2/1}
 Group   3 Type H   : 5s2p1d contracted to 3s1p1d pattern {311/2/1}

Atom   0C    basis set group =>   1
Atom   1N    basis set group =>   2
Atom   2C    basis set group =>   1
Atom   3C    basis set group =>   1
Atom   4N    basis set group =>   2
Atom   5C    basis set group =>   1
Atom   6C    basis set group =>   1
Atom   7H    basis set group =>   3
Atom   8H    basis set group =>   3
Atom   9H    basis set group =>   3
Atom  10H    basis set group =>   3
Atom  11H    basis set group =>   3
Atom  12H    basis set group =>   3
Atom  13H    basis set group =>   3
Atom  14H    basis set group =>   3
Atom  15H    basis set group =>   3
Atom  16H    basis set group =>   3
Atom  17H    basis set group =>   3
Atom  18H    basis set group =>   3
------------------------------------------------------------------------------
                             ORCA STARTUP CALCULATIONS
                           -- RI-GTO INTEGRALS CHOSEN --
------------------------------------------------------------------------------
------------------------------------------------------------------------------
                   ___                                                        
                  /   \      - P O W E R E D   B Y -                         
                 /     \                                                     
                 |  |  |   _    _      __       _____    __    __             
                 |  |  |  | |  | |    /  \     |  _  \  |  |  /  |          
                  \  \/   | |  | |   /    \    | | | |  |  | /  /          
                 / \  \   | |__| |  /  /\  \   | |_| |  |  |/  /          
                |  |  |   |  __  | /  /__\  \  |    /   |      \           
                |  |  |   | |  | | |   __   |  |    \   |  |\   \          
                \     /   | |  | | |  |  |  |  | |\  \  |  | \   \       
                 \___/    |_|  |_| |__|  |__|  |_| \__\ |__|  \__/        
                                                                              
                      - O R C A' S   B I G   F R I E N D -                    
                                      &                                       
                       - I N T E G R A L  F E E D E R -                       
                                                                              
 v1 FN, 2020, v2 2021, v3 2022-2024                                           
------------------------------------------------------------------------------


----------------------
SHARK INTEGRAL PACKAGE
----------------------

Number of atoms                             ...     19
Number of basis functions                   ...    122
Number of shells                            ...     66
Maximum angular momentum                    ...      2
Integral batch strategy                     ... SHARK/LIBINT Hybrid
RI-J (if used) integral strategy            ... SPLIT-RIJ (Revised 2003 algorithm where possible)
Printlevel                                  ...      1
Contraction scheme used                     ... SEGMENTED contraction
Prescreening option                         ... SCHWARTZ
   Thresh                                   ... 1.000e-09
   Tcut                                     ... 1.000e-10
   Tpresel                                  ... 1.000e-10 
Coulomb Range Separation                    ... NOT USED
Exchange Range Separation                   ... NOT USED
Multipole approximations                    ... NOT USED
Finite Nucleus Model                        ... NOT USED
CABS basis                                  ... NOT available
Auxiliary Coulomb fitting basis             ... AVAILABLE
   # of basis functions in Aux-J            ...    475
   # of shells in Aux-J                     ...    165
   Maximum angular momentum in Aux-J        ...      4
Auxiliary J/K fitting basis                 ... NOT available
Auxiliary Correlation fitting basis         ... NOT available
Auxiliary 'external' fitting basis          ... NOT available

Checking pre-screening integrals            ... done (  0.0 sec) Dimension = 66
Check shell pair data                       ... done (  0.0 sec)
Shell pair information
Shell pair cut-off parameter TPreSel        ...   1.0e-10
Total number of shell pairs                 ...      2211
Shell pairs after pre-screening             ...      2167
Total number of primitive shell pairs       ...      8905
Primitive shell pairs kept                  ...      6386
          la=0 lb=0:   1000 shell pairs
          la=1 lb=0:    628 shell pairs
          la=1 lb=1:    105 shell pairs
          la=2 lb=0:    308 shell pairs
          la=2 lb=1:     98 shell pairs
          la=2 lb=2:     28 shell pairs

Calculating one electron integrals          ... done (  0.0 sec)
Calculating RI/J V-Matrix + Cholesky decomp.... done (  0.0 sec)
Calculating Nuclear repulsion               ... done (  0.0 sec) ENN=    339.999901359260 Eh

Diagonalization of the overlap matrix:
Smallest eigenvalue                        ... 1.334e-03
Time for diagonalization                   ...    0.001 sec
Threshold for overlap eigenvalues          ... 1.000e-07
Number of eigenvalues below threshold      ... 0
Time for construction of square roots      ...    0.000 sec
Total time needed                          ...    0.003 sec

-------------------
DFT GRID GENERATION
-------------------

General Integration Accuracy     IntAcc      ... 4.159
Radial Grid Type                 RadialGrid  ... OptM3 with GC (2021)
Angular Grid (max. ang.)         AngularGrid ... 3 (Lebedev-194)
Angular grid pruning method      GridPruning ... 4 (adaptive)
Weight generation scheme         WeightScheme... mBecke (2022)
Basis function cutoff            BFCut       ... 1.0000e-10
Integration weight cutoff        WCut        ... 1.0000e-14
Partially contracted basis set               ... off
Rotationally invariant grid construction     ... off
Angular grids for H and He will be reduced by one unit

Total number of grid points                  ...    39399
Total number of batches                      ...      626
Average number of points per batch           ...       62
Average number of grid points per atom       ...     2074
Initializing property integral containers    ... done (  0.0 sec)

SHARK setup successfully completed in   0.2 seconds

Maximum memory used throughout the entire STARTUP-calculation: 19.6 MB
-------------------------------------------------------------------------------
                                 ORCA GUESS
                   Start orbitals & Density for SCF / CASSCF
-------------------------------------------------------------------------------

------------
SCF SETTINGS
------------
Hamiltonian:
 Density Functional     Method          .... DFT(GTOs)
 Exchange Functional    Exchange        .... PBE
   PBE kappa parameter   XKappa         ....  0.804000
   PBE mue parameter    XMuePBE         ....  0.219520
 Correlation Functional Correlation     .... PBE
   PBE beta parameter  CBetaPBE         ....  0.066725
 LDA part of GGA corr.  LDAOpt          .... PW91-LDA
 Gradients option       PostSCFGGA      .... off
   NL short-range parameter             ....  6.400000
 RI-approximation to the Coulomb term is turned on
   Number of AuxJ basis functions       .... 475


General Settings:
 Integral files         IntName         .... sp
 Hartree-Fock type      HFTyp           .... RHF
 Total Charge           Charge          ....    0
 Multiplicity           Mult            ....    1
 Number of Electrons    NEL             ....   56
 Basis Dimension        Dim             ....  122
 Nuclear Repulsion      ENuc            ....    339.9999013593 Eh

Convergence Acceleration:
 AO-DIIS                CNVDIIS         .... on
   Start iteration      DIISMaxIt       ....    12
   Startup error        DIISStart       ....  0.200000
   # of expansion vecs  DIISMaxEq       ....     5
   Bias factor          DIISBfac        ....   1.050
   Max. coefficient     DIISMaxC        ....  10.000
 MO-DIIS                CNVKDIIS        .... off
 Trust-Rad. Augm. Hess. CNVTRAH         .... auto
   Auto Start mean grad. ratio tolernc. ....  1.125000
   Auto Start start iteration           ....    50
   Auto Start num. interpolation iter.  ....    10
   Max. Number of Micro iterations      ....    24
   Max. Number of Macro iterations      .... Maxiter - #DIIS iter
   Number of Davidson start vectors     ....     2
   Converg. threshold    (grad. norm)   ....   1.000e-04
   Grad. Scal. Fac. for Micro threshold ....   0.100
   Minimum threshold for Micro iter.    ....   1.000e-02
   NR start threshold (gradient norm)   ....   1.000e-04
   Initial trust radius                 ....   0.400
   Minimum AH scaling param. (alpha)    ....   1.000
   Maximum AH scaling param. (alpha)    .... 1000.000
   Quad. conv. algorithm                .... NR
   White noise on init. David. guess    .... on
   Maximum white noise                  ....   0.010
   Pseudo random numbers                .... off
   Inactive MOs                         .... canonical
   Orbital update algorithm             .... Taylor
   Preconditioner                       .... Diag
   Full preconditioner red. dimension   ....   250
 SOSCF                  CNVSOSCF        .... on
   Start iteration      SOSCFMaxIt      ....   150
   Startup grad/error   SOSCFStart      ....  0.003300
   Hessian update       SOSCFHessUp     .... L-BFGS
 Level Shifting         CNVShift        .... on
   Level shift para.    LevelShift      ....    0.2500
   Turn off err/grad.   ShiftErr        ....    0.0010
 Zerner damping         CNVZerner       .... off
 Static damping         CNVDamp         .... on
   Fraction old density DampFac         ....    0.7000
   Max. Damping (<1)    DampMax         ....    0.9800
   Min. Damping (>=0)   DampMin         ....    0.0000
   Turn off err/grad.   DampErr         ....    0.1000

SCF Procedure:
 Maximum # iterations   MaxIter         ....   125
 SCF integral mode      SCFMode         .... Direct
   Integral package                     .... SHARK and LIBINT hybrid scheme
 Reset frequency        DirectResetFreq ....    20
 Integral Threshold     Thresh          ....  1.000e-09 Eh
 Primitive CutOff       TCut            ....  1.000e-10 Eh

Convergence Tolerance:
 Convergence Check Mode ConvCheckMode   .... Total+1el-Energy
 Convergence forced     ConvForced      .... 0
 Energy Change          TolE            ....  1.000e-05 Eh
 1-El. energy change                    ....  1.000e-02 Eh
 Orbital Gradient       TolG            ....  1.000e-04
 Orbital Rotation angle TolX            ....  1.000e-04
 DIIS Error             TolErr          ....  5.000e-04

------------------------------
INITIAL GUESS: MODEL POTENTIAL
------------------------------
Loading Hartree-Fock densities                     ... done
Calculating cut-offs                               ... done
Initializing the effective Hamiltonian             ... done
Setting up the integral package (SHARK)            ... done
Starting the Coulomb interaction                   ... done (   0.1 sec)
Making the grid                                    ... done (   0.1 sec)
Mapping shells                                     ... done
Starting the XC term evaluation                    ... done (   0.1 sec)
  promolecular density results
     # of electrons  =     55.992000228
     EX              =    -42.244961967
     EC              =     -1.861272552
     EX+EC           =    -44.106234519
Transforming the Hamiltonian                       ... done (   0.0 sec)
Diagonalizing the Hamiltonian                      ... done (   0.0 sec)
Back transforming the eigenvectors                 ... done (   0.0 sec)
Now organizing SCF variables                       ... done
                      ------------------
                      INITIAL GUESS DONE (   0.2 sec)
                      ------------------
             **** ENERGY FILE WAS UPDATED (sp.en.tmp) ****
Finished Guess after   0.3 sec
Maximum memory used throughout the entire GUESS-calculation: 15.1 MB

-------------------------------------------------------------------------------------------
                                      ORCA LEAN-SCF
                              memory conserving SCF solver
-------------------------------------------------------------------------------------------

----------------------------------------D-I-I-S--------------------------------------------
Iteration    Energy (Eh)           Delta-E    RMSDP     MaxDP     DIISErr   Damp  Time(sec)
-------------------------------------------------------------------------------------------
               ***  Starting incremental Fock matrix formation  ***
    1    -306.3967873439856362     0.00e+00  5.11e-03  7.56e-02  2.07e-01  0.700   0.3
    2    -306.4880532714386732    -9.13e-02  3.69e-03  4.22e-02  8.30e-02  0.700   0.3
                               ***Turning on AO-DIIS***
    3    -306.5180330714906063    -3.00e-02  1.49e-03  1.46e-02  1.88e-02  0.700   0.3
    4    -306.5361301959946445    -1.81e-02  2.10e-03  2.33e-02  1.01e-02  0.000   0.3
    5    -306.5784094744844310    -4.23e-02  7.11e-04  8.95e-03  1.03e-02  0.000   0.3
                              *** Initializing SOSCF ***
---------------------------------------S-O-S-C-F--------------------------------------
Iteration    Energy (Eh)           Delta-E    RMSDP     MaxDP     MaxGrad    Time(sec)
--------------------------------------------------------------------------------------
    6    -306.5790231264493855    -6.14e-04  2.86e-04  3.56e-03  2.04e-03     0.5
               *** Restarting incremental Fock matrix formation ***
    7    -306.5790820713227163    -5.89e-05  2.32e-04  2.71e-03  4.88e-04     0.3
    8    -306.5790839604932785    -1.89e-06  5.42e-05  1.02e-03  4.11e-04     0.2
                 **** Energy Check signals convergence ****

               *****************************************************
               *                     SUCCESS                       *
               *           SCF CONVERGED AFTER   8 CYCLES          *
               *****************************************************

             **** ENERGY FILE WAS UPDATED (sp.en.tmp) ****

----------------
TOTAL SCF ENERGY
----------------

Total Energy       :       -306.57908396049328 Eh           -8342.44100 eV

Components:
Nuclear Repulsion  :        339.99990135925981 Eh            9251.86767 eV
Electronic Energy  :       -646.57898531975320 Eh          -17594.30867 eV
One Electron Energy:      -1087.48421481531022 Eh          -29591.94991 eV
Two Electron Energy:        440.90522949555708 Eh           11997.64124 eV

Virial components:
Potential Energy   :       -610.45877366094771 Eh          -16611.42774 eV
Kinetic Energy     :        303.87968970045443 Eh            8268.98674 eV
Virial Ratio       :          2.00888310193649

DFT components:
N(Alpha)           :       28.000100187362 electrons
N(Beta)            :       28.000100187362 electrons
N(Total)           :       56.000200374724 electrons
E(X)               :      -43.205998921564 Eh       
E(C)               :       -1.864212343309 Eh       
E(XC)              :      -45.070211264873 Eh       

---------------
SCF CONVERGENCE
---------------

  Last Energy change         ...    1.8892e-06  Tolerance :   1.0000e-05
  Last MAX-Density change    ...    1.0238e-03  Tolerance :   1.0000e-03
  Last RMS-Density change    ...    5.4225e-05  Tolerance :   1.0000e-04
  Last DIIS Error            ...    2.0392e-03  Tolerance :   5.0000e-04
  Last Orbital Gradient      ...    4.1058e-04  Tolerance :   1.0000e-04
  Last Orbital Rotation      ...    3.5004e-04  Tolerance :   1.0000e-04


----------------
ORBITAL ENERGIES
----------------

  NO   OCC          E(Eh)            E(eV) 
   0   2.0000     -13.978912      -380.3855 
   1   2.0000     -13.968282      -380.0963 
   2   2.0000      -9.903784      -269.4957 
   3   2.0000      -9.903781      -269.4956 
   4   2.0000      -9.902460      -269.4596 
   5   2.0000      -9.902455      -269.4595 
   6   2.0000      -9.897194      -269.3163 
   7   2.0000      -0.853481       -23.2244 
   8   2.0000      -0.803709       -21.8700 
   9   2.0000      -0.679891       -18.5008 
  10   2.0000      -0.641553       -17.4575 
  11   2.0000      -0.567826       -15.4513 
  12   2.0000      -0.559037       -15.2122 
  13   2.0000      -0.488786       -13.3006 
  14   2.0000      -0.464419       -12.6375 
  15   2.0000      -0.412350       -11.2206 
  16   2.0000      -0.409395       -11.1402 
  17   2.0000      -0.398494       -10.8436 
  18   2.0000      -0.395576       -10.7642 
  19   2.0000      -0.375852       -10.2274 
  20   2.0000      -0.348618        -9.4864 
  21   2.0000      -0.332181        -9.0391 
  22   2.0000      -0.321585        -8.7508 
  23   2.0000      -0.302953        -8.2438 
  24   2.0000      -0.289101        -7.8668 
  25   2.0000      -0.285185        -7.7603 
  26   2.0000      -0.176938        -4.8147 
  27   2.0000      -0.171360        -4.6630 
  28   0.0000       0.034207         0.9308 
  29   0.0000       0.051227         1.3940 
  30   0.0000       0.069346         1.8870 
  31   0.0000       0.079435         2.1615 
  32   0.0000       0.088307         2.4030 
  33   0.0000       0.105093         2.8597 
  34   0.0000       0.114930         3.1274 
  35   0.0000       0.122266         3.3270 
  36   0.0000       0.126050         3.4300 
  37   0.0000       0.132746         3.6122 
  38   0.0000       0.134844         3.6693 
*Only the first 10 virtual orbitals were printed.

                    ********************************
                    * MULLIKEN POPULATION ANALYSIS *
                    ********************************

-----------------------
MULLIKEN ATOMIC CHARGES
-----------------------
   0 C :   -0.144650
   1 N :   -0.319979
   2 C :   -0.059240
   3 C :   -0.032473
   4 N :   -0.368214
   5 C :   -0.032471
   6 C :   -0.059240
   7 H :    0.100575
   8 H :    0.066892
   9 H :    0.100569
  10 H :    0.053945
  11 H :    0.081751
  12 H :    0.080246
  13 H :    0.056193
  14 H :    0.203965
  15 H :    0.080241
  16 H :    0.056194
  17 H :    0.053946
  18 H :    0.081751
Sum of atomic charges:    0.0000000

--------------------------------
MULLIKEN REDUCED ORBITAL CHARGES
--------------------------------
  0 C s       :     3.074936  s :     3.074936
      pz      :     1.057037  p :     3.025673
      px      :     0.891819
      py      :     1.076817
      dz2     :     0.010630  d :     0.044041
      dxz     :     0.011074
      dyz     :     0.003632
      dx2y2   :     0.008958
      dxy     :     0.009748

  1 N s       :     3.518213  s :     3.518213
      pz      :     1.623439  p :     3.772405
      px      :     1.072760
      py      :     1.076206
      dz2     :     0.003189  d :     0.029362
      dxz     :     0.005798
      dyz     :     0.006306
      dx2y2   :     0.007431
      dxy     :     0.006637

  2 C s       :     3.009999  s :     3.009999
      pz      :     1.037476  p :     2.998678
      px      :     1.018916
      py      :     0.942286
      dz2     :     0.014549  d :     0.050563
      dxz     :     0.006303
      dyz     :     0.008636
      dx2y2   :     0.009319
      dxy     :     0.011756

  3 C s       :     2.978307  s :     2.978307
      pz      :     1.030528  p :     3.003293
      px      :     1.023948
      py      :     0.948816
      dz2     :     0.014666  d :     0.050874
      dxz     :     0.006317
      dyz     :     0.008934
      dx2y2   :     0.009327
      dxy     :     0.011629

  4 N s       :     3.507896  s :     3.507896
      pz      :     1.669687  p :     3.834078
      px      :     1.077158
      py      :     1.087233
      dz2     :     0.003127  d :     0.026240
      dxz     :     0.004521
      dyz     :     0.006542
      dx2y2   :     0.008554
      dxy     :     0.003497

  5 C s       :     2.978298  s :     2.978298
      pz      :     1.030527  p :     3.003300
      px      :     1.023940
      py      :     0.948833
      dz2     :     0.014666  d :     0.050874
      dxz     :     0.006318
      dyz     :     0.008933
      dx2y2   :     0.009327
      dxy     :     0.011629

  6 C s       :     3.010005  s :     3.010005
      pz      :     1.037477  p :     2.998671
      px      :     1.018922
      py      :     0.942272
      dz2     :     0.014550  d :     0.050564
      dxz     :     0.006302
      dyz     :     0.008637
      dx2y2   :     0.009318
      dxy     :     0.011757

  7 H s       :     0.899425  s :     0.899425

  8 H s       :     0.933108  s :     0.933108

  9 H s       :     0.899431  s :     0.899431

 10 H s       :     0.946055  s :     0.946055

 11 H s       :     0.918249  s :     0.918249

 12 H s       :     0.919754  s :     0.919754

 13 H s       :     0.943807  s :     0.943807

 14 H s       :     0.796035  s :     0.796035

 15 H s       :     0.919759  s :     0.919759

 16 H s       :     0.943806  s :     0.943806

 17 H s       :     0.946054  s :     0.946054

 18 H s       :     0.918249  s :     0.918249


------------------------
MULLIKEN OVERLAP CHARGES
------------------------
B(  0-C ,  1-N ) :   0.7658 B(  0-C ,  2-C ) :  -0.1194 B(  0-C ,  6-C ) :  -0.1194 
B(  0-C ,  7-H ) :   0.7571 B(  0-C ,  8-H ) :   0.6940 B(  0-C ,  9-H ) :   0.7570 
B(  1-N ,  2-C ) :   0.7519 B(  1-N ,  3-C ) :  -0.1118 B(  1-N ,  5-C ) :  -0.1119 
B(  1-N ,  6-C ) :   0.7519 B(  1-N ,  7-H ) :  -0.0603 B(  1-N ,  8-H ) :  -0.0663 
B(  1-N ,  9-H ) :  -0.0603 B(  1-N , 10-H ) :  -0.0845 B(  1-N , 11-H ) :  -0.0633 
B(  1-N , 17-H ) :  -0.0845 B(  1-N , 18-H ) :  -0.0633 B(  2-C ,  3-C ) :   0.8068 
B(  2-C ,  4-N ) :  -0.1127 B(  2-C ,  6-C ) :  -0.1290 B(  2-C , 10-H ) :   0.6076 
B(  2-C , 11-H ) :   0.6806 B(  2-C , 13-H ) :  -0.0589 B(  3-C ,  4-N ) :   0.7945 
B(  3-C ,  5-C ) :  -0.1433 B(  3-C , 12-H ) :   0.6738 B(  3-C , 13-H ) :   0.6448 
B(  3-C , 14-H ) :  -0.0620 B(  4-N ,  5-C ) :   0.7945 B(  4-N ,  6-C ) :  -0.1127 
B(  4-N , 13-H ) :  -0.0851 B(  4-N , 14-H ) :   0.6073 B(  4-N , 16-H ) :  -0.0851 
B(  5-C ,  6-C ) :   0.8068 B(  5-C , 14-H ) :  -0.0620 B(  5-C , 15-H ) :   0.6738 
B(  5-C , 16-H ) :   0.6448 B(  6-C , 16-H ) :  -0.0589 B(  6-C , 17-H ) :   0.6076 
B(  6-C , 18-H ) :   0.6806 B(  7-H ,  8-H ) :  -0.0765 B(  8-H ,  9-H ) :  -0.0765 
B( 10-H , 11-H ) :  -0.0774 B( 10-H , 17-H ) :   0.0529 B( 12-H , 13-H ) :  -0.0725 
B( 15-H , 16-H ) :  -0.0725 B( 17-H , 18-H ) :  -0.0774 


                     *******************************
                     * LOEWDIN POPULATION ANALYSIS *
                     *******************************

----------------------
LOEWDIN ATOMIC CHARGES
----------------------
   0 C :   -0.256942
   1 N :   -0.151225
   2 C :   -0.161681
   3 C :   -0.171989
   4 N :   -0.267568
   5 C :   -0.171989
   6 C :   -0.161682
   7 H :    0.112669
   8 H :    0.088986
   9 H :    0.112668
  10 H :    0.092410
  11 H :    0.112339
  12 H :    0.113287
  13 H :    0.092278
  14 H :    0.208127
  15 H :    0.113286
  16 H :    0.092278
  17 H :    0.092409
  18 H :    0.112339

-------------------------------
LOEWDIN REDUCED ORBITAL CHARGES
-------------------------------
  0 C s       :     2.948242  s :     2.948242
      pz      :     1.119840  p :     3.207840
      px      :     0.957367
      py      :     1.130633
      dz2     :     0.025733  d :     0.100860
      dxz     :     0.024173
      dyz     :     0.008620
      dx2y2   :     0.021468
      dxy     :     0.020865

  1 N s       :     3.141445  s :     3.141445
      pz      :     1.656506  p :     3.944596
      px      :     1.139697
      py      :     1.148393
      dz2     :     0.005757  d :     0.065183
      dxz     :     0.010240
      dyz     :     0.011924
      dx2y2   :     0.019596
      dxy     :     0.017667

  2 C s       :     2.913282  s :     2.913282
      pz      :     1.089333  p :     3.131119
      px      :     1.045045
      py      :     0.996742
      dz2     :     0.034279  d :     0.117280
      dxz     :     0.013867
      dyz     :     0.019551
      dx2y2   :     0.022750
      dxy     :     0.026833

  3 C s       :     2.909821  s :     2.909821
      pz      :     1.088113  p :     3.144374
      px      :     1.054406
      py      :     1.001855
      dz2     :     0.034819  d :     0.117794
      dxz     :     0.014191
      dyz     :     0.019845
      dx2y2   :     0.022780
      dxy     :     0.026159

  4 N s       :     3.193573  s :     3.193573
      pz      :     1.707004  p :     4.017873
      px      :     1.155414
      py      :     1.155455
      dz2     :     0.005281  d :     0.056122
      dxz     :     0.007173
      dyz     :     0.012263
      dx2y2   :     0.019954
      dxy     :     0.011451

  5 C s       :     2.909820  s :     2.909820
      pz      :     1.088112  p :     3.144376
      px      :     1.054400
      py      :     1.001864
      dz2     :     0.034819  d :     0.117794
      dxz     :     0.014193
      dyz     :     0.019843
      dx2y2   :     0.022780
      dxy     :     0.026159

  6 C s       :     2.913281  s :     2.913281
      pz      :     1.089331  p :     3.131119
      px      :     1.045050
      py      :     0.996738
      dz2     :     0.034280  d :     0.117282
      dxz     :     0.013866
      dyz     :     0.019552
      dx2y2   :     0.022750
      dxy     :     0.026834

  7 H s       :     0.887331  s :     0.887331

  8 H s       :     0.911014  s :     0.911014

  9 H s       :     0.887332  s :     0.887332

 10 H s       :     0.907590  s :     0.907590

 11 H s       :     0.887661  s :     0.887661

 12 H s       :     0.886713  s :     0.886713

 13 H s       :     0.907722  s :     0.907722

 14 H s       :     0.791873  s :     0.791873

 15 H s       :     0.886714  s :     0.886714

 16 H s       :     0.907722  s :     0.907722

 17 H s       :     0.907591  s :     0.907591

 18 H s       :     0.887661  s :     0.887661


---------------------------------
LOEWDIN BOND ORDERS (THRESH 0.050000)
---------------------------------
B(  0-C ,  1-N ) :   1.1380 B(  0-C ,  2-C ) :   0.0677 B(  0-C ,  6-C ) :   0.0677 
B(  0-C ,  7-H ) :   0.9397 B(  0-C ,  8-H ) :   0.9258 B(  0-C ,  9-H ) :   0.9397 
B(  1-N ,  2-C ) :   1.1059 B(  1-N ,  3-C ) :   0.0552 B(  1-N ,  5-C ) :   0.0552 
B(  1-N ,  6-C ) :   1.1059 B(  2-C ,  3-C ) :   1.0948 B(  2-C ,  4-N ) :   0.0599 
B(  2-C ,  6-C ) :   0.0607 B(  2-C , 10-H ) :   0.8881 B(  2-C , 11-H ) :   0.9042 
B(  3-C ,  4-N ) :   1.1540 B(  3-C ,  5-C ) :   0.0628 B(  3-C , 12-H ) :   0.9098 
B(  3-C , 13-H ) :   0.8954 B(  4-N ,  5-C ) :   1.1540 B(  4-N ,  6-C ) :   0.0599 
B(  4-N , 14-H ) :   0.8808 B(  5-C ,  6-C ) :   1.0948 B(  5-C , 15-H ) :   0.9098 
B(  5-C , 16-H ) :   0.8954 B(  6-C , 17-H ) :   0.8881 B(  6-C , 18-H ) :   0.9041 


------------------------------------------
LOEWDIN REDUCED ORBITAL POPULATIONS PER MO
-------------------------------------------
THRESHOLD FOR PRINTING IS 0.1%%
                      0         1         2         3         4         5   
                 -13.97891 -13.96828  -9.90378  -9.90378  -9.90246  -9.90246
                   2.00000   2.00000   2.00000   2.00000   2.00000   2.00000
                  --------  --------  --------  --------  --------  --------
 1 N  s              99.8       0.0       0.0       0.0       0.0       0.0
 1 N  py              0.0       0.0       0.0       0.0       0.0       0.2
 2 C  s               0.0       0.0       0.0       0.0      57.6      42.0
 3 C  s               0.0       0.0      87.5      12.1       0.0       0.0
 4 N  s               0.0      99.8       0.0       0.0       0.0       0.0
 4 N  py              0.0       0.0       0.0       0.1       0.0       0.0
 5 C  s               0.0       0.0      12.1      87.5       0.0       0.0
 6 C  s               0.0       0.0       0.0       0.0      42.1      57.6

                      6         7         8         9        10        11   
                  -9.89719  -0.85348  -0.80371  -0.67989  -0.64155  -0.56783
                   2.00000   2.00000   2.00000   2.00000   2.00000   2.00000
                  --------  --------  --------  --------  --------  --------
 0 C  s              99.7       4.7       5.0       0.0      22.7       0.0
 0 C  px              0.0       3.4       2.3       0.0       0.2       0.0
 0 C  py              0.0       0.0       0.0       0.5       0.0       2.0
 0 C  dx2y2           0.0       0.1       0.1       0.0       0.0       0.0
 1 N  s               0.0      24.2      15.0       0.0       0.3       0.0
 1 N  pz              0.0       1.4       0.7       0.0       0.0       0.0
 1 N  px              0.1       0.1       0.5       0.0      15.8       0.0
 1 N  py              0.0       0.0       0.0       8.1       0.0      13.7
 1 N  dyz             0.0       0.0       0.0       0.1       0.0       0.1
 1 N  dx2y2           0.0       0.0       0.0       0.0       0.2       0.0
 1 N  dxy             0.0       0.0       0.0       0.1       0.0       0.0
 2 C  s               0.0       8.7       1.0      13.9       6.2       6.7
 2 C  pz              0.0       0.4       0.1       0.2       0.0       0.1
 2 C  px              0.0       0.0       3.3       1.0       1.5       5.1
 2 C  py              0.0       3.2       1.0       0.4       0.0       0.1
 3 C  s               0.0       5.9       5.6      13.4       1.3       8.0
 3 C  pz              0.0       0.3       0.3       0.1       0.0       0.1
 3 C  px              0.0       0.2       2.3       1.1       4.1       3.9
 3 C  py              0.0       1.8       2.8       0.4       0.6       0.2
 3 C  dxy             0.0       0.0       0.1       0.0       0.1       0.0
 4 N  s               0.0      11.3      29.2       0.0       5.3       0.0
 4 N  pz              0.0       0.7       1.5       0.0       0.2       0.0
 4 N  px              0.0       0.4       0.0       0.0       2.7       0.0
 4 N  py              0.0       0.0       0.0       7.3       0.0      12.4
 4 N  dyz             0.0       0.0       0.0       0.1       0.0       0.1
 4 N  dxy             0.0       0.0       0.0       0.1       0.0       0.1
 5 C  s               0.0       5.9       5.6      13.4       1.3       8.0
 5 C  pz              0.0       0.3       0.3       0.1       0.0       0.1
 5 C  px              0.0       0.2       2.3       1.1       4.1       3.9
 5 C  py              0.0       1.8       2.8       0.4       0.6       0.2
 5 C  dxy             0.0       0.0       0.1       0.0       0.1       0.0
 6 C  s               0.0       8.7       1.0      13.9       6.2       6.7
 6 C  pz              0.0       0.4       0.1       0.2       0.0       0.1
 6 C  px              0.0       0.0       3.3       1.0       1.5       5.1
 6 C  py              0.0       3.2       1.0       0.4       0.0       0.1
 7 H  s               0.1       0.6       0.7       0.0       5.5       0.2
 8 H  s               0.1       0.6       0.7       0.0       4.7       0.0
 9 H  s               0.1       0.6       0.7       0.0       5.5       0.2
10 H  s               0.0       1.2       0.1       2.5       1.2       1.8
11 H  s               0.0       1.1       0.2       3.3       1.0       3.5
12 H  s               0.0       0.7       0.8       3.1       0.2       3.8
13 H  s               0.0       0.9       0.7       2.4       0.4       2.1
14 H  s               0.0       2.0       6.1       0.0       3.1       0.0
15 H  s               0.0       0.7       0.8       3.1       0.2       3.8
16 H  s               0.0       0.9       0.7       2.4       0.4       2.1
17 H  s               0.0       1.2       0.1       2.5       1.2       1.8
18 H  s               0.0       1.1       0.2       3.3       1.0       3.5

                     12        13        14        15        16        17   
                  -0.55904  -0.48879  -0.46442  -0.41235  -0.40940  -0.39849
                   2.00000   2.00000   2.00000   2.00000   2.00000   2.00000
                  --------  --------  --------  --------  --------  --------
 0 C  s              12.4       0.1       1.2       0.0       0.2       0.0
 0 C  pz              0.1       1.4       0.9       0.0       1.3       0.0
 0 C  px              5.0       0.9       4.3       0.0       9.3       0.0
 0 C  py              0.0       0.0       0.0      12.2       0.0       6.5
 0 C  dyz             0.0       0.0       0.0       0.1       0.0       0.0
 0 C  dx2y2           0.2       0.0       0.1       0.0       0.3       0.0
 1 N  s               6.7       4.0       0.8       0.0       0.4       0.0
 1 N  pz              0.3       2.8       0.6       0.0       4.5       0.0
 1 N  px              2.4       0.0       3.0       0.0       6.2       0.0
 1 N  py              0.0       0.0       0.0      14.2       0.0       2.7
 1 N  dx2y2           0.1       0.0       0.0       0.0       0.1       0.0
 2 C  s               0.8       4.7       0.2       1.1       1.1       0.0
 2 C  pz              0.0       7.2       0.9       9.0       6.3       4.1
 2 C  px              2.7       0.6       1.7       3.7       0.5       1.9
 2 C  py              4.3       2.6       5.0       2.5       1.3       1.7
 2 C  dx2y2           0.2       0.0       0.0       0.0       0.1       0.0
 2 C  dxy             0.1       0.1       0.0       0.1       0.2       0.0
 3 C  s               5.6       2.6       0.5       0.3       1.2       0.2
 3 C  pz              0.1       5.7       1.5       6.0       3.7       8.6
 3 C  px              1.0       0.1       1.6       1.4       2.9       6.9
 3 C  py              2.5       0.0       9.2       0.2       3.4       3.1
 3 C  dyz             0.0       0.0       0.1       0.0       0.0       0.0
 3 C  dxy             0.0       0.1       0.0       0.0       0.1       0.0
 4 N  s               3.6       2.2       0.2       0.0       0.2       0.0
 4 N  pz              0.1       2.0       0.1       0.0       1.5       0.0
 4 N  px              3.8       3.8      21.4       0.0       2.9       0.0
 4 N  py              0.0       0.0       0.0       0.3       0.0      20.7
 4 N  dxz             0.0       0.1       0.1       0.0       0.0       0.0
 4 N  dx2y2           0.1       0.1       0.0       0.0       0.2       0.0
 5 C  s               5.6       2.6       0.5       0.3       1.2       0.2
 5 C  pz              0.1       5.7       1.5       6.0       3.7       8.7
 5 C  px              1.0       0.1       1.6       1.4       2.9       6.9
 5 C  py              2.5       0.0       9.2       0.2       3.4       3.1
 5 C  dyz             0.0       0.0       0.1       0.0       0.0       0.0
 5 C  dxy             0.0       0.1       0.0       0.0       0.1       0.0
 6 C  s               0.8       4.7       0.2       1.1       1.1       0.0
 6 C  pz              0.0       7.2       0.9       9.0       6.3       4.1
 6 C  px              2.7       0.6       1.7       3.7       0.5       1.9
 6 C  py              4.3       2.6       5.0       2.5       1.3       1.7
 6 C  dx2y2           0.2       0.0       0.0       0.0       0.1       0.0
 6 C  dxy             0.1       0.1       0.0       0.1       0.2       0.0
 7 H  s               5.4       0.1       0.8       3.2       2.3       1.6
 8 H  s               4.6       1.0       1.9       0.0       0.0       0.0
 9 H  s               5.4       0.1       0.8       3.2       2.3       1.6
10 H  s               0.4       7.2       0.0       5.9       0.8       1.3
11 H  s               0.9       2.9       2.7       0.0       4.3       0.6
12 H  s               2.5       0.4       3.4       0.0       6.5       0.1
13 H  s               2.0       4.6       1.4       3.0       0.2       4.5
14 H  s               3.5       3.2       7.0       0.0       2.4       0.0
15 H  s               2.5       0.4       3.4       0.0       6.5       0.1
16 H  s               2.0       4.6       1.4       3.0       0.2       4.5
17 H  s               0.4       7.2       0.0       5.9       0.8       1.3
18 H  s               0.9       2.9       2.7       0.0       4.3       0.6

                     18        19        20        21        22        23   
                  -0.39558  -0.37585  -0.34862  -0.33218  -0.32159  -0.30295
                   2.00000   2.00000   2.00000   2.00000   2.00000   2.00000
                  --------  --------  --------  --------  --------  --------
 0 C  s               0.3       0.2       0.0       0.0       0.0       0.0
 0 C  pz             19.7       7.3       0.0      23.9       0.0       0.0
 0 C  px              5.3       7.6       0.0       1.0       0.0       0.0
 0 C  py              0.0       0.0      10.5       0.0      22.3       0.1
 0 C  dz2             0.2       0.0       0.0       0.3       0.0       0.0
 0 C  dxz             0.0       0.0       0.0       0.1       0.0       0.0
 0 C  dyz             0.0       0.0       0.1       0.0       0.2       0.0
 0 C  dx2y2           0.0       0.1       0.0       0.0       0.0       0.0
 0 C  dxy             0.0       0.0       0.2       0.0       0.5       0.0
 1 N  s               0.3       1.0       0.0       0.1       0.0       0.0
 1 N  pz              6.0       2.8       0.0       0.3       0.0       0.0
 1 N  px             12.5       7.1       0.0       0.0       0.0       0.0
 1 N  py              0.0       0.0       4.2       0.0       1.0       0.1
 1 N  dxz             0.0       0.1       0.0       0.2       0.0       0.0
 1 N  dyz             0.0       0.0       0.0       0.0       0.0       0.1
 1 N  dxy             0.0       0.0       0.5       0.0       0.0       0.0
 2 C  s               0.0       0.0       0.7       0.0       0.0       0.1
 2 C  pz              0.4       1.3       1.1       9.1       1.0      11.8
 2 C  px              0.0       3.1       2.0       0.0       9.7       1.9
 2 C  py              4.3       2.3       7.7       1.3       1.8       0.6
 2 C  dz2             0.0       0.0       0.0       0.2       0.0       0.4
 2 C  dx2y2           0.1       0.0       0.1       0.0       0.2       0.0
 3 C  s               0.0       0.0       0.2       0.0       0.3       0.1
 3 C  pz              3.5       6.5       0.0       3.3       0.1      11.8
 3 C  px              0.3       0.3       3.3       0.3       6.9       1.9
 3 C  py              1.1       4.0      10.7       0.1       0.0       0.5
 3 C  dz2             0.0       0.1       0.0       0.1       0.0       0.4
 3 C  dxz             0.0       0.0       0.0       0.1       0.1       0.0
 3 C  dx2y2           0.1       0.1       0.1       0.0       0.0       0.0
 3 C  dxy             0.1       0.1       0.0       0.0       0.0       0.0
 4 N  s               1.1       0.1       0.0       1.0       0.0       0.0
 4 N  pz              0.8       6.9       0.0       2.8       0.0       0.0
 4 N  px              9.7       4.6       0.0       0.9       0.0       0.0
 4 N  py              0.0       0.0       3.9       0.0       3.7       0.2
 4 N  dz2             0.0       0.1       0.0       0.0       0.0       0.0
 4 N  dyz             0.0       0.0       0.0       0.0       0.0       0.1
 4 N  dxy             0.0       0.0       0.2       0.0       0.0       0.0
 5 C  s               0.0       0.0       0.2       0.0       0.3       0.1
 5 C  pz              3.5       6.6       0.0       3.3       0.1      11.8
 5 C  px              0.3       0.3       3.3       0.3       6.9       1.9
 5 C  py              1.1       4.0      10.7       0.1       0.0       0.5
 5 C  dz2             0.0       0.1       0.0       0.1       0.0       0.4
 5 C  dxz             0.0       0.0       0.0       0.1       0.1       0.0
 5 C  dyz             0.0       0.0       0.1       0.0       0.0       0.0
 5 C  dx2y2           0.1       0.1       0.1       0.0       0.0       0.0
 5 C  dxy             0.1       0.1       0.0       0.0       0.0       0.0
 6 C  s               0.0       0.0       0.7       0.0       0.0       0.1
 6 C  pz              0.4       1.3       1.1       9.1       1.0      11.8
 6 C  px              0.0       3.1       2.0       0.0       9.7       1.9
 6 C  py              4.3       2.3       7.7       1.3       1.8       0.6
 6 C  dz2             0.0       0.0       0.0       0.2       0.0       0.4
 6 C  dx2y2           0.1       0.0       0.1       0.0       0.2       0.0
 7 H  s               0.0       2.9       4.2       3.0       9.5       0.1
 8 H  s              11.9       1.6       0.0      12.3       0.0       0.0
 9 H  s               0.0       2.9       4.2       3.0       9.5       0.1
10 H  s               0.1       1.0       0.2       6.1       0.4       9.0
11 H  s               1.9       1.4       3.0       1.8       5.5       1.1
12 H  s               0.2       2.8       6.7       0.2       0.3       0.9
13 H  s               2.0       3.0       0.0       2.4       0.0       8.9
14 H  s               3.3       2.1       0.0       0.3       0.0       0.0
15 H  s               0.2       2.8       6.7       0.2       0.3       0.9
16 H  s               1.9       3.0       0.0       2.4       0.0       8.9
17 H  s               0.1       1.0       0.2       6.1       0.4       9.0
18 H  s               1.9       1.4       3.0       1.8       5.5       1.1

                     24        25        26        27        28        29   
                  -0.28910  -0.28518  -0.17694  -0.17136   0.03421   0.05123
                   2.00000   2.00000   2.00000   2.00000   0.00000   0.00000
                  --------  --------  --------  --------  --------  --------
 0 C  s               0.0       0.7       0.1       0.3       1.2       9.2
 0 C  pz              0.0       0.2       0.0       1.0       0.1       0.9
 0 C  px              0.0       8.0       0.1       0.5       3.0       3.0
 0 C  py              2.6       0.0       0.0       0.0       0.0       0.0
 0 C  dz2             0.0       0.0       0.0       0.5       0.0       0.0
 0 C  dxz             0.0       0.1       0.0       0.8       0.0       0.0
 0 C  dx2y2           0.0       0.1       0.0       0.0       0.2       0.1
 0 C  dxy             0.3       0.0       0.0       0.0       0.0       0.0
 1 N  s               0.0       0.1       0.3       4.3       1.5       1.3
 1 N  pz              0.0       0.2       0.6      62.4       0.2       0.1
 1 N  px              0.0       8.6       0.0       0.4       0.2       0.1
 1 N  py             13.3       0.0       0.0       0.0       0.0       0.0
 1 N  dyz             0.1       0.0       0.0       0.0       0.0       0.0
 1 N  dx2y2           0.0       0.5       0.0       0.0       0.1       0.0
 1 N  dxy             0.2       0.0       0.0       0.0       0.0       0.0
 2 C  s               0.1       0.0       0.3       0.4       2.1       2.4
 2 C  pz              0.2       0.0       0.0       1.1       0.1       1.3
 2 C  px              0.2      12.1       1.2       0.0       0.4       0.1
 2 C  py              8.8       0.1       0.1       0.3       1.4       0.8
 2 C  dz2             0.0       0.0       0.0       0.8       0.0       0.0
 2 C  dxz             0.0       0.1       0.0       0.1       0.0       0.1
 2 C  dyz             0.1       0.0       0.0       0.4       0.1       0.1
 2 C  dx2y2           0.0       0.3       0.0       0.0       0.0       0.1
 2 C  dxy             0.5       0.0       0.0       0.0       0.3       0.0
 3 C  s               0.1       0.0       0.3       0.3       2.9       1.4
 3 C  pz              0.6       0.1       1.8       0.0       0.6       1.0
 3 C  px              0.3      13.0       0.0       0.8       0.6       0.3
 3 C  py              9.0       0.1       0.2       0.1       1.9       0.6
 3 C  dz2             0.0       0.0       0.8       0.0       0.0       0.1
 3 C  dxz             0.0       0.1       0.1       0.0       0.0       0.1
 3 C  dyz             0.1       0.0       0.4       0.0       0.0       0.0
 3 C  dx2y2           0.0       0.3       0.0       0.0       0.0       0.0
 3 C  dxy             0.5       0.0       0.0       0.0       0.4       0.0
 4 N  s               0.0       0.1       5.6       0.0       5.8       2.5
 4 N  pz              0.0       0.9      67.5       0.3       0.0       0.4
 4 N  px              0.0       7.0       0.4       0.0       2.5       1.8
 4 N  py              9.1       0.0       0.0       0.0       0.0       0.0
 4 N  dyz             0.1       0.0       0.0       0.0       0.0       0.0
 4 N  dx2y2           0.0       0.5       0.0       0.0       0.3       0.0
 5 C  s               0.1       0.0       0.3       0.3       2.9       1.4
 5 C  pz              0.6       0.1       1.8       0.0       0.6       1.0
 5 C  px              0.3      13.0       0.0       0.8       0.6       0.3
 5 C  py              9.0       0.1       0.2       0.1       1.9       0.6
 5 C  dz2             0.0       0.0       0.8       0.0       0.0       0.1
 5 C  dxz             0.0       0.1       0.1       0.0       0.0       0.1
 5 C  dyz             0.1       0.0       0.4       0.0       0.0       0.0
 5 C  dx2y2           0.0       0.3       0.0       0.0       0.0       0.0
 5 C  dxy             0.5       0.0       0.0       0.0       0.4       0.0
 6 C  s               0.1       0.0       0.3       0.4       2.1       2.4
 6 C  pz              0.2       0.0       0.0       1.1       0.1       1.3
 6 C  px              0.2      12.1       1.2       0.0       0.4       0.1
 6 C  py              8.8       0.1       0.1       0.3       1.4       0.8
 6 C  dz2             0.0       0.0       0.0       0.8       0.0       0.0
 6 C  dxz             0.0       0.1       0.0       0.1       0.0       0.1
 6 C  dyz             0.1       0.0       0.0       0.4       0.1       0.1
 6 C  dx2y2           0.0       0.3       0.0       0.0       0.0       0.1
 6 C  dxy             0.5       0.0       0.0       0.0       0.3       0.0
 7 H  s               2.0       1.2       0.0       0.8       2.2       6.5
 8 H  s               0.0       0.2       0.1       5.8       0.8      12.6
 9 H  s               2.0       1.2       0.0       0.8       2.2       6.5
10 H  s               0.1       0.1       0.2       5.6       1.5       6.6
11 H  s               6.0       2.6       0.1       0.5       6.9       2.2
12 H  s               7.9       3.1       0.6       0.1       6.9       0.7
13 H  s               0.3       0.2       6.0       0.4       3.7       4.9
14 H  s               0.0       5.7       0.9       0.2      19.9       9.4
15 H  s               7.9       3.1       0.6       0.1       6.9       0.7
16 H  s               0.3       0.2       6.0       0.4       3.7       4.9
17 H  s               0.1       0.1       0.2       5.6       1.5       6.6
18 H  s               6.0       2.6       0.1       0.5       6.9       2.2

                     30        31        32        33        34        35   
                   0.06935   0.07943   0.08831   0.10509   0.11493   0.12227
                   0.00000   0.00000   0.00000   0.00000   0.00000   0.00000
                  --------  --------  --------  --------  --------  --------
 0 C  s               0.0       4.7       4.5       0.0       1.0       7.2
 0 C  pz              0.0       1.5       0.4       0.0       8.0       0.7
 0 C  px              0.0       0.8       0.3       0.0       2.5       5.3
 0 C  py              4.3       0.0       0.0      11.6       0.0       0.0
 0 C  dz2             0.0       0.0       0.0       0.0       0.0       0.4
 0 C  dyz             0.2       0.0       0.0       0.3       0.0       0.0
 0 C  dx2y2           0.0       0.0       0.0       0.0       0.6       0.8
 0 C  dxy             0.1       0.0       0.0       0.2       0.0       0.0
 1 N  s               0.0       0.6       1.3       0.0       0.2       4.9
 1 N  pz              0.0       0.1       0.6       0.0       3.6       0.2
 1 N  px              0.0       0.0       0.9       0.0       0.7       1.5
 1 N  py              0.3       0.0       0.0       0.7       0.0       0.0
 1 N  dz2             0.0       0.2       0.1       0.0       0.0       0.2
 1 N  dyz             0.1       0.0       0.0       0.1       0.0       0.0
 1 N  dx2y2           0.0       0.0       0.4       0.0       0.2       0.2
 1 N  dxy             0.2       0.0       0.0       0.4       0.0       0.0
 2 C  s               2.5       0.1       2.6       0.5       0.2       0.6
 2 C  pz              0.3       3.5       0.1       1.6       3.0       1.3
 2 C  px              0.7       1.1       1.6       0.0       0.3       0.6
 2 C  py              4.0       0.1       1.0       2.5       0.6       3.2
 2 C  dz2             0.1       0.2       0.0       0.0       0.0       0.1
 2 C  dxz             0.1       0.3       0.0       0.0       0.0       0.1
 2 C  dyz             0.0       0.0       0.0       0.1       0.0       0.4
 2 C  dx2y2           0.0       0.0       0.6       0.0       0.0       0.0
 2 C  dxy             0.1       0.0       0.1       0.0       0.3       0.3
 3 C  s               3.9       0.0       3.4       2.2       1.3       0.8
 3 C  pz              0.2       4.3       0.0       0.2       3.7       0.8
 3 C  px              0.3       0.8       1.2       1.1       0.0       3.4
 3 C  py              2.2       0.9       0.6       1.7       0.3       0.9
 3 C  dz2             0.0       0.2       0.1       0.0       0.0       0.0
 3 C  dxz             0.0       0.3       0.0       0.1       0.0       0.0
 3 C  dx2y2           0.0       0.1       0.2       0.0       0.0       0.4
 3 C  dxy             0.1       0.1       0.3       0.1       0.3       0.1
 4 N  s               0.0       0.1       6.8       0.0       0.4       1.4
 4 N  pz              0.0       0.3       2.0       0.0       1.3       0.0
 4 N  px              0.0       0.7       2.3       0.0       0.1       0.1
 4 N  py              0.2       0.0       0.0       0.7       0.0       0.0
 4 N  dz2             0.0       0.1       0.2       0.0       0.0       0.1
 4 N  dxz             0.0       0.2       0.0       0.0       0.1       0.1
 4 N  dx2y2           0.0       0.1       0.0       0.0       0.0       0.2
 5 C  s               3.9       0.0       3.4       2.2       1.3       0.8
 5 C  pz              0.2       4.3       0.0       0.2       3.7       0.8
 5 C  px              0.3       0.8       1.2       1.1       0.0       3.4
 5 C  py              2.2       0.9       0.6       1.7       0.3       0.9
 5 C  dz2             0.0       0.2       0.1       0.0       0.0       0.0
 5 C  dxz             0.0       0.3       0.0       0.1       0.0       0.0
 5 C  dx2y2           0.0       0.1       0.2       0.0       0.0       0.4
 5 C  dxy             0.1       0.1       0.3       0.1       0.3       0.1
 6 C  s               2.5       0.1       2.6       0.5       0.2       0.6
 6 C  pz              0.3       3.5       0.1       1.6       3.0       1.3
 6 C  px              0.7       1.1       1.6       0.0       0.3       0.6
 6 C  py              4.0       0.1       1.0       2.5       0.6       3.2
 6 C  dz2             0.1       0.2       0.0       0.0       0.0       0.1
 6 C  dxz             0.1       0.3       0.0       0.0       0.0       0.1
 6 C  dyz             0.0       0.0       0.0       0.1       0.0       0.4
 6 C  dx2y2           0.0       0.0       0.6       0.0       0.0       0.0
 6 C  dxy             0.1       0.0       0.1       0.0       0.3       0.3
 7 H  s               5.3       6.8       2.2      14.3       1.8       6.1
 8 H  s               0.0       0.1       5.8       0.0      17.5       1.6
 9 H  s               5.3       6.8       2.2      14.3       1.8       6.1
10 H  s               2.5       6.9       0.7       4.2       3.9       3.1
11 H  s              11.9       2.9       4.7       3.1       4.8       4.5
12 H  s               9.6       7.1       4.2      10.5       0.4      10.4
13 H  s               3.3       8.2       2.1       0.5      10.7       0.1
14 H  s               0.0       2.7      22.8       0.0       0.3       0.4
15 H  s               9.6       7.1       4.2      10.5       0.4      10.4
16 H  s               3.3       8.2       2.1       0.5      10.7       0.1
17 H  s               2.5       6.9       0.7       4.2       4.0       3.1
18 H  s              11.9       2.9       4.7       3.1       4.8       4.5

                     36        37        38        39        40        41   
                   0.12605   0.13275   0.13484   0.14616   0.15053   0.17838
                   0.00000   0.00000   0.00000   0.00000   0.00000   0.00000
                  --------  --------  --------  --------  --------  --------
 0 C  s               0.0       0.0       0.1       0.5       0.0       0.3
 0 C  pz              0.0       0.0      10.0       5.2       0.0       1.2
 0 C  px              0.0       0.0       3.8       9.6       0.0       1.2
 0 C  py              2.4       0.3       0.0       0.0       5.9       0.0
 0 C  dz2             0.0       0.0       0.4       1.3       0.0       0.0
 0 C  dxz             0.0       0.0       0.4       0.0       0.0       0.0
 0 C  dyz             0.1       0.0       0.0       0.0       0.6       0.0
 0 C  dx2y2           0.0       0.0       0.9       1.6       0.0       0.1
 0 C  dxy             0.4       0.3       0.0       0.0       0.4       0.0
 1 N  s               0.0       0.0       2.4      14.1       0.0       2.7
 1 N  pz              0.0       0.0       0.1       1.4       0.0       2.0
 1 N  px              0.0       0.0       0.3       0.1       0.0       1.3
 1 N  py              1.3       1.1       0.0       0.0       1.3       0.0
 1 N  dz2             0.0       0.0       0.1       0.3       0.0       0.0
 1 N  dxz             0.0       0.0       0.8       0.2       0.0       0.0
 1 N  dyz             0.0       0.2       0.0       0.0       0.7       0.0
 1 N  dx2y2           0.0       0.0       0.1       0.0       0.0       0.7
 1 N  dxy             0.5       0.2       0.0       0.0       0.1       0.0
 2 C  s               1.1       8.2       0.0       2.5       0.2       0.2
 2 C  pz              1.5       2.5       2.8       0.7       4.0       0.4
 2 C  px              0.0       0.1       1.9       2.0       1.4       3.0
 2 C  py              0.0       0.2       0.3       2.8       3.5       3.4
 2 C  dz2             0.2       0.0       0.2       0.1       0.5       0.3
 2 C  dxz             0.2       0.0       0.0       0.1       0.3       0.1
 2 C  dyz             0.0       0.0       0.1       0.1       0.1       0.6
 2 C  dx2y2           0.1       0.1       0.7       0.2       0.2       0.5
 2 C  dxy             0.2       0.1       0.0       1.1       0.3       0.0
 3 C  s               0.7       3.1       0.1       0.2       2.5       0.7
 3 C  pz              7.6       0.2       2.1       0.0       0.3       1.0
 3 C  px              0.8       0.9       0.0       0.1       0.7       4.5
 3 C  py              2.8       1.4       2.0       1.2       1.7      11.0
 3 C  dz2             0.5       0.0       0.0       0.0       0.0       0.5
 3 C  dxz             0.0       0.3       0.2       0.0       0.0       0.1
 3 C  dyz             0.2       0.0       0.5       0.1       0.0       1.6
 3 C  dx2y2           0.2       0.2       0.2       0.1       0.2       1.5
 3 C  dxy             0.2       0.0       0.0       0.4       0.3       0.4
 4 N  s               0.0       0.0       0.7       0.1       0.0       6.8
 4 N  pz              0.0       0.0       0.1       0.1       0.0       3.0
 4 N  px              0.0       0.0       2.6       4.5       0.0       8.7
 4 N  py              1.1       0.2       0.0       0.0       1.7       0.0
 4 N  dxz             0.0       0.0       0.0       0.1       0.0       0.5
 4 N  dyz             0.6       0.0       0.0       0.0       0.2       0.0
 4 N  dx2y2           0.0       0.0       0.2       0.0       0.0       1.1
 4 N  dxy             0.0       0.0       0.0       0.0       0.5       0.0
 5 C  s               0.7       3.1       0.1       0.2       2.5       0.7
 5 C  pz              7.6       0.2       2.1       0.0       0.3       1.0
 5 C  px              0.8       0.9       0.0       0.1       0.7       4.5
 5 C  py              2.8       1.4       2.0       1.2       1.7      11.0
 5 C  dz2             0.5       0.0       0.0       0.0       0.0       0.5
 5 C  dxz             0.0       0.3       0.2       0.0       0.0       0.1
 5 C  dyz             0.2       0.0       0.5       0.1       0.0       1.6
 5 C  dx2y2           0.2       0.2       0.2       0.1       0.2       1.5
 5 C  dxy             0.2       0.0       0.0       0.4       0.3       0.4
 6 C  s               1.1       8.2       0.0       2.5       0.3       0.2
 6 C  pz              1.5       2.4       2.9       0.7       4.0       0.4
 6 C  px              0.0       0.1       1.9       2.0       1.4       3.0
 6 C  py              0.0       0.2       0.3       2.9       3.5       3.4
 6 C  dz2             0.2       0.0       0.2       0.1       0.5       0.3
 6 C  dxz             0.2       0.0       0.0       0.1       0.3       0.1
 6 C  dyz             0.0       0.0       0.1       0.1       0.1       0.6
 6 C  dx2y2           0.1       0.1       0.7       0.2       0.2       0.5
 6 C  dxy             0.2       0.1       0.0       1.1       0.3       0.0
 7 H  s               3.2       0.6       5.2       0.8       7.5       0.1
 8 H  s               0.0       0.0      17.7       7.2       0.0       2.2
 9 H  s               3.2       0.6       5.2       0.8       7.5       0.1
10 H  s               0.8      18.2       3.7       5.4       5.1       0.5
11 H  s               2.2       2.8       5.4       0.2      10.4       0.7
12 H  s               6.2       5.9       0.3       3.8       1.1       0.2
13 H  s              18.0       3.9       2.4       0.5       3.9       0.7
14 H  s               0.0       0.0       2.6       9.1       0.0       3.9
15 H  s               6.2       5.9       0.3       3.8       1.1       0.2
16 H  s              18.0       3.9       2.4       0.5       3.9       0.7
17 H  s               0.8      18.1       3.8       5.4       5.0       0.5
18 H  s               2.2       2.8       5.4       0.2      10.4       0.7

                     42        43        44        45        46        47   
                   0.20860   0.21146   0.22112   0.22745   0.23928   0.39859
                   0.00000   0.00000   0.00000   0.00000   0.00000   0.00000
                  --------  --------  --------  --------  --------  --------
 0 C  s               0.0       1.3       0.1       0.0       0.0       0.0
 0 C  pz              0.0       1.3       2.4       0.0       0.0       0.0
 0 C  px              0.0       8.1      18.6       0.0       0.0       0.0
 0 C  py              4.7       0.0       0.0       1.9       0.4      13.6
 0 C  dz2             0.0       0.1       1.3       0.0       0.0       0.0
 0 C  dxz             0.0       0.8       0.8       0.0       0.0       0.0
 0 C  dyz             0.1       0.0       0.0       0.4       0.2       2.6
 0 C  dx2y2           0.0       1.2       2.4       0.0       0.0       0.0
 0 C  dxy             0.0       0.0       0.0       0.4       0.3       2.7
[...]
 2 C  s               0.7       0.0       0.1       0.5       0.1       0.0
 2 C  pz              0.2       0.2       0.0       0.0       0.0       0.0
 2 C  px              0.1       0.1       0.4       0.0       0.1       0.4
 2 C  py              0.2       0.0       0.2       0.2       0.0       0.1
 2 C  dz2             0.4       0.4       0.2       4.5       0.4       0.0
 2 C  dxz             0.3       2.5       1.0       0.6       0.2       0.2
 2 C  dyz             0.4       5.9       0.6       1.4       0.1       0.1
 2 C  dx2y2           0.0       1.3      10.0       3.5       1.7       0.9
 2 C  dxy             0.0       1.6       1.2       3.9       0.0       0.4
 3 C  s               0.1       0.0       0.7       0.2       0.5       1.2
 3 C  pz              0.0       0.0       0.1       0.0       0.1       0.2
 3 C  px              0.0       0.0       0.3       0.2       0.7       0.9
 3 C  py              0.2       0.0       0.0       0.1       0.7       1.9
 3 C  dz2             0.9       0.0       0.1       1.1       0.2       0.6
 3 C  dxz             0.2       0.1       0.1       1.3       4.5       0.5
 3 C  dyz             0.3       0.4       0.1       0.5       1.4       2.1
 3 C  dx2y2          11.1       0.2       4.8       1.7       0.5       3.6
 3 C  dxy             0.8       0.0       1.7       2.5       3.1       3.5
 4 N  s               1.0       0.1       0.2       0.0       1.5       0.0
 4 N  pz              0.4       0.0       0.0       0.0       0.2       0.0
 4 N  px              3.0       0.4       0.1       0.0       2.4       0.0
 4 N  py              0.0       0.0       0.0       0.0       0.0       5.5
 4 N  dz2             0.3       0.9       0.3       0.0       5.7       0.0
 4 N  dxz            32.5       1.7       0.9       0.0       9.1       0.0
 4 N  dyz             0.0       0.0       0.0       5.1       0.0      21.5
 4 N  dx2y2           7.8       0.3       7.4       0.0      41.0       0.0
 4 N  dxy             0.0       0.0       0.0       1.7       0.0      35.6
 5 C  s               0.1       0.0       0.7       0.2       0.5       1.2
 5 C  pz              0.0       0.0       0.1       0.0       0.1       0.2
 5 C  px              0.0       0.0       0.3       0.2       0.7       0.9
 5 C  py              0.2       0.0       0.0       0.1       0.7       1.9
 5 C  dz2             0.9       0.0       0.1       1.1       0.2       0.6
 5 C  dxz             0.2       0.1       0.1       1.3       4.5       0.5
 5 C  dyz             0.3       0.4       0.1       0.5       1.4       2.1
 5 C  dx2y2          11.1       0.2       4.8       1.7       0.5       3.6
 5 C  dxy             0.8       0.0       1.7       2.5       3.1       3.5
 6 C  s               0.7       0.0       0.1       0.5       0.1       0.0
 6 C  pz              0.2       0.2       0.0       0.0       0.0       0.0
 6 C  px              0.1       0.1       0.4       0.0       0.1       0.4
 6 C  py              0.2       0.0       0.2       0.2       0.0       0.1
 6 C  dz2             0.4       0.4       0.2       4.5       0.4       0.0
 6 C  dxz             0.3       2.5       1.0       0.6       0.2       0.2
 6 C  dyz             0.4       5.9       0.6       1.4       0.1       0.1
 6 C  dx2y2           0.0       1.3      10.0       3.5       1.7       0.9
 6 C  dxy             0.0       1.6       1.2       3.9       0.0       0.4
 7 H  s               0.0       0.0       0.0       0.2       0.0       0.0
 8 H  s               0.0       0.2       0.1       0.0       0.0       0.0
 9 H  s               0.0       0.0       0.0       0.2       0.0       0.0
10 H  s               0.0       0.0       0.0       0.4       0.0       0.0
11 H  s               0.0       0.2       0.2       0.0       0.0       0.0
12 H  s               0.3       0.0       0.2       0.1       0.0       0.1
13 H  s               0.1       0.0       0.0       0.1       0.0       0.0
14 H  s               0.3       0.3       0.0       0.0       2.9       0.0
15 H  s               0.3       0.0       0.2       0.1       0.0       0.1
16 H  s               0.1       0.0       0.0       0.1       0.0       0.0
17 H  s               0.0       0.0       0.0       0.4       0.0       0.0
18 H  s               0.0       0.2       0.2       0.0       0.0       0.0

                    120       121   
                   2.99047   3.01785
                   0.00000   0.00000
                  --------  --------
 0 C  s               0.0       2.6
 0 C  pz              0.0       0.1
 0 C  px              0.0       3.3
 0 C  py              0.1       0.0
 0 C  dz2             0.0       1.6
 0 C  dxz             0.0       1.0
 0 C  dyz             0.3       0.0
 0 C  dx2y2           0.0       7.1
 0 C  dxy             0.8       0.0
 1 N  px              0.0       4.9
 1 N  py              4.0       0.0
 1 N  dz2             0.0       0.3
 1 N  dxz             0.0      12.1
 1 N  dyz            15.7       0.0
 1 N  dx2y2           0.0      44.5
 1 N  dxy            43.1       0.0
 2 C  s               1.3       0.3
 2 C  pz              0.2       0.0
 2 C  px              0.6       0.9
 2 C  py              2.0       0.3
 2 C  dz2             0.6       0.1
 2 C  dxz             0.3       1.4
 2 C  dyz             2.5       0.0
 2 C  dx2y2           3.1       0.4
 2 C  dxy             3.0       3.5
 3 C  s               0.4       0.0
 3 C  px              0.1       0.3
 3 C  py              0.3       0.0
 3 C  dz2             0.2       0.1
 3 C  dyz             0.4       0.0
 3 C  dx2y2           0.0       0.5
 3 C  dxy             0.2       1.4
 4 N  s               0.0       0.3
 4 N  px              0.0       0.4
 4 N  py              0.4       0.0
 4 N  dz2             0.0       0.1
 4 N  dxz             0.0       0.6
 4 N  dyz             1.4       0.0
 4 N  dx2y2           0.0       1.9
 4 N  dxy             3.6       0.0
 5 C  s               0.4       0.0
 5 C  px              0.1       0.3
 5 C  py              0.3       0.0
 5 C  dz2             0.2       0.1
 5 C  dyz             0.4       0.0
 5 C  dx2y2           0.0       0.5
 5 C  dxy             0.2       1.4
 6 C  s               1.3       0.3
 6 C  pz              0.2       0.0
 6 C  px              0.6       0.9
 6 C  py              2.0       0.3
 6 C  dz2             0.6       0.1
 6 C  dxz             0.3       1.4
 6 C  dyz             2.5       0.0
 6 C  dx2y2           3.1       0.4
 6 C  dxy             3.0       3.5
14 H  s               0.0       0.2


                      *****************************
                      * MAYER POPULATION ANALYSIS *
                      *****************************

  NA   - Mulliken gross atomic population
  ZA   - Total nuclear charge
  QA   - Mulliken gross atomic charge
  VA   - Mayer's total valence
  BVA  - Mayer's bonded valence
  FA   - Mayer's free valence

  ATOM       NA         ZA         QA         VA         BVA        FA
  0 C      6.1446     6.0000    -0.1446     3.9192     3.9192    -0.0000
  1 N      7.3200     7.0000    -0.3200     3.2296     3.2296     0.0000
  2 C      6.0592     6.0000    -0.0592     4.0782     4.0782    -0.0000
  3 C      6.0325     6.0000    -0.0325     4.1189     4.1189     0.0000
  4 N      7.3682     7.0000    -0.3682     3.1276     3.1276    -0.0000
  5 C      6.0325     6.0000    -0.0325     4.1189     4.1189     0.0000
  6 C      6.0592     6.0000    -0.0592     4.0782     4.0782     0.0000
  7 H      0.8994     1.0000     0.1006     0.9611     0.9611    -0.0000
  8 H      0.9331     1.0000     0.0669     0.9656     0.9656     0.0000
  9 H      0.8994     1.0000     0.1006     0.9611     0.9611    -0.0000
 10 H      0.9461     1.0000     0.0539     0.9768     0.9768    -0.0000
 11 H      0.9182     1.0000     0.0818     0.9564     0.9564    -0.0000
 12 H      0.9198     1.0000     0.0802     0.9531     0.9531    -0.0000
 13 H      0.9438     1.0000     0.0562     0.9648     0.9648     0.0000
 14 H      0.7960     1.0000     0.2040     0.9076     0.9076     0.0000
 15 H      0.9198     1.0000     0.0802     0.9531     0.9531     0.0000
 16 H      0.9438     1.0000     0.0562     0.9648     0.9648     0.0000
 17 H      0.9461     1.0000     0.0539     0.9768     0.9768     0.0000
 18 H      0.9182     1.0000     0.0818     0.9564     0.9564     0.0000

  Mayer bond orders larger than 0.100000
B(  0-C ,  1-N ) :   1.0471 B(  0-C ,  7-H ) :   0.9557 B(  0-C ,  8-H ) :   0.9251 
B(  0-C ,  9-H ) :   0.9557 B(  1-N ,  2-C ) :   1.0317 B(  1-N ,  6-C ) :   1.0317 
B(  2-C ,  3-C ) :   1.1553 B(  2-C , 10-H ) :   0.8798 B(  2-C , 11-H ) :   0.9218 
B(  3-C ,  4-N ) :   1.0802 B(  3-C , 12-H ) :   0.9224 B(  3-C , 13-H ) :   0.8874 
B(  4-N ,  5-C ) :   1.0802 B(  4-N , 14-H ) :   0.8790 B(  5-C ,  6-C ) :   1.1553 
B(  5-C , 15-H ) :   0.9224 B(  5-C , 16-H ) :   0.8874 B(  6-C , 17-H ) :   0.8798 
B(  6-C , 18-H ) :   0.9218 

-------
TIMINGS
-------

Total SCF time: 0 days 0 hours 0 min 2 sec 

Total time                  ....       2.328 sec
Sum of individual times     ....       2.319 sec  ( 99.6%)

SCF preparation             ....       0.026 sec  (  1.1%)
Fock matrix formation       ....       1.997 sec  ( 85.8%)
  Startup                   ....       0.001 sec  (  0.1% of F)
  Split-RI-J                ....       0.889 sec  ( 44.5% of F)
  XC integration            ....       1.089 sec  ( 54.5% of F)
    Basis function eval.    ....       0.478 sec  ( 43.9% of XC)
    Density eval.           ....       0.228 sec  ( 20.9% of XC)
    XC-Functional eval.     ....       0.083 sec  (  7.6% of XC)
    XC-Potential eval.      ....       0.259 sec  ( 23.8% of XC)
Diagonalization             ....       0.000 sec  (  0.0%)
Density matrix formation    ....       0.016 sec  (  0.7%)
Total Energy calculation    ....       0.000 sec  (  0.0%)
Population analysis         ....       0.040 sec  (  1.7%)
Orbital Transformation      ....       0.010 sec  (  0.4%)
Orbital Orthonormalization  ....       0.000 sec  (  0.0%)
DIIS solution               ....       0.022 sec  (  0.9%)
  MO trafo                  ....       0.000 sec  (  0.0 % of DIIS)
  Orb grad                  ....       0.000 sec  (  0.0 % of DIIS)
  Energy W gradient         ....       0.000 sec  (  0.0 % of DIIS)
  DIIS error                ....       0.001 sec  (  6.1 % of DIIS)
  DIIS work                 ....       0.011 sec  ( 52.0 % of DIIS)
  Form Q                    ....       0.000 sec  (  0.0 % of DIIS)
  Form QpQm                 ....       0.000 sec  (  0.0 % of DIIS)
  Exp/Cayley                ....       0.000 sec  (  0.0 % of DIIS)
  Orb update                ....       0.000 sec  (  0.0 % of DIIS)
  Wake-sleep                ....       0.000 sec  (  1.0 % of DIIS)
SOSCF solution              ....       0.207 sec  (  8.9%)
  MO trafo                  ....       0.206 sec  ( 99.4 % of SOSCF)
  Orb grad                  ....       0.000 sec  (  0.0 % of SOSCF)
  Rot update                ....       0.000 sec  (  0.1 % of SOSCF)
  Step                      ....       0.001 sec  (  0.5 % of SOSCF)
Finished LeanSCF after   2.3 sec

Maximum memory used throughout the entire LEANSCF-calculation: 12.3 MB


-------------------------------------------------------------------------------
                          DFT DISPERSION CORRECTION                            
                                                                               
                                DFTD4 V3.4.0                                   
-------------------------------------------------------------------------------
The PBE functional is recognized
Active option DFTDOPT                   ...         5   

-------------------------   ----------------
Dispersion correction           -0.016514173
-------------------------   ----------------

------------------   -----------------
gCP correction             0.090771611
------------------   -----------------

-------------------------   --------------------
FINAL SINGLE POINT ENERGY      -306.504826523413
-------------------------   --------------------


------------------------------------------------------------------------------
                              ORCA PROPERTY CALCULATIONS
------------------------------------------------------------------------------

GBWName                                 ... sp.gbw
Number of atoms                         ...     19
Number of basis functions               ...    122
Max core memory                         ...   1024 MB

Electric properties:
Dipole moment                           ... YES
Quadrupole moment                       ...  NO
Static polarizability (Dipole/Dipole)   ...  NO
Static polarizability (Dipole/Quad.)    ...  NO
Static polarizability (Quad./Quad.)     ...  NO
Static polarizability (Velocity)        ...  NO

Atomic electric properties:
Dipole moment                           ...  NO
Quadrupole moment                       ...  NO
Static polarizability                   ...  NO

Choice of electric origin               ... Center of mass
Position of electric origin             ...    -0.000000    -0.000000     0.000000

General magnetic properties:
Magnetizability                         ...  NO

EPR properties:
g-Tensor (aka g-matrix)                 ...  NO
Zero-Field splitting spin-orbit         ...  NO
Zero-field splitting spin-spin          ...  NO
Hyperfine couplings                     ...  NO (   0 nuclei)
Quadrupole couplings                    ...  NO (   0 nuclei)
Contact density                         ...  NO (   0 nuclei)

NMR properties:
Chemical shifts                         ...  NO (   0 nuclei)
Spin-rotation constants                 ...  NO (   0 nuclei)
Spin-spin couplings                     ...  NO (   0 nuclei,    0 pairs)

Choice of magnetic origin               ... GIAO
Position of magnetic origin             ...     0.000000     0.000000     0.000000

Properties with geometric perturbations:
SCF Hessian                             ...  NO
IR spectrum                             ...  NO
VCD spectrum                            ...  NO
X-ray spectroscopy properties:
SCF XES/XAS/RIXS spectra                ...  NO


-------------
DIPOLE MOMENT
-------------

Method             : SCF
Type of density    : Electron Density
Multiplicity       :   1
Irrep              :   0
Energy             :  -306.5790839604932785 Eh
Relativity type    : 
Basis              : AO
                                X                 Y                 Z
Electronic contribution:     -2.244372804      -0.000029089      -0.398797805
Nuclear contribution   :      2.110552245       0.000050307       0.246814588
                        -----------------------------------------
Total Dipole Moment    :     -0.133820559       0.000021218      -0.151983218
                        -----------------------------------------
Magnitude (a.u.)       :      0.202501459
Magnitude (Debye)      :      0.514717803



--------------------
Rotational spectrum 
--------------------
 
Rotational constants in cm-1:             0.158709             0.078334             0.057299 
Rotational constants in MHz :          4757.980488          2348.405376          1717.769558 

Dipole components along the rotational axes: 
x,y,z [a.u.] :    -0.135900    -0.000022    -0.150127 
x,y,z [Debye]:    -0.345431    -0.000055    -0.381591 

 

Dipole moment calculation done in   0.0 sec 

Maximum memory used throughout the entire PROP-calculation: 7.9 MB

--------------------------------
SUGGESTED CITATIONS FOR THIS RUN
--------------------------------

Below you find a list of papers that are relevant to this ORCA run
We neither can nor want to force you to cite these papers, but we appreciate if you do
You receive ORCA, which is the product of decades of hard work by many enthusiastic individuals, for free
The only thing we kindly ask in return is that you cite our papers,
We deeply appreciate it, if you show your appreciation for ORCA by not just citing the generic ORCA reference.

Please note that relegating all ORCA citations to the supporting information does *not* help us.
SI sections are not indexed - citations you put there will not count into any citation statistics
But we need these citations in order to attract the funding resources that allow us to do what we are doing

Therefore, if you are a happy ORCA user, please consider citing a few of the papers listed below in the main body of your paper

In addition to the list printed below, the program has created the file sp.bibtex that contains the list in bibtex format
You can import this file easily into all common literature databanks and citation aid programs


List of essential papers. We consider these as the minimum necessary citations

  1. Neese,F.
     Software update: the ORCA program system, version 5.0
     WIRES Comput. Molec. Sci., 2022 12(1)e1606
     doi.org/10.1002/wcms.1606

List of papers to cite with high priority. The work reported in these papers was absolutely
necessary for this run to complete.
Our perspective: the developers of density functionals and basis sets usually get cited in chemistry papers
Good! But without the algorithms to do something with them, the functionals or basis sets would not do anything.
Hence, in our opinion, the algorithm design and method developments papers are equally worthy of getting cited

  1. Neese,F.
     An improvement of the resolution of the identity approximation for the formation of the Coulomb matrix
     J. Comp. Chem., 2003 24(14)1740-1747
     doi.org/10.1002/jcc.10318
  2. Neese,F.
     The SHARK Integral Generation and Digestion System
     J. Comp. Chem., 2022  1-16
     doi.org/10.1002/jcc.26942
  3. Caldeweyher,E.; Bannwarth,C.; Grimme,S.
     Extension of the D3 dispersion coefficient model
     J. Chem. Phys., 2017 147 034112
     doi.org/10.1063/1.4993215
  4. Caldeweyher,E.; Ehlert,S.; Hansen,A.; Neugebauer,H.; Spicher,S.; Bannwarth,C.; Grimme,S.
     A generally applicable atomic-charge dependent London dispersion correction
     J. Chem. Phys., 2019 150 154122
     doi.org/10.1063/1.5090222
  5. Caldeweyher,E.; Mewes,J.; Ehlert,S.; Grimme,S.
     Extension and evaluation of the D4 London-dispersion model for periodic systems
     Phys. Chem. Chem. Phys., 2020 22(16)8499-8512
     doi.org/10.1039/D0CP00502A
  6. Wittmann,L.; Gordiy,I.; Friede,M.; Helmich-Paris,B.; Grimme,S.; Hansen,A.; Bursch,M.
     Extension of the D3 and D4 London Dispersion Corrections to the full Actinides Series
     Phys. Chem. Chem. Phys., 2024 26(32)21379-21394
     doi.org/https://doi.org/10.1039/D4CP01514B 

List of suggested additional citations. These are papers that are important in the 'surrounding' of 
of this run, or papers that preceded the highly important papers. If you like your results we are grateful for a citation.

  1. Neese,F.
     The ORCA program system
     WIRES Comput. Molec. Sci., 2012 2(1)73-78
     doi.org/10.1002/wcms.81
  2. Neese,F.
     Software update: the ORCA program system, version 4.0
     WIRES Comput. Molec. Sci., 2018 8(1)1-6
     doi.org/10.1002/wcms.1327
  3. Neese,F.; Wennmohs,F.; Becker,U.; Riplinger,C.
     The ORCA quantum chemistry program package
     J. Chem. Phys., 2020 152 Art. No. L224108
     doi.org/10.1063/5.0004608

List of optional additional citations

  1. Neese,F.
     Approximate second-order SCF convergence for spin unrestricted wavefunctions
     Chem. Phys. Lett., 2000 325(1-3)93-98
     doi.org/10.1016/s0009-2614(00)00662-x

Timings for individual modules:

Sum of individual times          ...        2.906 sec (=   0.048 min)
Startup calculation              ...        0.248 sec (=   0.004 min)   8.5 %
SCF iterations                   ...        2.622 sec (=   0.044 min)  90.2 %
Property calculations            ...        0.036 sec (=   0.001 min)   1.2 %
                             ****ORCA TERMINATED NORMALLY****
TOTAL RUN TIME: 0 days 0 hours 0 minutes 2 seconds 978 msec
