      -----------------------------------------------------------      
     |                   =====================                   |     
     |                           x T B                           |     
     |                   =====================                   |     
     |                         S. Grimme                         |     
     |          Mulliken Center for Theoretical Chemistry        |     
     |                    University of Bonn                     |     
      -----------------------------------------------------------      

   * xtb version 6.7.1 (41059b4) compiled by 'michael@archlinux' on 2025-03-24

   xtb is free software: you can redistribute it and/or modify it under
   the terms of the GNU Lesser General Public License as published by
   the Free Software Foundation, either version 3 of the License, or
   (at your option) any later version.
   
   xtb is distributed in the hope that it will be useful,
   but WITHOUT ANY WARRANTY; without even the implied warranty of
   MERCHANTABILITY or FITNESS FOR A PARTICULAR PURPOSE.  See the
   GNU Lesser General Public License for more details.
   
   Cite this work as:
   * C. Bannwarth, E. Caldeweyher, S. Ehlert, A. Hansen, P. Pracht,
     J. Seibert, S. Spicher, S. Grimme, WIREs Comput. Mol. Sci., 2020, 11,
     e01493. DOI: 10.1002/wcms.1493
   
   for GFN2-xTB:
   * C. Bannwarth, S. Ehlert and S. Grimme., J. Chem. Theory Comput., 2019,
     15, 1652-1671. DOI: 10.1021/acs.jctc.8b01176
   for GFN1-xTB:
   * S. Grimme, C. Bannwarth, P. Shushkov, J. Chem. Theory Comput., 2017,
     13, 1989-2009. DOI: 10.1021/acs.jctc.7b00118
   for GFN0-xTB:
   * P. Pracht, E. Caldeweyher, S. Ehlert, S. Grimme, ChemRxiv, 2019, preprint.
     DOI: 10.26434/chemrxiv.8326202.v1
   for GFN-FF:
   * S. Spicher and S. Grimme, Angew. Chem. Int. Ed., 2020, 59, 15665-15673.
     DOI: 10.1002/anie.202004239
   
   for ALPB and GBSA implicit solvation:
   * S. Ehlert, M. Stahn, S. Spicher, S. Grimme, J. Chem. Theory Comput.,
     2021, 17, 4250-4261. DOI: 10.1021/acs.jctc.1c00471
   
   for ddCOSMO and CPCM-X implicit solvation:
   * M. Stahn, S. Ehlert, S. Grimme, J. Phys. Chem. A,
     2023, XX, XXXX-XXXX. DOI: 10.1021/acs.jpca.3c04382
   
   for DFT-D4:
   * E. Caldeweyher, C. Bannwarth and S. Grimme, J. Chem. Phys., 2017,
     147, 034112. DOI: 10.1063/1.4993215
   * E. Caldeweyher, S. Ehlert, A. Hansen, H. Neugebauer, S. Spicher,
     C. Bannwarth and S. Grimme, J. Chem. Phys., 2019, 150, 154122.
     DOI: 10.1063/1.5090222
   * E. Caldeweyher, J.-M. Mewes, S. Ehlert and S. Grimme, Phys. Chem. Chem. Phys.
     2020, 22, 8499-8512. DOI: 10.1039/D0CP00502A
   
   for sTDA-xTB:
   * S. Grimme and C. Bannwarth, J. Chem. Phys., 2016, 145, 054103.
     DOI: 10.1063/1.4959605
   
   in the mass-spec context:
   * V. Asgeirsson, C. Bauer and S. Grimme, Chem. Sci., 2017, 8, 4879.
     DOI: 10.1039/c7sc00601b
   * J. Koopman and S. Grimme, ACS Omega 2019, 4, 12, 15120-15133.
     DOI: 10.1021/acsomega.9b02011
   
   for metadynamics refer to:
   * S. Grimme, J. Chem. Theory Comput., 2019, 155, 2847-2862
     DOI: 10.1021/acs.jctc.9b00143
   
   for SPH calculations refer to:
   * S. Spicher and S. Grimme, J. Chem. Theory Comput., 2021, 17, 1701-1714
     DOI: 10.1021/acs.jctc.0c01306
   
   for ONIOM refer to:
   * C. Plett, A. Katbashev, S. Ehlert, S. Grimme, M. Bursch,
     Phys. Chem. Chem. Phys., 2023, 25, 17860-17868. DOI: 10.1039/D3CP02178E
   
   for DIPRO refer to:
   * J. Kohn, N. Gildemeister, S. Grimme, D. Fazzi, A. Hansen,
     J. Chem. Phys., 2023, just accepted.
   
   for PTB refer to:
   * S. Grimme, M. Mueller, A. Hansen, J. Chem. Phys., 2023, 158, 124111.
     DOI: 10.1063/5.0137838
   
   with help from (in alphabetical order)
   P. Atkinson, C. Bannwarth, F. Bohle, G. Brandenburg, E. Caldeweyher
   M. Checinski, S. Dohm, S. Ehlert, S. Ehrlich, I. Gerasimov, C. Hölzer
   A. Katbashev, J. Kohn, J. Koopman, C. Lavigne, S. Lehtola, F. März, M. Müller,
   F. Musil, H. Neugebauer, J. Pisarek, C. Plett, P. Pracht, F. Pultar,
   J. Seibert, P. Shushkov, S. Spicher, M. Stahn, M. Steiner, T. Strunk,
   J. Stückrath, T. Rose, and J. Unsleber
   
 * started run on 2025/04/09 at 06:26:03.455     
   ID    Z sym.   atoms
    1    6 C      1-6, 10-15
    2   17 Cl     7, 8, 17, 18
    3    8 O      9, 16
    4    1 H      19-22

           -------------------------------------------------
          |                Calculation Setup                |
           -------------------------------------------------

          program call               : /usr/bin/xtb xtb_opt.coord --opt normal --orca -I xtb_opt-xcontrol-inp
          coordinate file            : xtb_opt.coord
          omp threads                :                    16

           -------------------------------------------------
          |                   Orca driver                   |
           -------------------------------------------------
orca executable           : /home/michael/Documents/CHEM4561/orca_avx2/orca
orca input file           : xtb_opt.inp
orca input line           : 
orca parallel             : true
orca number of threads    : 16
                         * ORCA takes the control...
  ------------------------------------------------------------------------

                                 *****************
                                 * O   R   C   A *
                                 *****************

                                            #,                                       
                                            ###                                      
                                            ####                                     
                                            #####                                    
                                            ######                                   
                                           ########,                                 
                                     ,,################,,,,,                         
                               ,,#################################,,                 
                          ,,##########################################,,             
                       ,#########################################, ''#####,          
                    ,#############################################,,   '####,        
                  ,##################################################,,,,####,       
                ,###########''''           ''''###############################       
              ,#####''   ,,,,##########,,,,          '''####'''          '####       
            ,##' ,,,,###########################,,,                        '##       
           ' ,,###''''                  '''############,,,                           
         ,,##''                                '''############,,,,        ,,,,,,###''
      ,#''                                            '''#######################'''  
     '                                                          ''''####''''         
             ,#######,   #######,   ,#######,      ##                                
            ,#'     '#,  ##    ##  ,#'     '#,    #''#        ,####,   ,####,        
            ##       ##  ##   ,#'  ##            #'  '#       #'       #'  '#        
            ##       ##  #######   ##           ,######,      #####,   #    #        
            '#,     ,#'  ##    ##  '#,     ,#' ,#      #,     #,   #   #,  ,#        
             '#######'   ##     ##  '#######'  #'      '#     '####' # '####'        



                #########################################################
                #                        -***-                          #
                #          Department of theory and spectroscopy        #
                #                                                       #
                #                      Frank Neese                      #
                #                                                       #
                #     Directorship, Architecture, Infrastructure        #
                #                    SHARK, DRIVERS                     #
                #        Core code/Algorithms in most modules           #
                #                                                       #
                #        Max Planck Institute fuer Kohlenforschung      #
                #                Kaiser Wilhelm Platz 1                 #
                #                 D-45470 Muelheim/Ruhr                 #
                #                      Germany                          #
                #                                                       #
                #                  All rights reserved                  #
                #                        -***-                          #
                #########################################################


                         Program Version 6.0.1  -  RELEASE   -


 With contributions from (in alphabetic order):
[Max-Planck-Institut fuer Kohlenforschung]                               
  Daniel Aravena         : Magnetic Suceptibility                        
  Michael Atanasov       : Ab Initio Ligand Field Theory (pilot matlab implementation)
  Alexander A. Auer      : GIAO ZORA, VPT2 properties, NMR spectrum      
  Ute Becker             : All parallelization in ORCA, NUMFREQ, NUMCALC 
  Giovanni Bistoni       : ED, misc. LED, open-shell LED, HFLD           
  Martin Brehm           : Molecular dynamics                            
  Dmytro Bykov           : pre 5.0 version of the SCF Hessian            
  Marcos Casanova-Páez   : Triplet and SCS-CIS(D). UHF-(DLPNO)-IP/EA/STEOM-CCSD. UHF-CVS-IP/STEOM-CCSD   
  Vijay G. Chilkuri      : MRCI spin determinant printing, contributions to CSF-ICE 
  Pauline Colinet        : FMM embedding                                 
  Dipayan Datta          : RHF DLPNO-CCSD density                        
  Achintya Kumar Dutta   : EOM-CC, STEOM-CC                              
  Nicolas Foglia         : Exact transition moments, OPA infrastructure, MCD improvements    
  Dmitry Ganyushin       : Spin-Orbit,Spin-Spin,Magnetic field MRCI      
  Miquel Garcia-Rates    : C-PCM and meta-GGA Hessian, CCSD/C-PCM, Gaussian charge scheme 
  Tiago L. C. Gouveia    : GS-ROHF, GS-ROCIS                             
  Yang Guo               : DLPNO-NEVPT2, F12-NEVPT2, CIM, IAO-localization        
  Andreas Hansen         : Spin unrestricted coupled pair/coupled cluster methods 
  Ingolf Harden          : AUTO-CI MPn and infrastructure                
  Benjamin Helmich-Paris : MC-RPA, TRAH-(SCF,CASSCF), AVAS, COSX integrals, SCF dyn. polar. 
  Lee Huntington         : MR-EOM, pCC                                   
  Robert Izsak           : Overlap fitted RIJCOSX, COSX-SCS-MP3, EOM     
  Riya Kayal             : Wick's Theorem for AUTO-CI, AUTO-CI UHF-CCSDT 
  Emily Kempfer          : AUTO-CI, RHF CISDT and CCSDT                  
  Christian Kollmar      : KDIIS, OOCD, Brueckner-CCSD(T), CCSD density, CASPT2, CASPT2-K, improved NEVPT2 
  Axel Koslowski         : Symmetry handling                             
  Simone Kossmann        : meta-GGA functionals, TD-DFT gradient, OOMP2, (MP2 Hessian; deprecated post 5.0) 
  Lucas Lang             : DCDCAS                                        
  Marvin Lechner         : AUTO-CI (C++ implementation), FIC-MRCC        
  Spencer Leger          : CASSCF response                               
  Dagmar Lenk            : GEPOL surface, SMD, ORCA-2-JSON               
  Dimitrios Liakos       : Extrapolation schemes; Compound Job, initial MDCI parallelization 
  Dimitrios Manganas     : Further ROCIS development; embedding schemes. LFT, Crystal Embedding 
  Dimitrios Pantazis     : SARC Basis sets                               
  Anastasios Papadopoulos: AUTO-CI, single reference methods and gradients 
  Taras Petrenko         : pre 6.0 DFT Hessian and TD-DFT gradient, (ASA, deprecated), ECA, 1-Electron XAS/XES, NRVS 
  Peter Pinski           : DLPNO-MP2, DLPNO-MP2 Gradient                 
  Christoph Reimann      : Effective Core Potentials                     
  Marius Retegan         : Local ZFS, SOC                                
  Christoph Riplinger    : Optimizer, TS searches, QM/MM, DLPNO-CCSD(T), (RO)-DLPNO pert. Triples 
  Michael Roemelt        : Original ROCIS implementation                 
  Masaaki Saitow         : Open-shell DLPNO-CCSD energy and density      
  Barbara Sandhoefer     : DKH picture change effects                    
  Kantharuban Sivalingam : CASSCF convergence/infrastructure, NEVPT2 and variants, FIC-MRCI 
  Bernardo de Souza      : ESD, SOC TD-DFT                               
  Georgi L. Stoychev     : AutoAux, RI-MP2 NMR, DLPNO-MP2 response, X2C  
  Van Anh Tran           : RI-MP2 g-tensors                              
  Willem Van den Heuvel  : Paramagnetic NMR                              
  Zikuan Wang            : NOTCH, Electric field optimization            
  Frank Wennmohs         : Technical directorship and infrastructure     
  Hang Xu                : AUTO-CI-Response properties                   
                                                                         
[FACCTs GmbH]                                                            
  Markus Bursch, Miquel Garcia-Rates, Christoph Riplinger, Bernardo de Souza, Georgi L. Stoychev 
                                                                 
  APM, Basis sets (HGBS, AHGBS, def-TZVP (Ac-Lr), def2-XVPD (La-Lu)), CI-OPT, improved COSX, DLPNO-Multilevel,           
  DOCKER, DRACO, updates on ESD, GOAT, IRC, LR-CPCM, MBIS, meta-GGA TD-DFT gradient, ML-optimized integration grids, 
  MM, NACMEs, nearIR, NEB, NEB-TS, NL-DFT gradient (VV10), 2- and 3-layer-ONIOM, interface openCOSMO-RS, QMMM,   
  Crystal-QMMM, SF, symmetry and pop. for TD-DFT, r2SCAN hybrids, SOLVATOR                                   
                                                                         
[Other institutions]                                                     
  V. Asgeirsson          : NEB                                           
  Christoph Bannwarth    : sTDA-DFT, sTD-DFT, PBEh-3c, B97-3c, D3        
  Sebastian Ehlert       : rSCAN, r2SCAN, r2SCAN-3c, D4, dhf basis sets  
  Marvin Friede          : D4 for Fr, Ra, Ac-Lr                          
  Lars Goerigk           : TD-DFT with DH, B97 family of functionals     
  Stefan Grimme          : VdW corrections, initial TS optimization, DFT functionals, gCP, sTDA/sTD-DF 
  Waldemar Hujo          : DFT-NL                                        
  H. Jonsson             : NEB                                           
  Holger Kruse           : gCP                                           
  Marcel Mueller         : wB97X-3c, vDZP basis set                      
  Hagen Neugebauer       : wr2SCAN                                       
  Tobias Risthaus        : range-separated hybrid DFT                    
  Lukas Wittmann         : regularized MP2, r2SCAN double-hybrids, wr2SCAN        
                                                                         
We gratefully acknowledge several colleagues who have allowed us to      
interface, adapt or use parts of their codes:                            
  Ed Valeev, F. Pavosevic, A. Kumar             : LibInt (2-el integral package), F12 methods 
  Garnet Chan, S. Sharma, J. Yang, R. Olivares  : DMRG                   
  Ulf Ekstrom                                   : XCFun DFT Library      
  Mihaly Kallay                                 : mrcc  (arbitrary order and MRCC methods)
  Frank Weinhold                                : gennbo (NPA and NBO analysis)           
  Simon Mueller                                 : openCOSMO-RS                            
  Christopher J. Cramer and Donald G. Truhlar   : smd solvation model                     
  S Lehtola, MJT Oliveira, MAL Marques          : LibXC Library                           
  Liviu Ungur et al                             : ANISO software                          


 Your calculation uses the libint2 library for the computation of 2-el integrals
 For citations please refer to: http://libint.valeyev.net

 Your ORCA version has been built with support for libXC version: 6.2.2
 For citations please refer to: https://libxc.gitlab.io

 This ORCA versions uses:
   CBLAS   interface :  Fast vector & matrix operations
   LAPACKE interface :  Fast linear algebra routines
   SCALAPACK package :  Parallel linear algebra routines
   Shared memory     :  Shared parallel matrices
   BLAS/LAPACK       :  OpenBLAS 0.3.27  USE64BITINT DYNAMIC_ARCH NO_AFFINITY Zen SINGLE_THREADED
        Core in use  :  Zen
   Copyright (c) 2011-2014, The OpenBLAS Project




***************************************
The coordinates will be read from file: xtb_opt.xyz
***************************************


Your calculation utilizes the geometrical counterpoise correction gCP
Please cite in your paper:
H.Kruse, S. Grimme J.Chem.Phys., 136, (2012), 154101 
   

Your calculation utilizes the atom-pairwise dispersion correction
based on EEQ partial charges (D4)


================================================================================

----- Orbital basis set information -----
Your calculation utilizes the basis: def2-mTZVPP
   Stefan Grimme, Andreas Hansen, Sebastian Ehlert, and Jan-Michael Mewes 
   J. Chem. Phys. 154, 064103 (2021). DOI: 10.1063/5.0040021

----- AuxJ basis set information -----
Your calculation utilizes the auxiliary basis: def2/J
   F. Weigend, Phys. Chem. Chem. Phys. 8, 1057 (2006).

================================================================================
                                        WARNINGS
                       Please study these warnings very carefully!
================================================================================

WARNING: Old DensityContainer found on disk!
         Will remove this file - 
         If you want to keep old densities, please start your calculation with a different basename. 



WARNING: SCAN, rSCAN, or r2SCAN functional requested.
  ===> : libXC variant has now been activated.



================================================================================
                                       INPUT FILE
================================================================================
NAME = xtb_opt.inp
|  1> ! r2scan-3c def2/J RI DEFGRID2 scfconv7 ENGRAD tightSCF miniprint
|  2> * xyzfile 0 1 xtb_opt.xyz
|  3> 
|  4>                          ****END OF INPUT****
================================================================================

                     *******************************
                     * Energy+Gradient Calculation *
                     *******************************

---------------------------------
CARTESIAN COORDINATES (ANGSTROEM)
---------------------------------
  C      2.361782   -1.387477   -0.000051
  C      1.161838   -0.699156   -0.000087
  C      1.161844    0.699158   -0.000091
  C      2.361783    1.387485   -0.000038
  C      3.565917    0.695222    0.000015
  C      3.565913   -0.695214    0.000001
  Cl     5.043802   -1.570646    0.000045
  Cl     5.043810    1.570637    0.000100
  O     -0.000002    1.428257   -0.000148
  C     -1.161841    0.699164   -0.000098
  C     -2.361786    1.387485   -0.000062
  C     -3.565917    0.695220    0.000000
  C     -3.565911   -0.695215    0.000016
  C     -2.361781   -1.387478   -0.000020
  C     -1.161842   -0.699150   -0.000078
  O     -0.000004   -1.428247   -0.000110
  Cl    -5.043800   -1.570650    0.000084
  Cl    -5.043810    1.570640    0.000059
  H      2.347737   -2.464676   -0.000054
  H      2.347727    2.464682   -0.000035
  H     -2.347736    2.464681   -0.000080
  H     -2.347725   -2.464676   -0.000005

----------------------------
CARTESIAN COORDINATES (A.U.)
----------------------------
  NO LB      ZA    FRAG     MASS         X           Y           Z
   0 C     6.0000    0    12.011    4.463120   -2.621952   -0.000097
   1 C     6.0000    0    12.011    2.195556   -1.321213   -0.000164
   2 C     6.0000    0    12.011    2.195567    1.321217   -0.000172
   3 C     6.0000    0    12.011    4.463124    2.621966   -0.000072
   4 C     6.0000    0    12.011    6.738607    1.313779    0.000029
   5 C     6.0000    0    12.011    6.738599   -1.313765    0.000001
   6 Cl   17.0000    0    35.453    9.531405   -2.968091    0.000085
   7 Cl   17.0000    0    35.453    9.531420    2.968074    0.000189
   8 O     8.0000    0    15.999   -0.000004    2.699015   -0.000280
   9 C     6.0000    0    12.011   -2.195561    1.321228   -0.000185
  10 C     6.0000    0    12.011   -4.463129    2.621968   -0.000117
  11 C     6.0000    0    12.011   -6.738606    1.313775    0.000001
  12 C     6.0000    0    12.011   -6.738596   -1.313766    0.000031
  13 C     6.0000    0    12.011   -4.463120   -2.621954   -0.000038
  14 C     6.0000    0    12.011   -2.195562   -1.321203   -0.000147
  15 O     8.0000    0    15.999   -0.000007   -2.698996   -0.000209
  16 Cl   17.0000    0    35.453   -9.531400   -2.968098    0.000159
  17 Cl   17.0000    0    35.453   -9.531419    2.968079    0.000112
  18 H     1.0000    0     1.008    4.436579   -4.657562   -0.000102
  19 H     1.0000    0     1.008    4.436562    4.657574   -0.000065
  20 H     1.0000    0     1.008   -4.436577    4.657571   -0.000152
  21 H     1.0000    0     1.008   -4.436558   -4.657562   -0.000009

------------------------------------------------------------------------------
                   ___                                                        
                  /   \      - P O W E R E D   B Y -                         
                 /     \                                                     
                 |  |  |   _    _      __       _____    __    __             
                 |  |  |  | |  | |    /  \     |  _  \  |  |  /  |          
                  \  \/   | |  | |   /    \    | | | |  |  | /  /          
                 / \  \   | |__| |  /  /\  \   | |_| |  |  |/  /          
                |  |  |   |  __  | /  /__\  \  |    /   |      \           
                |  |  |   | |  | | |   __   |  |    \   |  |\   \          
                \     /   | |  | | |  |  |  |  | |\  \  |  | \   \       
                 \___/    |_|  |_| |__|  |__|  |_| \__\ |__|  \__/        
                                                                              
                      - O R C A' S   B I G   F R I E N D -                    
                                      &                                       
                       - I N T E G R A L  F E E D E R -                       
                                                                              
 v1 FN, 2020, v2 2021, v3 2022-2024                                           
------------------------------------------------------------------------------


----------------------
SHARK INTEGRAL PACKAGE
----------------------

Number of atoms                             ...     22
Number of basis functions                   ...    404
Number of shells                            ...    184
Maximum angular momentum                    ...      2
Integral batch strategy                     ... SHARK/LIBINT Hybrid
RI-J (if used) integral strategy            ... SPLIT-RIJ (Revised 2003 algorithm where possible)
Printlevel                                  ...      1
Contraction scheme used                     ... SEGMENTED contraction
Prescreening option                         ... SCHWARTZ
   Thresh                                   ... 3.000e-11
   Tcut                                     ... 1.000e-12
   Tpresel                                  ... 1.000e-12 
Coulomb Range Separation                    ... NOT USED
Exchange Range Separation                   ... NOT USED
Multipole approximations                    ... NOT USED
Finite Nucleus Model                        ... NOT USED
CABS basis                                  ... NOT available
Auxiliary Coulomb fitting basis             ... AVAILABLE
   # of basis functions in Aux-J            ...    934
   # of shells in Aux-J                     ...    298
   Maximum angular momentum in Aux-J        ...      4
Auxiliary J/K fitting basis                 ... NOT available
Auxiliary Correlation fitting basis         ... NOT available
Auxiliary 'external' fitting basis          ... NOT available

Checking pre-screening integrals            ... done (  0.0 sec) Dimension = 184
Check shell pair data                       ... done (  0.0 sec)
Shell pair information
Shell pair cut-off parameter TPreSel        ...   1.0e-12
Total number of shell pairs                 ...     17020
Shell pairs after pre-screening             ...     12466
Total number of primitive shell pairs       ...     70605
Primitive shell pairs kept                  ...     31960
          la=0 lb=0:   3273 shell pairs
          la=1 lb=0:   4608 shell pairs
          la=1 lb=1:   1597 shell pairs
          la=2 lb=0:   1634 shell pairs
          la=2 lb=1:   1140 shell pairs
          la=2 lb=2:    214 shell pairs

Calculating one electron integrals          ... done (  0.0 sec)
Calculating RI/J V-Matrix + Cholesky decomp.... done (  0.0 sec)
Calculating Nuclear repulsion               ... done (  0.0 sec) ENN=   1670.664787535463 Eh

Diagonalization of the overlap matrix:
Smallest eigenvalue                        ... 1.320e-05
Time for diagonalization                   ...    0.012 sec
Threshold for overlap eigenvalues          ... 1.000e-07
Number of eigenvalues below threshold      ... 0
Time for construction of square roots      ...    0.005 sec
Total time needed                          ...    0.018 sec

-------------------
DFT GRID GENERATION
-------------------

General Integration Accuracy     IntAcc      ... 4.388
Radial Grid Type                 RadialGrid  ... OptM3 with GC (2021)
Angular Grid (max. ang.)         AngularGrid ... 4 (Lebedev-302)
Angular grid pruning method      GridPruning ... 4 (adaptive)
Weight generation scheme         WeightScheme... mBecke (2022)
Basis function cutoff            BFCut       ... 1.0000e-11
Integration weight cutoff        WCut        ... 1.0000e-14
Partially contracted basis set               ... off
Rotationally invariant grid construction     ... off
Angular grids for H and He will be reduced by one unit
Diffuse basis detected: some atoms will have their outermost
                        angular grid increased by 1.

Total number of grid points                  ...   126294
Total number of batches                      ...     1984
Average number of points per batch           ...       63
Average number of grid points per atom       ...     5741
Initializing property integral containers    ... done (  0.0 sec)

SHARK setup successfully completed in   1.1 seconds

Maximum memory used throughout the entire STARTUP-calculation: 67.4 MB
Occupation numbers will be reassigned to an Aufbau configuration
             **** ENERGY FILE WAS UPDATED (xtb_opt.en.tmp) ****
Finished Guess after   0.1 sec
Maximum memory used throughout the entire GUESS-calculation: 37.1 MB
----------------------------------------D-I-I-S--------------------------------------------
Iteration    Energy (Eh)           Delta-E    RMSDP     MaxDP     DIISErr   Damp  Time(sec)
-------------------------------------------------------------------------------------------
               ***  Starting incremental Fock matrix formation  ***
                              *** Initializing SOSCF ***
---------------------------------------S-O-S-C-F--------------------------------------
Iteration    Energy (Eh)           Delta-E    RMSDP     MaxDP     MaxGrad    Time(sec)
--------------------------------------------------------------------------------------
    1    -2450.7068647750038508     0.00e+00  1.01e-05  2.08e-04  1.19e-04     3.6
               *** Restarting incremental Fock matrix formation ***
    2    -2450.7068644000682980     3.75e-07  2.17e-05  4.81e-04  1.83e-04     3.6
    3    -2450.7068574993281800     6.90e-06  1.68e-05  4.20e-04  6.67e-04     2.6
    4    -2450.7068653612286653    -7.86e-06  4.95e-06  2.52e-04  2.33e-05     2.6
                  *** Gradient check signals convergence ***

               *****************************************************
               *                     SUCCESS                       *
               *           SCF CONVERGED AFTER   4 CYCLES          *
               *****************************************************

             **** ENERGY FILE WAS UPDATED (xtb_opt.en.tmp) ****

----------------
TOTAL SCF ENERGY
----------------

Total Energy       :      -2450.70686536122867 Eh          -66687.12411 eV

Components:
Nuclear Repulsion  :       1670.66478753546312 Eh           45461.10007 eV
Electronic Energy  :      -4121.37165289669156 Eh         -112148.22418 eV
One Electron Energy:      -6693.26443140717311 Eh         -182132.98464 eV
Two Electron Energy:       2571.89277851048155 Eh           69984.76046 eV

Virial components:
Potential Energy   :      -4894.89560088608414 Eh         -133196.88090 eV
Kinetic Energy     :       2444.18873552485502 Eh           66509.75678 eV
Virial Ratio       :          2.00266678662807

DFT components:
N(Alpha)           :       80.000017815886 electrons
N(Beta)            :       80.000017815886 electrons
N(Total)           :      160.000035631772 electrons
E(X)               :     -190.802298848891 Eh       
E(C)               :       -5.755914745327 Eh       
E(XC)              :     -196.558213594218 Eh       

---------------
SCF CONVERGENCE
---------------

  Last Energy change         ...    7.8619e-06  Tolerance :   1.0000e-07
  Last MAX-Density change    ...    2.5166e-04  Tolerance :   1.0000e-07
  Last RMS-Density change    ...    4.9494e-06  Tolerance :   5.0000e-09
  Last DIIS Error            ...    2.4403e-04  Tolerance :   1.0000e-07
  Last Orbital Gradient      ...    2.3278e-05  Tolerance :   1.0000e-04
  Last Orbital Rotation      ...    1.0620e-04  Tolerance :   1.0000e-04


----------------
ORBITAL ENERGIES
----------------

  NO   OCC          E(Eh)            E(eV) 
   0   2.0000    -101.236733     -2754.7916 
   1   2.0000    -101.236732     -2754.7915 
   2   2.0000    -101.236729     -2754.7914 
   3   2.0000    -101.236728     -2754.7914 
   4   2.0000     -19.041429      -518.1436 
   5   2.0000     -19.041422      -518.1434 
   6   2.0000     -10.138188      -275.8741 
   7   2.0000     -10.138178      -275.8738 
   8   2.0000     -10.137778      -275.8630 
   9   2.0000     -10.137770      -275.8628 
  10   2.0000     -10.125523      -275.5295 
  11   2.0000     -10.125522      -275.5295 
  12   2.0000     -10.125090      -275.5177 
  13   2.0000     -10.125089      -275.5177 
  14   2.0000     -10.075261      -274.1618 
  15   2.0000     -10.075256      -274.1616 
  16   2.0000     -10.075248      -274.1614 
  17   2.0000     -10.075246      -274.1614 
  18   2.0000      -9.392643      -255.5868 
  19   2.0000      -9.392642      -255.5868 
  20   2.0000      -9.392638      -255.5867 
  21   2.0000      -9.392637      -255.5866 
  22   2.0000      -7.139129      -194.2656 
  23   2.0000      -7.139128      -194.2656 
  24   2.0000      -7.139128      -194.2656 
  25   2.0000      -7.139127      -194.2655 
  26   2.0000      -7.128852      -193.9859 
  27   2.0000      -7.128852      -193.9859 
  28   2.0000      -7.128851      -193.9859 
  29   2.0000      -7.128851      -193.9859 
  30   2.0000      -7.128183      -193.9677 
  31   2.0000      -7.128183      -193.9677 
  32   2.0000      -7.128182      -193.9677 
  33   2.0000      -7.128182      -193.9677 
  34   2.0000      -1.112242       -30.2657 
  35   2.0000      -1.078835       -29.3566 
  36   2.0000      -0.908116       -24.7111 
  37   2.0000      -0.901737       -24.5375 
  38   2.0000      -0.847099       -23.0507 
  39   2.0000      -0.841579       -22.9005 
  40   2.0000      -0.840533       -22.8721 
  41   2.0000      -0.813375       -22.1331 
  42   2.0000      -0.770717       -20.9723 
  43   2.0000      -0.733714       -19.9654 
  44   2.0000      -0.732717       -19.9382 
  45   2.0000      -0.699711       -19.0401 
  46   2.0000      -0.649549       -17.6751 
  47   2.0000      -0.641707       -17.4617 
  48   2.0000      -0.615204       -16.7406 
  49   2.0000      -0.585188       -15.9238 
  50   2.0000      -0.556584       -15.1454 
  51   2.0000      -0.530548       -14.4369 
  52   2.0000      -0.499492       -13.5919 
  53   2.0000      -0.481583       -13.1045 
  54   2.0000      -0.480912       -13.0863 
  55   2.0000      -0.477338       -12.9890 
  56   2.0000      -0.459868       -12.5136 
  57   2.0000      -0.449789       -12.2394 
  58   2.0000      -0.440499       -11.9866 
  59   2.0000      -0.418390       -11.3850 
  60   2.0000      -0.416748       -11.3403 
  61   2.0000      -0.415227       -11.2989 
  62   2.0000      -0.412822       -11.2334 
  63   2.0000      -0.409154       -11.1336 
  64   2.0000      -0.396927       -10.8009 
  65   2.0000      -0.394515       -10.7353 
  66   2.0000      -0.386354       -10.5132 
  67   2.0000      -0.340712        -9.2713 
  68   2.0000      -0.338006        -9.1976 
  69   2.0000      -0.335069        -9.1177 
  70   2.0000      -0.334310        -9.0970 
  71   2.0000      -0.313707        -8.5364 
  72   2.0000      -0.312180        -8.4949 
  73   2.0000      -0.292386        -7.9562 
  74   2.0000      -0.291402        -7.9295 
  75   2.0000      -0.289851        -7.8873 
  76   2.0000      -0.267691        -7.2843 
  77   2.0000      -0.246744        -6.7143 
  78   2.0000      -0.243560        -6.6276 
  79   2.0000      -0.202800        -5.5185 
  80   0.0000      -0.072337        -1.9684 
  81   0.0000      -0.068296        -1.8584 
  82   0.0000      -0.066704        -1.8151 
  83   0.0000      -0.032220        -0.8767 
  84   0.0000      -0.031398        -0.8544 
  85   0.0000      -0.025015        -0.6807 
  86   0.0000       0.021462         0.5840 
  87   0.0000       0.030999         0.8435 
  88   0.0000       0.039113         1.0643 
  89   0.0000       0.080261         2.1840 
  90   0.0000       0.085883         2.3370 
*Only the first 10 virtual orbitals were printed.
Total SCF time: 0 days 0 hours 0 min 12 sec 
Finished LeanSCF after  12.7 sec

Maximum memory used throughout the entire LEANSCF-calculation: 50.0 MB


-------------------------------------------------------------------------------
                          DFT DISPERSION CORRECTION                            
                                                                               
                                DFTD4 V3.4.0                                   
-------------------------------------------------------------------------------
-------------------------   ----------------
Dispersion correction           -0.012463849
-------------------------   ----------------

------------------   -----------------
gCP correction             0.011569535
------------------   -----------------

-------------------------   --------------------
FINAL SINGLE POINT ENERGY     -2450.707759675600
-------------------------   --------------------

------------------------------------------------------------------------------
                         ORCA SCF GRADIENT CALCULATION
------------------------------------------------------------------------------

Nuc. rep. gradient        (SHARK) ... done (  0.0 sec)
HCore & Overlap gradient  (SHARK) ... done (  0.5 sec)
Split-RIJ-J gradient      (SHARK) ... done (  4.2 sec)
XC gradient                       ... done (  8.6 sec)
Dispersion correction             ... done (  0.0 sec)

-------------------
DISPERSION GRADIENT
-------------------

   1   C   :    0.000061822   -0.000099001   -0.000000001
   2   C   :    0.000028392   -0.000050788   -0.000000006
   3   C   :    0.000028392    0.000050788   -0.000000006
   4   C   :    0.000061822    0.000099001   -0.000000000
   5   C   :    0.000092056    0.000037279    0.000000003
   6   C   :    0.000092056   -0.000037279    0.000000002
   7   Cl  :    0.000160736   -0.000110008    0.000000005
   8   Cl  :    0.000160737    0.000110007    0.000000009
   9   O   :    0.000000000    0.000089424   -0.000000008
  10   C   :   -0.000028392    0.000050788   -0.000000007
  11   C   :   -0.000061822    0.000099001   -0.000000002
  12   C   :   -0.000092056    0.000037279    0.000000002
  13   C   :   -0.000092056   -0.000037279    0.000000003
  14   C   :   -0.000061822   -0.000099001    0.000000001
  15   C   :   -0.000028392   -0.000050788   -0.000000005
  16   O   :   -0.000000000   -0.000089424   -0.000000006
  17   Cl  :   -0.000160737   -0.000110008    0.000000008
  18   Cl  :   -0.000160737    0.000110007    0.000000006
  19   H   :    0.000016179   -0.000058377   -0.000000000
  20   H   :    0.000016178    0.000058377    0.000000000
  21   H   :   -0.000016179    0.000058377   -0.000000001
  22   H   :   -0.000016178   -0.000058377    0.000000001

Difference to translation invariance:
           :    0.0000000000   -0.0000000000   -0.0000000000

Difference to rotation invariance:
           :   -0.0000000000   -0.0000000000    0.0000000000

Norm of the Dispersion gradient    ...    0.0005384365
RMS gradient                       ...    0.0000662769
MAX gradient                       ...    0.0001607370
gCP correction                   ... done

------------------
CARTESIAN GRADIENT
------------------

   1   C   :    0.003836548   -0.000755301   -0.000000620
   2   C   :   -0.003856107   -0.005290755   -0.000000455
   3   C   :   -0.003850337    0.005287511    0.000000013
   4   C   :    0.003835301    0.000757736   -0.000000165
   5   C   :    0.004222638    0.001323629    0.000000595
   6   C   :    0.004220253   -0.001322464    0.000000527
   7   Cl  :   -0.007317887    0.007090657   -0.000000333
   8   Cl  :   -0.007319271   -0.007092484   -0.000000124
   9   O   :   -0.000004486   -0.004380603    0.000000226
  10   C   :    0.003857437    0.005290683   -0.000000545
  11   C   :   -0.003837751    0.000759045   -0.000000053
  12   C   :   -0.004221868    0.001321742    0.000000550
  13   C   :   -0.004218479   -0.001320070    0.000000142
  14   C   :   -0.003837548   -0.000757983    0.000000258
  15   C   :    0.003855757   -0.005289612   -0.000000278
  16   O   :   -0.000001860    0.004382017    0.000000970
  17   Cl  :    0.007318061    0.007090414   -0.000000434
  18   Cl  :    0.007318906   -0.007091495    0.000000021
  19   H   :   -0.000123275    0.004322071    0.000000028
  20   H   :   -0.000123990   -0.004322750   -0.000000058
  21   H   :    0.000123915   -0.004324414   -0.000000216
  22   H   :    0.000124044    0.004322424   -0.000000049

Difference to translation invariance:
           :   -0.0000000001    0.0000000000   -0.0000000000

Difference to rotation invariance:
           :   -0.0000000273   -0.0000000009   -0.0000000262

Norm of the Cartesian gradient     ...    0.0289721266
RMS gradient                       ...    0.0035662223
MAX gradient                       ...    0.0073192713

-------
TIMINGS
-------

Total SCF gradient time     ....       13.325 sec

Densities                   ....       0.002 sec  (  0.0%)
One electron gradient       ....       0.547 sec  (  4.1%)
RI-J Coulomb gradient       ....       4.203 sec  ( 31.5%)
XC gradient                 ....       8.557 sec  ( 64.2%)

Maximum memory used throughout the entire SCFGRAD-calculation: 58.6 MB

------------------------------------------------------------------------------
                              ORCA PROPERTY CALCULATIONS
------------------------------------------------------------------------------

GBWName                                 ... xtb_opt.gbw
Number of atoms                         ...     22
Number of basis functions               ...    404
Max core memory                         ...   1024 MB

Electric properties:
Dipole moment                           ... YES
Quadrupole moment                       ...  NO
Static polarizability (Dipole/Dipole)   ...  NO
Static polarizability (Dipole/Quad.)    ...  NO
Static polarizability (Quad./Quad.)     ...  NO
Static polarizability (Velocity)        ...  NO

Atomic electric properties:
Dipole moment                           ...  NO
Quadrupole moment                       ...  NO
Static polarizability                   ...  NO

Choice of electric origin               ... Center of mass
Position of electric origin             ...    -0.000000     0.000000     0.000000

General magnetic properties:
Magnetizability                         ...  NO

EPR properties:
g-Tensor (aka g-matrix)                 ...  NO
Zero-Field splitting spin-orbit         ...  NO
Zero-field splitting spin-spin          ...  NO
Hyperfine couplings                     ...  NO (   0 nuclei)
Quadrupole couplings                    ...  NO (   0 nuclei)
Contact density                         ...  NO (   0 nuclei)

NMR properties:
Chemical shifts                         ...  NO (   0 nuclei)
Spin-rotation constants                 ...  NO (   0 nuclei)
Spin-spin couplings                     ...  NO (   0 nuclei,    0 pairs)

Choice of magnetic origin               ... GIAO
Position of magnetic origin             ...     0.000000     0.000000     0.000000

Properties with geometric perturbations:
SCF Hessian                             ...  NO
IR spectrum                             ...  NO
VCD spectrum                            ...  NO
X-ray spectroscopy properties:
SCF XES/XAS/RIXS spectra                ...  NO


-------------
DIPOLE MOMENT
-------------

Method             : SCF
Type of density    : Electron Density
Multiplicity       :   1
Irrep              :   0
Energy             : -2450.7068653612286653 Eh
Relativity type    : 
Basis              : AO
                                X                 Y                 Z
Electronic contribution:      0.000039213      -0.000028252       0.000525559
Nuclear contribution   :     -0.000001249       0.000036854      -0.000553517
                        -----------------------------------------
Total Dipole Moment    :      0.000037964       0.000008602      -0.000027958
                        -----------------------------------------
Magnitude (a.u.)       :      0.000047926
Magnitude (Debye)      :      0.000121818



--------------------
Rotational spectrum 
--------------------
 
Rotational constants in cm-1:             0.029125             0.003686             0.003272 
Rotational constants in MHz :           873.150094           110.497431            98.084771 

Dipole components along the rotational axes: 
x,y,z [a.u.] :     0.000038     0.000009    -0.000028 
x,y,z [Debye]:     0.000096     0.000022    -0.000071 

 

Dipole moment calculation done in   0.0 sec 

Maximum memory used throughout the entire PROP-calculation: 35.0 MB

--------------------------------
SUGGESTED CITATIONS FOR THIS RUN
--------------------------------

Below you find a list of papers that are relevant to this ORCA run
We neither can nor want to force you to cite these papers, but we appreciate if you do
You receive ORCA, which is the product of decades of hard work by many enthusiastic individuals, for free
The only thing we kindly ask in return is that you cite our papers,
We deeply appreciate it, if you show your appreciation for ORCA by not just citing the generic ORCA reference.

Please note that relegating all ORCA citations to the supporting information does *not* help us.
SI sections are not indexed - citations you put there will not count into any citation statistics
But we need these citations in order to attract the funding resources that allow us to do what we are doing

Therefore, if you are a happy ORCA user, please consider citing a few of the papers listed below in the main body of your paper

In addition to the list printed below, the program has created the file xtb_opt.bibtex that contains the list in bibtex format
You can import this file easily into all common literature databanks and citation aid programs


List of essential papers. We consider these as the minimum necessary citations

  1. Neese,F.
     Software update: the ORCA program system, version 5.0
     WIRES Comput. Molec. Sci., 2022 12(1)e1606
     doi.org/10.1002/wcms.1606
  2. Grimme,S.; Hansen,A.; Ehlert,S.; Mewes,J.
     r2SCAN-3c: A 'Swiss army knife' composite electronic-structure method
     J. Chem. Phys., 2021 154 064103
     doi.org/10.1063/5.0040021

List of papers to cite with high priority. The work reported in these papers was absolutely
necessary for this run to complete.
Our perspective: the developers of density functionals and basis sets usually get cited in chemistry papers
Good! But without the algorithms to do something with them, the functionals or basis sets would not do anything.
Hence, in our opinion, the algorithm design and method developments papers are equally worthy of getting cited

  1. Neese,F.
     An improvement of the resolution of the identity approximation for the formation of the Coulomb matrix
     J. Comp. Chem., 2003 24(14)1740-1747
     doi.org/10.1002/jcc.10318
  2. Neese,F.
     The SHARK Integral Generation and Digestion System
     J. Comp. Chem., 2022  1-16
     doi.org/10.1002/jcc.26942
  3. Lehtola,S.; Steigemann,C.; Oliveira,M.; Marques,M.
     Recent developments in Libxc - A comprehensive library of functionals for density functional theory
     Software X, 2018 7 
     doi.org/10.1016/j.softx.2017.11.002
  4. Caldeweyher,E.; Bannwarth,C.; Grimme,S.
     Extension of the D3 dispersion coefficient model
     J. Chem. Phys., 2017 147 034112
     doi.org/10.1063/1.4993215
  5. Caldeweyher,E.; Ehlert,S.; Hansen,A.; Neugebauer,H.; Spicher,S.; Bannwarth,C.; Grimme,S.
     A generally applicable atomic-charge dependent London dispersion correction
     J. Chem. Phys., 2019 150 154122
     doi.org/10.1063/1.5090222
  6. Caldeweyher,E.; Mewes,J.; Ehlert,S.; Grimme,S.
     Extension and evaluation of the D4 London-dispersion model for periodic systems
     Phys. Chem. Chem. Phys., 2020 22(16)8499-8512
     doi.org/10.1039/D0CP00502A
  7. Wittmann,L.; Gordiy,I.; Friede,M.; Helmich-Paris,B.; Grimme,S.; Hansen,A.; Bursch,M.
     Extension of the D3 and D4 London Dispersion Corrections to the full Actinides Series
     Phys. Chem. Chem. Phys., 2024 26(32)21379-21394
     doi.org/https://doi.org/10.1039/D4CP01514B 

List of suggested additional citations. These are papers that are important in the 'surrounding' of 
of this run, or papers that preceded the highly important papers. If you like your results we are grateful for a citation.

  1. Neese,F.
     The ORCA program system
     WIRES Comput. Molec. Sci., 2012 2(1)73-78
     doi.org/10.1002/wcms.81
  2. Neese,F.
     Software update: the ORCA program system, version 4.0
     WIRES Comput. Molec. Sci., 2018 8(1)1-6
     doi.org/10.1002/wcms.1327
  3. Neese,F.; Wennmohs,F.; Becker,U.; Riplinger,C.
     The ORCA quantum chemistry program package
     J. Chem. Phys., 2020 152 Art. No. L224108
     doi.org/10.1063/5.0004608

List of optional additional citations

  1. Neese,F.
     Approximate second-order SCF convergence for spin unrestricted wavefunctions
     Chem. Phys. Lett., 2000 325(1-3)93-98
     doi.org/10.1016/s0009-2614(00)00662-x

Timings for individual modules:

Sum of individual times          ...       27.323 sec (=   0.455 min)
Startup calculation              ...        1.108 sec (=   0.018 min)   4.1 %
SCF iterations                   ...       12.778 sec (=   0.213 min)  46.8 %
Property calculations            ...        0.055 sec (=   0.001 min)   0.2 %
SCF Gradient evaluation          ...       13.381 sec (=   0.223 min)  49.0 %
                             ****ORCA TERMINATED NORMALLY****
TOTAL RUN TIME: 0 days 0 hours 0 minutes 27 seconds 394 msec
  ------------------------------------------------------------------------
          * successful ORCA run, taking over control again...

         :::::::::::::::::::::::::::::::::::::::::::::::::::::
         ::                  ORCA SUMMARY                   ::
         :::::::::::::::::::::::::::::::::::::::::::::::::::::
         :: total energy           -2450.707759675600 Eh    ::
         :: gradient norm              0.028972126631 Eh/a0 ::
         :: HOMO-LUMO gap              0.000000000000 eV    ::
         :::::::::::::::::::::::::::::::::::::::::::::::::::::

      ----------------------------------------------------------- 
     |                       L-ANC optimizer                     |
      ----------------------------------------------------------- 
          low memory version by Sebastian Ehlert

          ...................................................
          :                      SETUP                      :
          :.................................................:
          :   energy convergence        0.5000000E-05 Eh    :
          :   grad. convergence         0.1000000E-02 Eh/a0 :
          :   optimization log               true           :
          :   writing optlog all                1     steps :
          :   Hessian reset                    20     steps :
          :   maximium step len.        1.0000000     a0    :
          :   LBFGS images                     20           :
          ...................................................
 * calculating model hessian...
Using Lindh-Hessian (1995)
 Shifting diagonal of input Hessian by    1.0000000000000000E-002
 Lowest  eigenvalues of input Hessian
    0.000000    0.000000    0.000000    0.000000    0.000000    0.000000
    0.012138    0.013309    0.018482    0.022069    0.023319    0.025440
    0.028852    0.032228    0.039315    0.046612    0.050780    0.053367
 Highest eigenvalues
    1.890595    1.898636    2.055071    2.096707    2.134088    2.213812


........................................................................
.............................. CYCLE    1 ..............................
........................................................................
                         * ORCA takes the control...
  ------------------------------------------------------------------------

                                 *****************
                                 * O   R   C   A *
                                 *****************

                                            #,                                       
                                            ###                                      
                                            ####                                     
                                            #####                                    
                                            ######                                   
                                           ########,                                 
                                     ,,################,,,,,                         
                               ,,#################################,,                 
                          ,,##########################################,,             
                       ,#########################################, ''#####,          
                    ,#############################################,,   '####,        
                  ,##################################################,,,,####,       
                ,###########''''           ''''###############################       
              ,#####''   ,,,,##########,,,,          '''####'''          '####       
            ,##' ,,,,###########################,,,                        '##       
           ' ,,###''''                  '''############,,,                           
         ,,##''                                '''############,,,,        ,,,,,,###''
      ,#''                                            '''#######################'''  
     '                                                          ''''####''''         
             ,#######,   #######,   ,#######,      ##                                
            ,#'     '#,  ##    ##  ,#'     '#,    #''#        ,####,   ,####,        
            ##       ##  ##   ,#'  ##            #'  '#       #'       #'  '#        
            ##       ##  #######   ##           ,######,      #####,   #    #        
            '#,     ,#'  ##    ##  '#,     ,#' ,#      #,     #,   #   #,  ,#        
             '#######'   ##     ##  '#######'  #'      '#     '####' # '####'        



                #########################################################
                #                        -***-                          #
                #          Department of theory and spectroscopy        #
                #                                                       #
                #                      Frank Neese                      #
                #                                                       #
                #     Directorship, Architecture, Infrastructure        #
                #                    SHARK, DRIVERS                     #
                #        Core code/Algorithms in most modules           #
                #                                                       #
                #        Max Planck Institute fuer Kohlenforschung      #
                #                Kaiser Wilhelm Platz 1                 #
                #                 D-45470 Muelheim/Ruhr                 #
                #                      Germany                          #
                #                                                       #
                #                  All rights reserved                  #
                #                        -***-                          #
                #########################################################


                         Program Version 6.0.1  -  RELEASE   -


 With contributions from (in alphabetic order):
[Max-Planck-Institut fuer Kohlenforschung]                               
  Daniel Aravena         : Magnetic Suceptibility                        
  Michael Atanasov       : Ab Initio Ligand Field Theory (pilot matlab implementation)
  Alexander A. Auer      : GIAO ZORA, VPT2 properties, NMR spectrum      
  Ute Becker             : All parallelization in ORCA, NUMFREQ, NUMCALC 
  Giovanni Bistoni       : ED, misc. LED, open-shell LED, HFLD           
  Martin Brehm           : Molecular dynamics                            
  Dmytro Bykov           : pre 5.0 version of the SCF Hessian            
  Marcos Casanova-Páez   : Triplet and SCS-CIS(D). UHF-(DLPNO)-IP/EA/STEOM-CCSD. UHF-CVS-IP/STEOM-CCSD   
  Vijay G. Chilkuri      : MRCI spin determinant printing, contributions to CSF-ICE 
  Pauline Colinet        : FMM embedding                                 
  Dipayan Datta          : RHF DLPNO-CCSD density                        
  Achintya Kumar Dutta   : EOM-CC, STEOM-CC                              
  Nicolas Foglia         : Exact transition moments, OPA infrastructure, MCD improvements    
  Dmitry Ganyushin       : Spin-Orbit,Spin-Spin,Magnetic field MRCI      
  Miquel Garcia-Rates    : C-PCM and meta-GGA Hessian, CCSD/C-PCM, Gaussian charge scheme 
  Tiago L. C. Gouveia    : GS-ROHF, GS-ROCIS                             
  Yang Guo               : DLPNO-NEVPT2, F12-NEVPT2, CIM, IAO-localization        
  Andreas Hansen         : Spin unrestricted coupled pair/coupled cluster methods 
  Ingolf Harden          : AUTO-CI MPn and infrastructure                
  Benjamin Helmich-Paris : MC-RPA, TRAH-(SCF,CASSCF), AVAS, COSX integrals, SCF dyn. polar. 
  Lee Huntington         : MR-EOM, pCC                                   
  Robert Izsak           : Overlap fitted RIJCOSX, COSX-SCS-MP3, EOM     
  Riya Kayal             : Wick's Theorem for AUTO-CI, AUTO-CI UHF-CCSDT 
  Emily Kempfer          : AUTO-CI, RHF CISDT and CCSDT                  
  Christian Kollmar      : KDIIS, OOCD, Brueckner-CCSD(T), CCSD density, CASPT2, CASPT2-K, improved NEVPT2 
  Axel Koslowski         : Symmetry handling                             
  Simone Kossmann        : meta-GGA functionals, TD-DFT gradient, OOMP2, (MP2 Hessian; deprecated post 5.0) 
  Lucas Lang             : DCDCAS                                        
  Marvin Lechner         : AUTO-CI (C++ implementation), FIC-MRCC        
  Spencer Leger          : CASSCF response                               
  Dagmar Lenk            : GEPOL surface, SMD, ORCA-2-JSON               
  Dimitrios Liakos       : Extrapolation schemes; Compound Job, initial MDCI parallelization 
  Dimitrios Manganas     : Further ROCIS development; embedding schemes. LFT, Crystal Embedding 
  Dimitrios Pantazis     : SARC Basis sets                               
  Anastasios Papadopoulos: AUTO-CI, single reference methods and gradients 
  Taras Petrenko         : pre 6.0 DFT Hessian and TD-DFT gradient, (ASA, deprecated), ECA, 1-Electron XAS/XES, NRVS 
  Peter Pinski           : DLPNO-MP2, DLPNO-MP2 Gradient                 
  Christoph Reimann      : Effective Core Potentials                     
  Marius Retegan         : Local ZFS, SOC                                
  Christoph Riplinger    : Optimizer, TS searches, QM/MM, DLPNO-CCSD(T), (RO)-DLPNO pert. Triples 
  Michael Roemelt        : Original ROCIS implementation                 
  Masaaki Saitow         : Open-shell DLPNO-CCSD energy and density      
  Barbara Sandhoefer     : DKH picture change effects                    
  Kantharuban Sivalingam : CASSCF convergence/infrastructure, NEVPT2 and variants, FIC-MRCI 
  Bernardo de Souza      : ESD, SOC TD-DFT                               
  Georgi L. Stoychev     : AutoAux, RI-MP2 NMR, DLPNO-MP2 response, X2C  
  Van Anh Tran           : RI-MP2 g-tensors                              
  Willem Van den Heuvel  : Paramagnetic NMR                              
  Zikuan Wang            : NOTCH, Electric field optimization            
  Frank Wennmohs         : Technical directorship and infrastructure     
  Hang Xu                : AUTO-CI-Response properties                   
                                                                         
[FACCTs GmbH]                                                            
  Markus Bursch, Miquel Garcia-Rates, Christoph Riplinger, Bernardo de Souza, Georgi L. Stoychev 
                                                                 
  APM, Basis sets (HGBS, AHGBS, def-TZVP (Ac-Lr), def2-XVPD (La-Lu)), CI-OPT, improved COSX, DLPNO-Multilevel,           
  DOCKER, DRACO, updates on ESD, GOAT, IRC, LR-CPCM, MBIS, meta-GGA TD-DFT gradient, ML-optimized integration grids, 
  MM, NACMEs, nearIR, NEB, NEB-TS, NL-DFT gradient (VV10), 2- and 3-layer-ONIOM, interface openCOSMO-RS, QMMM,   
  Crystal-QMMM, SF, symmetry and pop. for TD-DFT, r2SCAN hybrids, SOLVATOR                                   
                                                                         
[Other institutions]                                                     
  V. Asgeirsson          : NEB                                           
  Christoph Bannwarth    : sTDA-DFT, sTD-DFT, PBEh-3c, B97-3c, D3        
  Sebastian Ehlert       : rSCAN, r2SCAN, r2SCAN-3c, D4, dhf basis sets  
  Marvin Friede          : D4 for Fr, Ra, Ac-Lr                          
  Lars Goerigk           : TD-DFT with DH, B97 family of functionals     
  Stefan Grimme          : VdW corrections, initial TS optimization, DFT functionals, gCP, sTDA/sTD-DF 
  Waldemar Hujo          : DFT-NL                                        
  H. Jonsson             : NEB                                           
  Holger Kruse           : gCP                                           
  Marcel Mueller         : wB97X-3c, vDZP basis set                      
  Hagen Neugebauer       : wr2SCAN                                       
  Tobias Risthaus        : range-separated hybrid DFT                    
  Lukas Wittmann         : regularized MP2, r2SCAN double-hybrids, wr2SCAN        
                                                                         
We gratefully acknowledge several colleagues who have allowed us to      
interface, adapt or use parts of their codes:                            
  Ed Valeev, F. Pavosevic, A. Kumar             : LibInt (2-el integral package), F12 methods 
  Garnet Chan, S. Sharma, J. Yang, R. Olivares  : DMRG                   
  Ulf Ekstrom                                   : XCFun DFT Library      
  Mihaly Kallay                                 : mrcc  (arbitrary order and MRCC methods)
  Frank Weinhold                                : gennbo (NPA and NBO analysis)           
  Simon Mueller                                 : openCOSMO-RS                            
  Christopher J. Cramer and Donald G. Truhlar   : smd solvation model                     
  S Lehtola, MJT Oliveira, MAL Marques          : LibXC Library                           
  Liviu Ungur et al                             : ANISO software                          


 Your calculation uses the libint2 library for the computation of 2-el integrals
 For citations please refer to: http://libint.valeyev.net

 Your ORCA version has been built with support for libXC version: 6.2.2
 For citations please refer to: https://libxc.gitlab.io

 This ORCA versions uses:
   CBLAS   interface :  Fast vector & matrix operations
   LAPACKE interface :  Fast linear algebra routines
   SCALAPACK package :  Parallel linear algebra routines
   Shared memory     :  Shared parallel matrices
   BLAS/LAPACK       :  OpenBLAS 0.3.27  USE64BITINT DYNAMIC_ARCH NO_AFFINITY Zen SINGLE_THREADED
        Core in use  :  Zen
   Copyright (c) 2011-2014, The OpenBLAS Project




***************************************
The coordinates will be read from file: xtb_opt.xyz
***************************************


Your calculation utilizes the geometrical counterpoise correction gCP
Please cite in your paper:
H.Kruse, S. Grimme J.Chem.Phys., 136, (2012), 154101 
   

Your calculation utilizes the atom-pairwise dispersion correction
based on EEQ partial charges (D4)


================================================================================

----- Orbital basis set information -----
Your calculation utilizes the basis: def2-mTZVPP
   Stefan Grimme, Andreas Hansen, Sebastian Ehlert, and Jan-Michael Mewes 
   J. Chem. Phys. 154, 064103 (2021). DOI: 10.1063/5.0040021

----- AuxJ basis set information -----
Your calculation utilizes the auxiliary basis: def2/J
   F. Weigend, Phys. Chem. Chem. Phys. 8, 1057 (2006).

================================================================================
                                        WARNINGS
                       Please study these warnings very carefully!
================================================================================

WARNING: Old DensityContainer found on disk!
         Will remove this file - 
         If you want to keep old densities, please start your calculation with a different basename. 



WARNING: SCAN, rSCAN, or r2SCAN functional requested.
  ===> : libXC variant has now been activated.



================================================================================
                                       INPUT FILE
================================================================================
NAME = xtb_opt.inp
|  1> ! r2scan-3c def2/J RI DEFGRID2 scfconv7 ENGRAD tightSCF miniprint
|  2> * xyzfile 0 1 xtb_opt.xyz
|  3> 
|  4>                          ****END OF INPUT****
================================================================================

                     *******************************
                     * Energy+Gradient Calculation *
                     *******************************

---------------------------------
CARTESIAN COORDINATES (ANGSTROEM)
---------------------------------
  C      2.362056   -1.389754   -0.000046
  C      1.164493   -0.697992   -0.000084
  C      1.164496    0.697995   -0.000088
  C      2.362057    1.389759   -0.000036
  C      3.570765    0.698687    0.000011
  C      3.570763   -0.698681   -0.000001
  Cl     5.044196   -1.600354    0.000046
  Cl     5.044200    1.600352    0.000089
  O     -0.000001    1.428682   -0.000144
  C     -1.164494    0.697999   -0.000093
  C     -2.362059    1.389759   -0.000058
  C     -3.570765    0.698685   -0.000002
  C     -3.570762   -0.698682    0.000015
  C     -2.362056   -1.389754   -0.000022
  C     -1.164495   -0.697989   -0.000077
  O     -0.000001   -1.428674   -0.000114
  Cl    -5.044196   -1.600355    0.000083
  Cl    -5.044201    1.600350    0.000051
  H      2.346078   -2.471810   -0.000050
  H      2.346072    2.471815   -0.000033
  H     -2.346077    2.471815   -0.000073
  H     -2.346070   -2.471810   -0.000007

----------------------------
CARTESIAN COORDINATES (A.U.)
----------------------------
  NO LB      ZA    FRAG     MASS         X           Y           Z
   0 C     6.0000    0    12.011    4.463639   -2.626254   -0.000088
   1 C     6.0000    0    12.011    2.200573   -1.319015   -0.000159
   2 C     6.0000    0    12.011    2.200579    1.319020   -0.000166
   3 C     6.0000    0    12.011    4.463641    2.626265   -0.000069
   4 C     6.0000    0    12.011    6.747768    1.320328    0.000021
   5 C     6.0000    0    12.011    6.747764   -1.320316   -0.000001
   6 Cl   17.0000    0    35.453    9.532149   -3.024230    0.000086
   7 Cl   17.0000    0    35.453    9.532156    3.024227    0.000167
   8 O     8.0000    0    15.999   -0.000002    2.699817   -0.000272
   9 C     6.0000    0    12.011   -2.200575    1.319026   -0.000176
  10 C     6.0000    0    12.011   -4.463644    2.626265   -0.000109
  11 C     6.0000    0    12.011   -6.747768    1.320324   -0.000004
  12 C     6.0000    0    12.011   -6.747763   -1.320318    0.000028
  13 C     6.0000    0    12.011   -4.463639   -2.626254   -0.000041
  14 C     6.0000    0    12.011   -2.200576   -1.319009   -0.000146
  15 O     8.0000    0    15.999   -0.000002   -2.699802   -0.000216
  16 Cl   17.0000    0    35.453   -9.532150   -3.024233    0.000157
  17 Cl   17.0000    0    35.453   -9.532158    3.024224    0.000096
  18 H     1.0000    0     1.008    4.433444   -4.671044   -0.000095
  19 H     1.0000    0     1.008    4.433433    4.671054   -0.000063
  20 H     1.0000    0     1.008   -4.433443    4.671053   -0.000138
  21 H     1.0000    0     1.008   -4.433430   -4.671044   -0.000013

------------------------------------------------------------------------------
                   ___                                                        
                  /   \      - P O W E R E D   B Y -                         
                 /     \                                                     
                 |  |  |   _    _      __       _____    __    __             
                 |  |  |  | |  | |    /  \     |  _  \  |  |  /  |          
                  \  \/   | |  | |   /    \    | | | |  |  | /  /          
                 / \  \   | |__| |  /  /\  \   | |_| |  |  |/  /          
                |  |  |   |  __  | /  /__\  \  |    /   |      \           
                |  |  |   | |  | | |   __   |  |    \   |  |\   \          
                \     /   | |  | | |  |  |  |  | |\  \  |  | \   \       
                 \___/    |_|  |_| |__|  |__|  |_| \__\ |__|  \__/        
                                                                              
                      - O R C A' S   B I G   F R I E N D -                    
                                      &                                       
                       - I N T E G R A L  F E E D E R -                       
                                                                              
 v1 FN, 2020, v2 2021, v3 2022-2024                                           
------------------------------------------------------------------------------


----------------------
SHARK INTEGRAL PACKAGE
----------------------

Number of atoms                             ...     22
Number of basis functions                   ...    404
Number of shells                            ...    184
Maximum angular momentum                    ...      2
Integral batch strategy                     ... SHARK/LIBINT Hybrid
RI-J (if used) integral strategy            ... SPLIT-RIJ (Revised 2003 algorithm where possible)
Printlevel                                  ...      1
Contraction scheme used                     ... SEGMENTED contraction
Prescreening option                         ... SCHWARTZ
   Thresh                                   ... 3.000e-11
   Tcut                                     ... 1.000e-12
   Tpresel                                  ... 1.000e-12 
Coulomb Range Separation                    ... NOT USED
Exchange Range Separation                   ... NOT USED
Multipole approximations                    ... NOT USED
Finite Nucleus Model                        ... NOT USED
CABS basis                                  ... NOT available
Auxiliary Coulomb fitting basis             ... AVAILABLE
   # of basis functions in Aux-J            ...    934
   # of shells in Aux-J                     ...    298
   Maximum angular momentum in Aux-J        ...      4
Auxiliary J/K fitting basis                 ... NOT available
Auxiliary Correlation fitting basis         ... NOT available
Auxiliary 'external' fitting basis          ... NOT available

Checking pre-screening integrals            ... done (  0.0 sec) Dimension = 184
Check shell pair data                       ... done (  0.0 sec)
Shell pair information
Shell pair cut-off parameter TPreSel        ...   1.0e-12
Total number of shell pairs                 ...     17020
Shell pairs after pre-screening             ...     12446
Total number of primitive shell pairs       ...     70605
Primitive shell pairs kept                  ...     31908
          la=0 lb=0:   3273 shell pairs
          la=1 lb=0:   4592 shell pairs
          la=1 lb=1:   1597 shell pairs
          la=2 lb=0:   1630 shell pairs
          la=2 lb=1:   1140 shell pairs
          la=2 lb=2:    214 shell pairs

Calculating one electron integrals          ... done (  0.0 sec)
Calculating RI/J V-Matrix + Cholesky decomp.... done (  0.0 sec)
Calculating Nuclear repulsion               ... done (  0.0 sec) ENN=   1665.416032772411 Eh

Diagonalization of the overlap matrix:
Smallest eigenvalue                        ... 1.326e-05
Time for diagonalization                   ...    0.012 sec
Threshold for overlap eigenvalues          ... 1.000e-07
Number of eigenvalues below threshold      ... 0
Time for construction of square roots      ...    0.005 sec
Total time needed                          ...    0.018 sec

-------------------
DFT GRID GENERATION
-------------------

General Integration Accuracy     IntAcc      ... 4.388
Radial Grid Type                 RadialGrid  ... OptM3 with GC (2021)
Angular Grid (max. ang.)         AngularGrid ... 4 (Lebedev-302)
Angular grid pruning method      GridPruning ... 4 (adaptive)
Weight generation scheme         WeightScheme... mBecke (2022)
Basis function cutoff            BFCut       ... 1.0000e-11
Integration weight cutoff        WCut        ... 1.0000e-14
Partially contracted basis set               ... off
Rotationally invariant grid construction     ... off
Angular grids for H and He will be reduced by one unit
Diffuse basis detected: some atoms will have their outermost
                        angular grid increased by 1.

Total number of grid points                  ...   126294
Total number of batches                      ...     1986
Average number of points per batch           ...       63
Average number of grid points per atom       ...     5741
Initializing property integral containers    ... done (  0.0 sec)

SHARK setup successfully completed in   1.1 seconds

Maximum memory used throughout the entire STARTUP-calculation: 67.4 MB
Occupation numbers will be reassigned to an Aufbau configuration
             **** ENERGY FILE WAS UPDATED (xtb_opt.en.tmp) ****
Finished Guess after   0.1 sec
Maximum memory used throughout the entire GUESS-calculation: 37.1 MB
----------------------------------------D-I-I-S--------------------------------------------
Iteration    Energy (Eh)           Delta-E    RMSDP     MaxDP     DIISErr   Damp  Time(sec)
-------------------------------------------------------------------------------------------
               ***  Starting incremental Fock matrix formation  ***
    1    -2450.7073580645237598     0.00e+00  6.27e-05  1.41e-03  4.18e-03  0.700   3.6
                              *** Initializing SOSCF ***
---------------------------------------S-O-S-C-F--------------------------------------
Iteration    Energy (Eh)           Delta-E    RMSDP     MaxDP     MaxGrad    Time(sec)
--------------------------------------------------------------------------------------
    2    -2450.7075011245105998    -1.43e-04  1.83e-04  3.93e-03  2.68e-03     2.8
               *** Restarting incremental Fock matrix formation ***
    3    -2450.7078224705046523    -3.21e-04  9.96e-05  3.16e-03  6.56e-04     3.6
    4    -2450.7077444802425816     7.80e-05  5.97e-05  2.16e-03  1.72e-03     2.8
    5    -2450.7078415239011520    -9.70e-05  4.13e-05  1.06e-03  3.34e-04     2.7
    6    -2450.7078328054130907     8.72e-06  2.81e-05  6.85e-04  5.40e-04     2.7
    7    -2450.7078444292837958    -1.16e-05  4.18e-06  1.19e-04  2.40e-05     2.6
                  *** Gradient check signals convergence ***

               *****************************************************
               *                     SUCCESS                       *
               *           SCF CONVERGED AFTER   7 CYCLES          *
               *****************************************************

             **** ENERGY FILE WAS UPDATED (xtb_opt.en.tmp) ****

----------------
TOTAL SCF ENERGY
----------------

Total Energy       :      -2450.70784442928380 Eh          -66687.15076 eV

Components:
Nuclear Repulsion  :       1665.41603277241097 Eh           45318.27419 eV
Electronic Energy  :      -4116.12387720169500 Eh         -112005.42494 eV
One Electron Energy:      -6682.77096444274139 Eh         -181847.44289 eV
Two Electron Energy:       2566.64708724104594 Eh           69842.01794 eV

Virial components:
Potential Energy   :      -4894.70587913685449 Eh         -133191.71831 eV
Kinetic Energy     :       2443.99803470757115 Eh           66504.56755 eV
Virial Ratio       :          2.00274542353407

DFT components:
N(Alpha)           :       80.000016502273 electrons
N(Beta)            :       80.000016502273 electrons
N(Total)           :      160.000033004545 electrons
E(X)               :     -190.759510583237 Eh       
E(C)               :       -5.752536729515 Eh       
E(XC)              :     -196.512047312752 Eh       

---------------
SCF CONVERGENCE
---------------

  Last Energy change         ...    1.1624e-05  Tolerance :   1.0000e-07
  Last MAX-Density change    ...    1.1855e-04  Tolerance :   1.0000e-07
  Last RMS-Density change    ...    4.1832e-06  Tolerance :   5.0000e-09
  Last DIIS Error            ...    2.6800e-03  Tolerance :   1.0000e-07
  Last Orbital Gradient      ...    2.3984e-05  Tolerance :   1.0000e-04
  Last Orbital Rotation      ...    1.0118e-04  Tolerance :   1.0000e-04


----------------
ORBITAL ENERGIES
----------------

  NO   OCC          E(Eh)            E(eV) 
   0   2.0000    -101.237444     -2754.8109 
   1   2.0000    -101.237443     -2754.8109 
   2   2.0000    -101.237440     -2754.8108 
   3   2.0000    -101.237439     -2754.8108 
   4   2.0000     -19.041463      -518.1445 
   5   2.0000     -19.041456      -518.1444 
   6   2.0000     -10.138805      -275.8909 
   7   2.0000     -10.138795      -275.8906 
   8   2.0000     -10.138387      -275.8795 
   9   2.0000     -10.138379      -275.8793 
  10   2.0000     -10.128261      -275.6040 
  11   2.0000     -10.128261      -275.6040 
  12   2.0000     -10.127854      -275.5929 
  13   2.0000     -10.127854      -275.5929 
  14   2.0000     -10.076989      -274.2088 
  15   2.0000     -10.076983      -274.2087 
  16   2.0000     -10.076976      -274.2084 
  17   2.0000     -10.076974      -274.2084 
  18   2.0000      -9.393072      -255.5985 
  19   2.0000      -9.393072      -255.5985 
  20   2.0000      -9.393068      -255.5984 
  21   2.0000      -9.393067      -255.5983 
  22   2.0000      -7.139623      -194.2790 
  23   2.0000      -7.139622      -194.2790 
  24   2.0000      -7.139622      -194.2790 
  25   2.0000      -7.139622      -194.2790 
  26   2.0000      -7.129267      -193.9972 
  27   2.0000      -7.129266      -193.9972 
  28   2.0000      -7.129266      -193.9972 
  29   2.0000      -7.129266      -193.9972 
  30   2.0000      -7.128634      -193.9800 
  31   2.0000      -7.128633      -193.9800 
  32   2.0000      -7.128633      -193.9800 
  33   2.0000      -7.128633      -193.9800 
  34   2.0000      -1.110806       -30.2266 
  35   2.0000      -1.077289       -29.3145 
  36   2.0000      -0.905945       -24.6520 
  37   2.0000      -0.898856       -24.4591 
  38   2.0000      -0.845982       -23.0203 
  39   2.0000      -0.840623       -22.8745 
  40   2.0000      -0.839543       -22.8451 
  41   2.0000      -0.812639       -22.1130 
  42   2.0000      -0.770663       -20.9708 
  43   2.0000      -0.733576       -19.9616 
  44   2.0000      -0.732863       -19.9422 
  45   2.0000      -0.700413       -19.0592 
  46   2.0000      -0.649010       -17.6605 
  47   2.0000      -0.641470       -17.4553 
  48   2.0000      -0.614659       -16.7257 
  49   2.0000      -0.584820       -15.9138 
  50   2.0000      -0.557122       -15.1601 
  51   2.0000      -0.529785       -14.4162 
  52   2.0000      -0.499176       -13.5833 
  53   2.0000      -0.481780       -13.1099 
  54   2.0000      -0.479365       -13.0442 
  55   2.0000      -0.476851       -12.9758 
  56   2.0000      -0.458244       -12.4695 
  57   2.0000      -0.449837       -12.2407 
  58   2.0000      -0.440556       -11.9881 
  59   2.0000      -0.417633       -11.3644 
  60   2.0000      -0.416395       -11.3307 
  61   2.0000      -0.414056       -11.2670 
  62   2.0000      -0.411996       -11.2110 
  63   2.0000      -0.408709       -11.1215 
  64   2.0000      -0.395019       -10.7490 
  65   2.0000      -0.394027       -10.7220 
  66   2.0000      -0.386594       -10.5197 
  67   2.0000      -0.340484        -9.2650 
  68   2.0000      -0.337878        -9.1941 
  69   2.0000      -0.335312        -9.1243 
  70   2.0000      -0.334916        -9.1135 
  71   2.0000      -0.312496        -8.5034 
  72   2.0000      -0.311026        -8.4635 
  73   2.0000      -0.294339        -8.0094 
  74   2.0000      -0.293324        -7.9818 
  75   2.0000      -0.289898        -7.8885 
  76   2.0000      -0.268274        -7.3001 
  77   2.0000      -0.247431        -6.7329 
  78   2.0000      -0.244195        -6.6449 
  79   2.0000      -0.203862        -5.5474 
  80   0.0000      -0.073384        -1.9969 
  81   0.0000      -0.069271        -1.8850 
  82   0.0000      -0.067659        -1.8411 
  83   0.0000      -0.035600        -0.9687 
  84   0.0000      -0.033197        -0.9033 
  85   0.0000      -0.028770        -0.7829 
  86   0.0000       0.019324         0.5258 
  87   0.0000       0.025962         0.7064 
  88   0.0000       0.033761         0.9187 
  89   0.0000       0.078996         2.1496 
  90   0.0000       0.085273         2.3204 
*Only the first 10 virtual orbitals were printed.
[...]
  51   2.0000      -0.529757       -14.4154 
  52   2.0000      -0.498348       -13.5608 
  53   2.0000      -0.481955       -13.1147 
  54   2.0000      -0.479063       -13.0360 
  55   2.0000      -0.476586       -12.9686 
  56   2.0000      -0.457643       -12.4531 
  57   2.0000      -0.450603       -12.2615 
  58   2.0000      -0.441484       -12.0134 
  59   2.0000      -0.416895       -11.3443 
  60   2.0000      -0.416161       -11.3243 
  61   2.0000      -0.413858       -11.2616 
  62   2.0000      -0.411459       -11.1964 
  63   2.0000      -0.408314       -11.1108 
  64   2.0000      -0.394145       -10.7252 
  65   2.0000      -0.393043       -10.6952 
  66   2.0000      -0.387091       -10.5333 
  67   2.0000      -0.340373        -9.2620 
  68   2.0000      -0.336778        -9.1642 
  69   2.0000      -0.336489        -9.1563 
  70   2.0000      -0.333744        -9.0816 
  71   2.0000      -0.312748        -8.5103 
  72   2.0000      -0.311317        -8.4714 
  73   2.0000      -0.293901        -7.9975 
  74   2.0000      -0.292937        -7.9712 
  75   2.0000      -0.290389        -7.9019 
  76   2.0000      -0.268955        -7.3186 
  77   2.0000      -0.248594        -6.7646 
  78   2.0000      -0.245004        -6.6669 
  79   2.0000      -0.205086        -5.5807 
  80   0.0000      -0.073711        -2.0058 
  81   0.0000      -0.070283        -1.9125 
  82   0.0000      -0.068599        -1.8667 
  83   0.0000      -0.039490        -1.0746 
  84   0.0000      -0.033718        -0.9175 
  85   0.0000      -0.032932        -0.8961 
  86   0.0000       0.017315         0.4712 
  87   0.0000       0.022352         0.6082 
  88   0.0000       0.030193         0.8216 
  89   0.0000       0.078751         2.1429 
  90   0.0000       0.084825         2.3082 
*Only the first 10 virtual orbitals were printed.
Total SCF time: 0 days 0 hours 0 min 7 sec 
Finished LeanSCF after   7.4 sec

Maximum memory used throughout the entire LEANSCF-calculation: 49.9 MB


-------------------------------------------------------------------------------
                          DFT DISPERSION CORRECTION                            
                                                                               
                                DFTD4 V3.4.0                                   
-------------------------------------------------------------------------------
-------------------------   ----------------
Dispersion correction           -0.012411796
-------------------------   ----------------

------------------   -----------------
gCP correction             0.011359892
------------------   -----------------

-------------------------   --------------------
FINAL SINGLE POINT ENERGY     -2450.709044189557
-------------------------   --------------------

------------------------------------------------------------------------------
                         ORCA SCF GRADIENT CALCULATION
------------------------------------------------------------------------------

Nuc. rep. gradient        (SHARK) ... done (  0.0 sec)
HCore & Overlap gradient  (SHARK) ... done (  0.6 sec)
Split-RIJ-J gradient      (SHARK) ... done (  4.2 sec)
XC gradient                       ... done (  8.5 sec)
Dispersion correction             ... done (  0.0 sec)

-------------------
DISPERSION GRADIENT
-------------------

   1   C   :    0.000061548   -0.000099294   -0.000000000
   2   C   :    0.000027973   -0.000050427   -0.000000005
   3   C   :    0.000027973    0.000050427   -0.000000005
   4   C   :    0.000061548    0.000099294   -0.000000000
   5   C   :    0.000091850    0.000037338    0.000000002
   6   C   :    0.000091850   -0.000037338    0.000000002
   7   Cl  :    0.000159732   -0.000111731    0.000000005
   8   Cl  :    0.000159732    0.000111731    0.000000006
   9   O   :   -0.000000000    0.000088837   -0.000000007
  10   C   :   -0.000027973    0.000050427   -0.000000005
  11   C   :   -0.000061548    0.000099294   -0.000000001
  12   C   :   -0.000091850    0.000037338    0.000000002
  13   C   :   -0.000091850   -0.000037338    0.000000003
  14   C   :   -0.000061548   -0.000099294    0.000000001
  15   C   :   -0.000027973   -0.000050427   -0.000000004
  16   O   :    0.000000000   -0.000088837   -0.000000006
  17   Cl  :   -0.000159732   -0.000111731    0.000000007
  18   Cl  :   -0.000159732    0.000111731    0.000000005
  19   H   :    0.000016174   -0.000058048   -0.000000000
  20   H   :    0.000016174    0.000058048    0.000000000
  21   H   :   -0.000016174    0.000058048   -0.000000001
  22   H   :   -0.000016174   -0.000058048    0.000000001

Difference to translation invariance:
           :    0.0000000000   -0.0000000000   -0.0000000000

Difference to rotation invariance:
           :    0.0000000000   -0.0000000000   -0.0000000000

Norm of the Dispersion gradient    ...    0.0005380649
RMS gradient                       ...    0.0000662312
MAX gradient                       ...    0.0001597319
gCP correction                   ... done

------------------
CARTESIAN GRADIENT
------------------

   1   C   :    0.000043975   -0.000006896   -0.000000027
   2   C   :    0.000121314    0.000051649   -0.000000008
   3   C   :    0.000121342   -0.000051622    0.000000038
   4   C   :    0.000043934    0.000006895    0.000000034
   5   C   :   -0.000118074   -0.000117834   -0.000000003
   6   C   :   -0.000118123    0.000117845   -0.000000030
   7   Cl  :    0.000067487   -0.000015772    0.000000007
   8   Cl  :    0.000067444    0.000015757    0.000000095
   9   O   :    0.000000039    0.000214985   -0.000000162
  10   C   :   -0.000121348   -0.000051657    0.000000010
  11   C   :   -0.000043924    0.000006918   -0.000000024
  12   C   :    0.000118106   -0.000117799   -0.000000027
  13   C   :    0.000118115    0.000117794    0.000000008
  14   C   :   -0.000043945   -0.000006881    0.000000038
  15   C   :   -0.000121434    0.000051679    0.000000011
  16   O   :    0.000000055   -0.000215025   -0.000000064
  17   Cl  :   -0.000067470   -0.000015760    0.000000070
  18   Cl  :   -0.000067480    0.000015772    0.000000022
  19   H   :    0.000008137    0.000035283   -0.000000023
  20   H   :    0.000008137   -0.000035290    0.000000032
  21   H   :   -0.000008152   -0.000035314   -0.000000020
  22   H   :   -0.000008135    0.000035272    0.000000022

Difference to translation invariance:
           :   -0.0000000002   -0.0000000000   -0.0000000000

Difference to rotation invariance:
           :   -0.0000000366   -0.0000000147   -0.0000000141

Norm of the Cartesian gradient     ...    0.0005529214
RMS gradient                       ...    0.0000680599
MAX gradient                       ...    0.0002150251

-------
TIMINGS
-------

Total SCF gradient time     ....       13.321 sec

Densities                   ....       0.002 sec  (  0.0%)
One electron gradient       ....       0.555 sec  (  4.2%)
RI-J Coulomb gradient       ....       4.231 sec  ( 31.8%)
XC gradient                 ....       8.516 sec  ( 63.9%)

Maximum memory used throughout the entire SCFGRAD-calculation: 58.4 MB

------------------------------------------------------------------------------
                              ORCA PROPERTY CALCULATIONS
------------------------------------------------------------------------------

GBWName                                 ... xtb_opt.gbw
Number of atoms                         ...     22
Number of basis functions               ...    404
Max core memory                         ...   1024 MB

Electric properties:
Dipole moment                           ... YES
Quadrupole moment                       ...  NO
Static polarizability (Dipole/Dipole)   ...  NO
Static polarizability (Dipole/Quad.)    ...  NO
Static polarizability (Quad./Quad.)     ...  NO
Static polarizability (Velocity)        ...  NO

Atomic electric properties:
Dipole moment                           ...  NO
Quadrupole moment                       ...  NO
Static polarizability                   ...  NO

Choice of electric origin               ... Center of mass
Position of electric origin             ...    -0.000000     0.000004    -0.000013

General magnetic properties:
Magnetizability                         ...  NO

EPR properties:
g-Tensor (aka g-matrix)                 ...  NO
Zero-Field splitting spin-orbit         ...  NO
Zero-field splitting spin-spin          ...  NO
Hyperfine couplings                     ...  NO (   0 nuclei)
Quadrupole couplings                    ...  NO (   0 nuclei)
Contact density                         ...  NO (   0 nuclei)

NMR properties:
Chemical shifts                         ...  NO (   0 nuclei)
Spin-rotation constants                 ...  NO (   0 nuclei)
Spin-spin couplings                     ...  NO (   0 nuclei,    0 pairs)

Choice of magnetic origin               ... GIAO
Position of magnetic origin             ...     0.000000     0.000000     0.000000

Properties with geometric perturbations:
SCF Hessian                             ...  NO
IR spectrum                             ...  NO
VCD spectrum                            ...  NO
X-ray spectroscopy properties:
SCF XES/XAS/RIXS spectra                ...  NO


-------------
DIPOLE MOMENT
-------------

Method             : SCF
Type of density    : Electron Density
Multiplicity       :   1
Irrep              :   0
Energy             : -2450.7079922850998628 Eh
Relativity type    : 
Basis              : AO
                                X                 Y                 Z
Electronic contribution:     -0.000000490       0.000000902       0.000410274
Nuclear contribution   :     -0.000000118      -0.000000693      -0.000429587
                        -----------------------------------------
Total Dipole Moment    :     -0.000000608       0.000000209      -0.000019313
                        -----------------------------------------
Magnitude (a.u.)       :      0.000019323
Magnitude (Debye)      :      0.000049116



--------------------
Rotational spectrum 
--------------------
 
Rotational constants in cm-1:             0.028373             0.003672             0.003251 
Rotational constants in MHz :           850.600097           110.088701            97.473251 

Dipole components along the rotational axes: 
x,y,z [a.u.] :    -0.000001     0.000000    -0.000019 
x,y,z [Debye]:    -0.000002     0.000001    -0.000049 

 

Dipole moment calculation done in   0.0 sec 

Maximum memory used throughout the entire PROP-calculation: 34.9 MB

--------------------------------
SUGGESTED CITATIONS FOR THIS RUN
--------------------------------

Below you find a list of papers that are relevant to this ORCA run
We neither can nor want to force you to cite these papers, but we appreciate if you do
You receive ORCA, which is the product of decades of hard work by many enthusiastic individuals, for free
The only thing we kindly ask in return is that you cite our papers,
We deeply appreciate it, if you show your appreciation for ORCA by not just citing the generic ORCA reference.

Please note that relegating all ORCA citations to the supporting information does *not* help us.
SI sections are not indexed - citations you put there will not count into any citation statistics
But we need these citations in order to attract the funding resources that allow us to do what we are doing

Therefore, if you are a happy ORCA user, please consider citing a few of the papers listed below in the main body of your paper

In addition to the list printed below, the program has created the file xtb_opt.bibtex that contains the list in bibtex format
You can import this file easily into all common literature databanks and citation aid programs


List of essential papers. We consider these as the minimum necessary citations

  1. Neese,F.
     Software update: the ORCA program system, version 5.0
     WIRES Comput. Molec. Sci., 2022 12(1)e1606
     doi.org/10.1002/wcms.1606
  2. Grimme,S.; Hansen,A.; Ehlert,S.; Mewes,J.
     r2SCAN-3c: A 'Swiss army knife' composite electronic-structure method
     J. Chem. Phys., 2021 154 064103
     doi.org/10.1063/5.0040021

List of papers to cite with high priority. The work reported in these papers was absolutely
necessary for this run to complete.
Our perspective: the developers of density functionals and basis sets usually get cited in chemistry papers
Good! But without the algorithms to do something with them, the functionals or basis sets would not do anything.
Hence, in our opinion, the algorithm design and method developments papers are equally worthy of getting cited

  1. Neese,F.
     An improvement of the resolution of the identity approximation for the formation of the Coulomb matrix
     J. Comp. Chem., 2003 24(14)1740-1747
     doi.org/10.1002/jcc.10318
  2. Neese,F.
     The SHARK Integral Generation and Digestion System
     J. Comp. Chem., 2022  1-16
     doi.org/10.1002/jcc.26942
  3. Lehtola,S.; Steigemann,C.; Oliveira,M.; Marques,M.
     Recent developments in Libxc - A comprehensive library of functionals for density functional theory
     Software X, 2018 7 
     doi.org/10.1016/j.softx.2017.11.002
  4. Caldeweyher,E.; Bannwarth,C.; Grimme,S.
     Extension of the D3 dispersion coefficient model
     J. Chem. Phys., 2017 147 034112
     doi.org/10.1063/1.4993215
  5. Caldeweyher,E.; Ehlert,S.; Hansen,A.; Neugebauer,H.; Spicher,S.; Bannwarth,C.; Grimme,S.
     A generally applicable atomic-charge dependent London dispersion correction
     J. Chem. Phys., 2019 150 154122
     doi.org/10.1063/1.5090222
  6. Caldeweyher,E.; Mewes,J.; Ehlert,S.; Grimme,S.
     Extension and evaluation of the D4 London-dispersion model for periodic systems
     Phys. Chem. Chem. Phys., 2020 22(16)8499-8512
     doi.org/10.1039/D0CP00502A
  7. Wittmann,L.; Gordiy,I.; Friede,M.; Helmich-Paris,B.; Grimme,S.; Hansen,A.; Bursch,M.
     Extension of the D3 and D4 London Dispersion Corrections to the full Actinides Series
     Phys. Chem. Chem. Phys., 2024 26(32)21379-21394
     doi.org/https://doi.org/10.1039/D4CP01514B 

List of suggested additional citations. These are papers that are important in the 'surrounding' of 
of this run, or papers that preceded the highly important papers. If you like your results we are grateful for a citation.

  1. Neese,F.
     The ORCA program system
     WIRES Comput. Molec. Sci., 2012 2(1)73-78
     doi.org/10.1002/wcms.81
  2. Neese,F.
     Software update: the ORCA program system, version 4.0
     WIRES Comput. Molec. Sci., 2018 8(1)1-6
     doi.org/10.1002/wcms.1327
  3. Neese,F.; Wennmohs,F.; Becker,U.; Riplinger,C.
     The ORCA quantum chemistry program package
     J. Chem. Phys., 2020 152 Art. No. L224108
     doi.org/10.1063/5.0004608

List of optional additional citations

  1. Neese,F.
     Approximate second-order SCF convergence for spin unrestricted wavefunctions
     Chem. Phys. Lett., 2000 325(1-3)93-98
     doi.org/10.1016/s0009-2614(00)00662-x

Timings for individual modules:

Sum of individual times          ...       22.040 sec (=   0.367 min)
Startup calculation              ...        1.094 sec (=   0.018 min)   5.0 %
SCF iterations                   ...        7.511 sec (=   0.125 min)  34.1 %
Property calculations            ...        0.054 sec (=   0.001 min)   0.2 %
SCF Gradient evaluation          ...       13.380 sec (=   0.223 min)  60.7 %
                             ****ORCA TERMINATED NORMALLY****
TOTAL RUN TIME: 0 days 0 hours 0 minutes 22 seconds 111 msec
  ------------------------------------------------------------------------
          * successful ORCA run, taking over control again...

         :::::::::::::::::::::::::::::::::::::::::::::::::::::
         ::                  ORCA SUMMARY                   ::
         :::::::::::::::::::::::::::::::::::::::::::::::::::::
         :: total energy           -2450.709044189557 Eh    ::
         :: gradient norm              0.000552921358 Eh/a0 ::
         :: HOMO-LUMO gap              0.000000000000 eV    ::
         :::::::::::::::::::::::::::::::::::::::::::::::::::::

           -------------------------------------------------
          |                Property Printout                |
           -------------------------------------------------
           -------------------------------------------------
          |                Geometry Summary                 |
           -------------------------------------------------

      molecular mass/u    :      321.9711540
   center of mass at/Å    :       -0.0000001       0.0000021      -0.0000067
  moments of inertia/u·Å² :        0.5941412E+03   0.4590629E+04   0.5184771E+04
rotational constants/cm⁻¹ :        0.2837311E-01   0.3672183E-02   0.3251375E-02

 * 24 selected distances

     #   Z          #   Z                                           value/Å
     1   6          2   6                                         1.3830985
     2   6          3   6                                         1.3945928
     3   6          4   6                                         1.3830985
     4   6          5   6                                         1.3929400
     1   6          6   6                                         1.3929400
     5   6          6   6                                         1.3955338
     6   6          7  17                                         1.7375240 (max)
     5   6          8  17                                         1.7375238
     3   6          9   8                                         1.3776133
     9   8         10   6                                         1.3776134
    10   6         11   6                                         1.3830985
    11   6         12   6                                         1.3929400
    12   6         13   6                                         1.3955338
    13   6         14   6                                         1.3929400
    10   6         15   6                                         1.3945928
    14   6         15   6                                         1.3830984
     2   6         16   8                                         1.3776134
    15   6         16   8                                         1.3776135
    13   6         17  17                                         1.7375239
    12   6         18  17                                         1.7375239
     1   6         19   1                                         1.0831549
     4   6         20   1                                         1.0831549
    11   6         21   1                                         1.0831549 (min)
    14   6         22   1                                         1.0831549

 * 4 distinct bonds (by element types)

   Z      Z             #   av. dist./Å        max./Å        min./Å
   1 H    6 C           4     1.0831549     1.0831549     1.0831549
   6 C    6 C          12     1.3903673     1.3955338     1.3830984
   6 C    8 O           4     1.3776134     1.3776135     1.3776133
   6 C   17 Cl          4     1.7375239     1.7375240     1.7375238


optimized geometry written to: xtbopt.coord


           -------------------------------------------------
          | TOTAL ENERGY            -2450.709044189557 Eh   |
          | GRADIENT NORM               0.000552921358 Eh/α |
           -------------------------------------------------

------------------------------------------------------------------------
 * finished run on 2025/04/09 at 06:29:00.320     
------------------------------------------------------------------------
 total:
 * wall-time:     0 d,  0 h,  2 min, 56.865 sec
 *  cpu-time:     0 d,  0 h,  0 min,  0.410 sec
 * ratio c/w:     0.002 speedup
 SCF:
 * wall-time:     0 d,  0 h,  0 min, 27.407 sec
 *  cpu-time:     0 d,  0 h,  0 min,  0.069 sec
 * ratio c/w:     0.003 speedup
 ANC optimizer:
 * wall-time:     0 d,  0 h,  2 min, 29.440 sec
 *  cpu-time:     0 d,  0 h,  0 min,  0.100 sec
 * ratio c/w:     0.001 speedup

