22
 energy: -2450.707759675600 gnorm: 0.028972126631 xtb: 6.7.1 (41059b4)
C            2.36178152784657       -1.38747703441483       -0.00005136300002
C            1.16183801071484       -0.69915579020981       -0.00008670230004
C            1.16184391381484        0.69915771030982       -0.00009085680004
C            2.36178331364657        1.38748484281483       -0.00003799100002
C            3.56591709368015        0.69522212420807        0.00001524750001
C            3.56591294788015       -0.69521438180807        0.00000059320000
Cl           5.04380210453504       -1.57064627979600        0.00004500850002
Cl           5.04381026953505        1.57063699819599        0.00009996550004
O           -0.00000230600000        1.42825700003290       -0.00014833800007
C           -1.16184071231484        0.69916361060982       -0.00009802850004
C           -2.36178625054657        1.38748549951483       -0.00006179470003
C           -3.56591684798015        0.69521965900807        0.00000035230000
C           -3.56591127288015       -0.69521477500807        0.00001648010001
C           -2.36178137024657       -1.38747813511483       -0.00002028980001
C           -1.16184156631484       -0.69915029800981       -0.00007763270003
O           -0.00000376380000       -1.42824719963289       -0.00011038470005
Cl          -5.04379972583504       -1.57064961799600        0.00008395060004
Cl          -5.04380958763505        1.57063957199599        0.00005943970003
H            2.34773667204034       -2.46467553759216       -0.00005381800002
H            2.34772738844034        2.46468215779217       -0.00003456440002
H           -2.34773567134034        2.46468060569216       -0.00008043380004
H           -2.34772524614034       -2.46467574849216       -0.00000454800000
22
 energy: -2450.708839560386 gnorm: 0.014493052801 xtb: 6.7.1 (41059b4)
C            2.36205608528339       -1.38975359252790       -0.00004633712980
C            1.16449300165742       -0.69799247601903       -0.00008407568709
C            1.16449627784480        0.69799537677060       -0.00008810376499
C            2.36205707655806        1.38975944979697       -0.00003643544800
C            3.57076529668475        0.69868747726244        0.00001099084127
C            3.57076272102034       -0.69868088522596       -0.00000058317869
Cl           5.04419595412339       -1.60035369932465        0.00004566911708
Cl           5.04419988589844        1.60035197068018        0.00008856030622
O           -0.00000096916583        1.42868154494982       -0.00014402817812
C           -1.16449400017095        0.69799870355633       -0.00009333964484
C           -2.36205858558273        1.38975931841631       -0.00005794341609
C           -3.57076507254883        0.69868521330610       -0.00000207228861
C           -3.57076237506441       -0.69868205366821        0.00001491649871
C           -2.36205583610607       -1.38975401624666       -0.00002171649138
C           -1.16449463666770       -0.69798944496740       -0.00007735384654
O           -0.00000128267034       -1.42867390835385       -0.00011405900328
Cl          -5.04419630489904       -1.60035527440551        0.00008301072959
Cl          -5.04420080283976        1.60035044822237        0.00005078533673
H            2.34607774418543       -2.47180990193206       -0.00005011522943
H            2.34607187419899        2.47181542561566       -0.00003334278339
H           -2.34607719085798        2.47181495905102       -0.00007326787153
H           -2.34607021742212       -2.47180988280524       -0.00000687552829
22
 energy: -2450.709014906765 gnorm: 0.005903539243 xtb: 6.7.1 (41059b4)
C            2.36237049669398       -1.39080235975146       -0.00004205647930
C            1.16594202253000       -0.69733667088196       -0.00008127942758
C            1.16594314649342        0.69734027117851       -0.00008449713407
C            2.36237052973441        1.39080713503520       -0.00003566944959
C            3.57197131900303        0.69876627919014        0.00000767844796
C            3.57197036142169       -0.69876042401996        0.00000016179423
Cl           5.05058181673812       -1.60446570470790        0.00004615915711
Cl           5.05058191936224        1.60447006761973        0.00007357773547
O           -0.00000037048776        1.42957135231793       -0.00013855994359
C           -1.16594227530502        0.69734137907452       -0.00008850438404
C           -2.36237133783249        1.39080647050399       -0.00005323329181
C           -3.57197136902923        0.69876450228930       -0.00000303225297
C           -3.57197052253416       -0.69876204388358        0.00001274812852
C           -2.36237018485662       -1.39080277591473       -0.00002307412530
C           -1.16594259839111       -0.69733569521210       -0.00007631301345
O            0.00000005074190       -1.42956593761073       -0.00011714014609
Cl          -5.05058221161840       -1.60446783653988        0.00007925435199
Cl          -5.05058306499576        1.60446785971508        0.00004184472283
H            2.34693702303256       -2.47448230949241       -0.00004492358977
H            2.34693384465191        2.47448712565689       -0.00003309770185
H           -2.34693677306643        2.47448672825269       -0.00006549390748
H           -2.34693314123967       -2.47448264052016       -0.00001027748032
22
 energy: -2450.709041538663 gnorm: 0.001832101997 xtb: 6.7.1 (41059b4)
C            2.36258934396462       -1.39131319049574       -0.00003900140339
C            1.16644481909171       -0.69720891676389       -0.00007887288545
C            1.16644489813818        0.69721297729164       -0.00008159397794
C            2.36258884796424        1.39131787272231       -0.00003576216047
C            3.57139596184732        0.69820613221243        0.00000499170870
C            3.57139586715185       -0.69820046275563        0.00000065902009
Cl           5.05349166521915       -1.60356979443936        0.00004628922046
Cl           5.05349050558387        1.60357639904727        0.00006230537994
O           -0.00000025770340        1.43000986799703       -0.00013363800751
C           -1.16644490384989        0.69721293081479       -0.00008483799979
C           -2.36258947219553        1.39131698145524       -0.00004972270999
C           -3.57139617457365        0.69820457143609       -0.00000363131450
C           -3.57139594992933       -0.69820215123170        0.00001085452470
C           -2.36258893995911       -1.39131392240042       -0.00002399504707
C           -1.16644493695909       -0.69720898557234       -0.00007502994158
O            0.00000037757333       -1.43000562442834       -0.00011799148914
Cl          -5.05349155000707       -1.60357207175381        0.00007401188225
Cl          -5.05349148801145        1.60357414027068        0.00003682269595
H            2.34808964152873       -2.47483118654430       -0.00004032784306
H            2.34808776896450        2.47483594570617       -0.00003414002709
H           -2.34808955451656        2.47483523554239       -0.00005998237620
H           -2.34808774165701       -2.47483194577220       -0.00001313779627
22
 energy: -2450.709044061158 gnorm: 0.000498310104 xtb: 6.7.1 (41059b4)
C            2.36278549005569       -1.39151773864250       -0.00003716224734
C            1.16653521550268       -0.69729411298383       -0.00007701780082
C            1.16653493208195        0.69729855355512       -0.00008018978196
C            2.36278480078850        1.39152277347952       -0.00003692253445
C            3.57067062714103        0.69776967661862        0.00000250160829
C            3.57067091401683       -0.69776398868980        0.00000034088345
Cl           5.05398497862633       -1.60262215586221        0.00004660569199
Cl           5.05398405796683        1.60262863696010        0.00005656895628
O           -0.00000031812043        1.43011072158899       -0.00013010758638
C           -1.16653533863268        0.69729808697959       -0.00008286192889
C           -2.36278550262698        1.39152180944502       -0.00004797526047
C           -3.57067097857817        0.69776814964452       -0.00000414285549
C           -3.57067070426690       -0.69776556718761        0.00000883109992
C           -2.36278498458912       -1.39151877630541       -0.00002488016936
C           -1.16653513888460       -0.69729455767951       -0.00007373918120
O            0.00000025241847       -1.43010681418137       -0.00011633650265
Cl          -5.05398431290346       -1.60262431348392        0.00006894422808
Cl          -5.05398492155905        1.60262643249579        0.00003634123499
H            2.34884425766404       -2.47458282326415       -0.00003671860156
H            2.34884296969436        2.47458784081511       -0.00003605038573
H           -2.34884431297621        2.47458684789941       -0.00005646172093
H           -2.34884323640416       -2.47458386793909       -0.00001529684070
22
 energy: -2450.709044061158 gnorm: 0.000498310104 xtb: 6.7.1 (41059b4)
C            2.36278549005569       -1.39151773864250       -0.00003716224734
C            1.16653521550268       -0.69729411298383       -0.00007701780082
C            1.16653493208195        0.69729855355512       -0.00008018978196
C            2.36278480078850        1.39152277347952       -0.00003692253445
C            3.57067062714103        0.69776967661862        0.00000250160829
C            3.57067091401683       -0.69776398868980        0.00000034088345
Cl           5.05398497862633       -1.60262215586221        0.00004660569199
Cl           5.05398405796683        1.60262863696010        0.00005656895628
O           -0.00000031812043        1.43011072158899       -0.00013010758638
C           -1.16653533863268        0.69729808697959       -0.00008286192889
C           -2.36278550262698        1.39152180944502       -0.00004797526047
C           -3.57067097857817        0.69776814964452       -0.00000414285549
C           -3.57067070426690       -0.69776556718761        0.00000883109992
C           -2.36278498458912       -1.39151877630541       -0.00002488016936
C           -1.16653513888460       -0.69729455767951       -0.00007373918120
O            0.00000025241847       -1.43010681418137       -0.00011633650265
Cl          -5.05398431290346       -1.60262431348392        0.00006894422808
Cl          -5.05398492155905        1.60262643249579        0.00003634123499
H            2.34884425766404       -2.47458282326415       -0.00003671860156
H            2.34884296969436        2.47458784081511       -0.00003605038573
H           -2.34884431297621        2.47458684789941       -0.00005646172093
H           -2.34884323640416       -2.47458386793909       -0.00001529684070
