
                                 *****************
                                 * O   R   C   A *
                                 *****************

                                            #,                                       
                                            ###                                      
                                            ####                                     
                                            #####                                    
                                            ######                                   
                                           ########,                                 
                                     ,,################,,,,,                         
                               ,,#################################,,                 
                          ,,##########################################,,             
                       ,#########################################, ''#####,          
                    ,#############################################,,   '####,        
                  ,##################################################,,,,####,       
                ,###########''''           ''''###############################       
              ,#####''   ,,,,##########,,,,          '''####'''          '####       
            ,##' ,,,,###########################,,,                        '##       
           ' ,,###''''                  '''############,,,                           
         ,,##''                                '''############,,,,        ,,,,,,###''
      ,#''                                            '''#######################'''  
     '                                                          ''''####''''         
             ,#######,   #######,   ,#######,      ##                                
            ,#'     '#,  ##    ##  ,#'     '#,    #''#        ,####,   ,####,        
            ##       ##  ##   ,#'  ##            #'  '#       #'       #'  '#        
            ##       ##  #######   ##           ,######,      #####,   #    #        
            '#,     ,#'  ##    ##  '#,     ,#' ,#      #,     #,   #   #,  ,#        
             '#######'   ##     ##  '#######'  #'      '#     '####' # '####'        



                #########################################################
                #                        -***-                          #
                #          Department of theory and spectroscopy        #
                #                                                       #
                #                      Frank Neese                      #
                #                                                       #
                #     Directorship, Architecture, Infrastructure        #
                #                    SHARK, DRIVERS                     #
                #        Core code/Algorithms in most modules           #
                #                                                       #
                #        Max Planck Institute fuer Kohlenforschung      #
                #                Kaiser Wilhelm Platz 1                 #
                #                 D-45470 Muelheim/Ruhr                 #
                #                      Germany                          #
                #                                                       #
                #                  All rights reserved                  #
                #                        -***-                          #
                #########################################################


                         Program Version 6.0.1  -  RELEASE   -


 With contributions from (in alphabetic order):
[Max-Planck-Institut fuer Kohlenforschung]                               
  Daniel Aravena         : Magnetic Suceptibility                        
  Michael Atanasov       : Ab Initio Ligand Field Theory (pilot matlab implementation)
  Alexander A. Auer      : GIAO ZORA, VPT2 properties, NMR spectrum      
  Ute Becker             : All parallelization in ORCA, NUMFREQ, NUMCALC 
  Giovanni Bistoni       : ED, misc. LED, open-shell LED, HFLD           
  Martin Brehm           : Molecular dynamics                            
  Dmytro Bykov           : pre 5.0 version of the SCF Hessian            
  Marcos Casanova-Páez   : Triplet and SCS-CIS(D). UHF-(DLPNO)-IP/EA/STEOM-CCSD. UHF-CVS-IP/STEOM-CCSD   
  Vijay G. Chilkuri      : MRCI spin determinant printing, contributions to CSF-ICE 
  Pauline Colinet        : FMM embedding                                 
  Dipayan Datta          : RHF DLPNO-CCSD density                        
  Achintya Kumar Dutta   : EOM-CC, STEOM-CC                              
  Nicolas Foglia         : Exact transition moments, OPA infrastructure, MCD improvements    
  Dmitry Ganyushin       : Spin-Orbit,Spin-Spin,Magnetic field MRCI      
  Miquel Garcia-Rates    : C-PCM and meta-GGA Hessian, CCSD/C-PCM, Gaussian charge scheme 
  Tiago L. C. Gouveia    : GS-ROHF, GS-ROCIS                             
  Yang Guo               : DLPNO-NEVPT2, F12-NEVPT2, CIM, IAO-localization        
  Andreas Hansen         : Spin unrestricted coupled pair/coupled cluster methods 
  Ingolf Harden          : AUTO-CI MPn and infrastructure                
  Benjamin Helmich-Paris : MC-RPA, TRAH-(SCF,CASSCF), AVAS, COSX integrals, SCF dyn. polar. 
  Lee Huntington         : MR-EOM, pCC                                   
  Robert Izsak           : Overlap fitted RIJCOSX, COSX-SCS-MP3, EOM     
  Riya Kayal             : Wick's Theorem for AUTO-CI, AUTO-CI UHF-CCSDT 
  Emily Kempfer          : AUTO-CI, RHF CISDT and CCSDT                  
  Christian Kollmar      : KDIIS, OOCD, Brueckner-CCSD(T), CCSD density, CASPT2, CASPT2-K, improved NEVPT2 
  Axel Koslowski         : Symmetry handling                             
  Simone Kossmann        : meta-GGA functionals, TD-DFT gradient, OOMP2, (MP2 Hessian; deprecated post 5.0) 
  Lucas Lang             : DCDCAS                                        
  Marvin Lechner         : AUTO-CI (C++ implementation), FIC-MRCC        
  Spencer Leger          : CASSCF response                               
  Dagmar Lenk            : GEPOL surface, SMD, ORCA-2-JSON               
  Dimitrios Liakos       : Extrapolation schemes; Compound Job, initial MDCI parallelization 
  Dimitrios Manganas     : Further ROCIS development; embedding schemes. LFT, Crystal Embedding 
  Dimitrios Pantazis     : SARC Basis sets                               
  Anastasios Papadopoulos: AUTO-CI, single reference methods and gradients 
  Taras Petrenko         : pre 6.0 DFT Hessian and TD-DFT gradient, (ASA, deprecated), ECA, 1-Electron XAS/XES, NRVS 
  Peter Pinski           : DLPNO-MP2, DLPNO-MP2 Gradient                 
  Christoph Reimann      : Effective Core Potentials                     
  Marius Retegan         : Local ZFS, SOC                                
  Christoph Riplinger    : Optimizer, TS searches, QM/MM, DLPNO-CCSD(T), (RO)-DLPNO pert. Triples 
  Michael Roemelt        : Original ROCIS implementation                 
  Masaaki Saitow         : Open-shell DLPNO-CCSD energy and density      
  Barbara Sandhoefer     : DKH picture change effects                    
  Kantharuban Sivalingam : CASSCF convergence/infrastructure, NEVPT2 and variants, FIC-MRCI 
  Bernardo de Souza      : ESD, SOC TD-DFT                               
  Georgi L. Stoychev     : AutoAux, RI-MP2 NMR, DLPNO-MP2 response, X2C  
  Van Anh Tran           : RI-MP2 g-tensors                              
  Willem Van den Heuvel  : Paramagnetic NMR                              
  Zikuan Wang            : NOTCH, Electric field optimization            
  Frank Wennmohs         : Technical directorship and infrastructure     
  Hang Xu                : AUTO-CI-Response properties                   
                                                                         
[FACCTs GmbH]                                                            
  Markus Bursch, Miquel Garcia-Rates, Christoph Riplinger, Bernardo de Souza, Georgi L. Stoychev 
                                                                 
  APM, Basis sets (HGBS, AHGBS, def-TZVP (Ac-Lr), def2-XVPD (La-Lu)), CI-OPT, improved COSX, DLPNO-Multilevel,           
  DOCKER, DRACO, updates on ESD, GOAT, IRC, LR-CPCM, MBIS, meta-GGA TD-DFT gradient, ML-optimized integration grids, 
  MM, NACMEs, nearIR, NEB, NEB-TS, NL-DFT gradient (VV10), 2- and 3-layer-ONIOM, interface openCOSMO-RS, QMMM,   
  Crystal-QMMM, SF, symmetry and pop. for TD-DFT, r2SCAN hybrids, SOLVATOR                                   
                                                                         
[Other institutions]                                                     
  V. Asgeirsson          : NEB                                           
  Christoph Bannwarth    : sTDA-DFT, sTD-DFT, PBEh-3c, B97-3c, D3        
  Sebastian Ehlert       : rSCAN, r2SCAN, r2SCAN-3c, D4, dhf basis sets  
  Marvin Friede          : D4 for Fr, Ra, Ac-Lr                          
  Lars Goerigk           : TD-DFT with DH, B97 family of functionals     
  Stefan Grimme          : VdW corrections, initial TS optimization, DFT functionals, gCP, sTDA/sTD-DF 
  Waldemar Hujo          : DFT-NL                                        
  H. Jonsson             : NEB                                           
  Holger Kruse           : gCP                                           
  Marcel Mueller         : wB97X-3c, vDZP basis set                      
  Hagen Neugebauer       : wr2SCAN                                       
  Tobias Risthaus        : range-separated hybrid DFT                    
  Lukas Wittmann         : regularized MP2, r2SCAN double-hybrids, wr2SCAN        
                                                                         
We gratefully acknowledge several colleagues who have allowed us to      
interface, adapt or use parts of their codes:                            
  Ed Valeev, F. Pavosevic, A. Kumar             : LibInt (2-el integral package), F12 methods 
  Garnet Chan, S. Sharma, J. Yang, R. Olivares  : DMRG                   
  Ulf Ekstrom                                   : XCFun DFT Library      
  Mihaly Kallay                                 : mrcc  (arbitrary order and MRCC methods)
  Frank Weinhold                                : gennbo (NPA and NBO analysis)           
  Simon Mueller                                 : openCOSMO-RS                            
  Christopher J. Cramer and Donald G. Truhlar   : smd solvation model                     
  S Lehtola, MJT Oliveira, MAL Marques          : LibXC Library                           
  Liviu Ungur et al                             : ANISO software                          


 Your calculation uses the libint2 library for the computation of 2-el integrals
 For citations please refer to: http://libint.valeyev.net

 Your ORCA version has been built with support for libXC version: 6.2.2
 For citations please refer to: https://libxc.gitlab.io

 This ORCA versions uses:
   CBLAS   interface :  Fast vector & matrix operations
   LAPACKE interface :  Fast linear algebra routines
   SCALAPACK package :  Parallel linear algebra routines
   Shared memory     :  Shared parallel matrices
   BLAS/LAPACK       :  OpenBLAS 0.3.27  USE64BITINT DYNAMIC_ARCH NO_AFFINITY Zen SINGLE_THREADED
        Core in use  :  Zen
   Copyright (c) 2011-2014, The OpenBLAS Project


Your calculation utilizes the geometrical counterpoise correction gCP
Please cite in your paper:
H.Kruse, S. Grimme J.Chem.Phys., 136, (2012), 154101 
   

Your calculation utilizes the atom-pairwise dispersion correction
based on EEQ partial charges (D4)


================================================================================

----- Orbital basis set information -----
Your calculation utilizes the basis: def2-SV(P)
   F. Weigend and R. Ahlrichs, Phys. Chem. Chem. Phys. 7, 3297 (2005).

----- AuxJ basis set information -----
Your calculation utilizes the auxiliary basis: def2/J
   F. Weigend, Phys. Chem. Chem. Phys. 8, 1057 (2006).

================================================================================
                                        WARNINGS
                       Please study these warnings very carefully!
================================================================================

WARNING: Old DensityContainer found on disk!
         Will remove this file - 
         If you want to keep old densities, please start your calculation with a different basename. 


================================================================================
                                       INPUT FILE
================================================================================
NAME = sp.inp
|  1> ! pbe def2-sv(p) def2/J RI DEFGRID1 loosescf d4 GCP(DFT/SV(P)) printgap
|  2> %output
|  3>     printlevel normal
|  4> end
|  5> * xyz 0 1
|  6> C -1.9162496276 1.1665984964 0.3090282484
|  7> C -1.4987330078 -0.1794216257 -0.2671619276
|  8> C -0.0254740492 -0.4895918858 -0.1225687305
|  9> O 0.4362649066 -1.6002171414 -0.1686925886
| 10> O 0.7115969841 0.6129214046 0.04816593
| 11> C 2.1160119678 0.4398449972 0.1715578596
| 12> H -1.3922252932 1.9765969263 -0.1902665429
| 13> H -2.9861889953 1.3088056352 0.1772836879
| 14> H -1.6888499732 1.2146673865 1.3708752499
| 15> H -1.7209936488 -0.2143675744 -1.3375719467
| 16> H -2.0494443408 -0.996461284 0.2028102566
| 17> H 2.3372925144 -0.5244498834 0.6332565581
| 18> H 2.4811953465 1.2573189479 0.7896393509
| 19> H 2.5812780472 0.4789989802 -0.8154983742
| 20> *
| 21> 
| 22>                          ****END OF INPUT****
================================================================================

                       ****************************
                       * Single Point Calculation *
                       ****************************

---------------------------------
CARTESIAN COORDINATES (ANGSTROEM)
---------------------------------
  C     -1.916250    1.166598    0.309028
  C     -1.498733   -0.179422   -0.267162
  C     -0.025474   -0.489592   -0.122569
  O      0.436265   -1.600217   -0.168693
  O      0.711597    0.612921    0.048166
  C      2.116012    0.439845    0.171558
  H     -1.392225    1.976597   -0.190267
  H     -2.986189    1.308806    0.177284
  H     -1.688850    1.214667    1.370875
  H     -1.720994   -0.214368   -1.337572
  H     -2.049444   -0.996461    0.202810
  H      2.337293   -0.524450    0.633257
  H      2.481195    1.257319    0.789639
  H      2.581278    0.478999   -0.815498

----------------------------
CARTESIAN COORDINATES (A.U.)
----------------------------
  NO LB      ZA    FRAG     MASS         X           Y           Z
   0 C     6.0000    0    12.011   -3.621187    2.204552    0.583979
   1 C     6.0000    0    12.011   -2.832195   -0.339058   -0.504863
   2 C     6.0000    0    12.011   -0.048139   -0.925195   -0.231621
   3 O     8.0000    0    15.999    0.824421   -3.023972   -0.318783
   4 O     8.0000    0    15.999    1.344723    1.158254    0.091020
   5 C     6.0000    0    12.011    3.998683    0.831187    0.324197
   6 H     1.0000    0     1.008   -2.630925    3.735227   -0.359552
   7 H     1.0000    0     1.008   -5.643079    2.473284    0.335018
   8 H     1.0000    0     1.008   -3.191464    2.295389    2.590579
   9 H     1.0000    0     1.008   -3.252207   -0.405096   -2.527645
  10 H     1.0000    0     1.008   -3.872889   -1.883039    0.383256
  11 H     1.0000    0     1.008    4.416843   -0.991067    1.196681
  12 H     1.0000    0     1.008    4.688780    2.375988    1.492202
  13 H     1.0000    0     1.008    4.877909    0.905177   -1.541069

--------------------------------
INTERNAL COORDINATES (ANGSTROEM)
--------------------------------
 C      0   0   0     0.000000000000     0.00000000     0.00000000
 C      1   0   0     1.522525998407     0.00000000     0.00000000
 C      2   1   0     1.512482972464   114.34530555     0.00000000
 O      3   2   1     1.203668863087   124.00182502   158.95031883
 O      3   2   1     1.337146060808   112.33676671   338.25886575
 C      5   3   2     1.420409257056   117.10636560   181.07891598
 H      1   2   3     1.086275401592   110.67003102    60.59320463
 H      1   2   3     1.087359071375   109.85259392   180.69318441
 H      1   2   3     1.086986787229   110.57405803   300.50384452
 H      2   1   3     1.093800082674   110.05202349   240.12716926
 H      2   1   3     1.091654995615   111.12536142   121.60108118
 H      6   5   3     1.091785411723   110.16669977   329.45186761
 H      6   5   3     1.087955555177   106.83860966   209.00822764
 H      6   5   3     1.091918297176   109.77968684    89.64623539

---------------------------
INTERNAL COORDINATES (A.U.)
---------------------------
 C      0   0   0     0.000000000000     0.00000000     0.00000000
 C      1   0   0     2.877157168765     0.00000000     0.00000000
 C      2   1   0     2.858178600176   114.34530555     0.00000000
 O      3   2   1     2.274604507163   124.00182502   158.95031883
 O      3   2   1     2.526839855979   112.33676671   338.25886575
 C      5   3   2     2.684184493922   117.10636560   181.07891598
 H      1   2   3     2.052763015024   110.67003102    60.59320463
 H      1   2   3     2.054810854134   109.85259392   180.69318441
 H      1   2   3     2.054107339054   110.57405803   300.50384452
 H      2   1   3     2.066982601515   110.05202349   240.12716926
 H      2   1   3     2.062928974439   111.12536142   121.60108118
 H      6   5   3     2.063175425167   110.16669977   329.45186761
 H      6   5   3     2.055938045162   106.83860966   209.00822764
 H      6   5   3     2.063426542281   109.77968684    89.64623539

---------------------
BASIS SET INFORMATION
---------------------
There are 3 groups of distinct atoms

 Group   1 Type C   : 7s4p1d contracted to 3s2p1d pattern {511/31/1}
 Group   2 Type O   : 7s4p1d contracted to 3s2p1d pattern {511/31/1}
 Group   3 Type H   : 4s contracted to 2s pattern {31}

Atom   0C    basis set group =>   1
Atom   1C    basis set group =>   1
Atom   2C    basis set group =>   1
Atom   3O    basis set group =>   2
Atom   4O    basis set group =>   2
Atom   5C    basis set group =>   1
Atom   6H    basis set group =>   3
Atom   7H    basis set group =>   3
Atom   8H    basis set group =>   3
Atom   9H    basis set group =>   3
Atom  10H    basis set group =>   3
Atom  11H    basis set group =>   3
Atom  12H    basis set group =>   3
Atom  13H    basis set group =>   3
---------------------------------
AUXILIARY/J BASIS SET INFORMATION
---------------------------------
There are 3 groups of distinct atoms

 Group   1 Type C   : 12s5p4d2f1g contracted to 6s4p3d1f1g pattern {711111/2111/211/2/1}
 Group   2 Type O   : 12s5p4d2f1g contracted to 6s4p3d1f1g pattern {711111/2111/211/2/1}
 Group   3 Type H   : 5s2p1d contracted to 3s1p1d pattern {311/2/1}

Atom   0C    basis set group =>   1
Atom   1C    basis set group =>   1
Atom   2C    basis set group =>   1
Atom   3O    basis set group =>   2
Atom   4O    basis set group =>   2
Atom   5C    basis set group =>   1
Atom   6H    basis set group =>   3
Atom   7H    basis set group =>   3
Atom   8H    basis set group =>   3
Atom   9H    basis set group =>   3
Atom  10H    basis set group =>   3
Atom  11H    basis set group =>   3
Atom  12H    basis set group =>   3
Atom  13H    basis set group =>   3

Checking for AutoStart:
The File: sp.gbw exists
Trying to determine its content:
     ... Fine, the file contains calculation information
     ... Fine, the calculation information was read
     ... Fine, the file contains a basis set
     ... Fine, the basis set was read
     ... Fine, the file contains a geometry
     ... Fine, the geometry was read
     ... Fine, the file contains a set of orbitals
     ... Fine, the orbitals can be read
     => possible old guess file was deleted
     => GBW file was renamed to GES file
     => GES file is set as startup file
     => Guess is set to MORead
     ... now leaving AutoStart

------------------------------------------------------------------------------
                             ORCA STARTUP CALCULATIONS
                           -- RI-GTO INTEGRALS CHOSEN --
------------------------------------------------------------------------------
------------------------------------------------------------------------------
                   ___                                                        
                  /   \      - P O W E R E D   B Y -                         
                 /     \                                                     
                 |  |  |   _    _      __       _____    __    __             
                 |  |  |  | |  | |    /  \     |  _  \  |  |  /  |          
                  \  \/   | |  | |   /    \    | | | |  |  | /  /          
                 / \  \   | |__| |  /  /\  \   | |_| |  |  |/  /          
                |  |  |   |  __  | /  /__\  \  |    /   |      \           
                |  |  |   | |  | | |   __   |  |    \   |  |\   \          
                \     /   | |  | | |  |  |  |  | |\  \  |  | \   \       
                 \___/    |_|  |_| |__|  |__|  |_| \__\ |__|  \__/        
                                                                              
                      - O R C A' S   B I G   F R I E N D -                    
                                      &                                       
                       - I N T E G R A L  F E E D E R -                       
                                                                              
 v1 FN, 2020, v2 2021, v3 2022-2024                                           
------------------------------------------------------------------------------


----------------------
SHARK INTEGRAL PACKAGE
----------------------

Number of atoms                             ...     14
Number of basis functions                   ...    100
Number of shells                            ...     52
Maximum angular momentum                    ...      2
Integral batch strategy                     ... SHARK/LIBINT Hybrid
RI-J (if used) integral strategy            ... SPLIT-RIJ (Revised 2003 algorithm where possible)
Printlevel                                  ...      1
Contraction scheme used                     ... SEGMENTED contraction
Prescreening option                         ... SCHWARTZ
   Thresh                                   ... 1.000e-09
   Tcut                                     ... 1.000e-10
   Tpresel                                  ... 1.000e-10 
Coulomb Range Separation                    ... NOT USED
Exchange Range Separation                   ... NOT USED
Multipole approximations                    ... NOT USED
Finite Nucleus Model                        ... NOT USED
CABS basis                                  ... NOT available
Auxiliary Coulomb fitting basis             ... AVAILABLE
   # of basis functions in Aux-J            ...    382
   # of shells in Aux-J                     ...    130
   Maximum angular momentum in Aux-J        ...      4
Auxiliary J/K fitting basis                 ... NOT available
Auxiliary Correlation fitting basis         ... NOT available
Auxiliary 'external' fitting basis          ... NOT available

Checking pre-screening integrals            ... done (  0.0 sec) Dimension = 52
Check shell pair data                       ... done (  0.0 sec)
Shell pair information
Shell pair cut-off parameter TPreSel        ...   1.0e-10
Total number of shell pairs                 ...      1378
Shell pairs after pre-screening             ...      1340
Total number of primitive shell pairs       ...      5562
Primitive shell pairs kept                  ...      3923
          la=0 lb=0:    568 shell pairs
          la=1 lb=0:    404 shell pairs
          la=1 lb=1:     78 shell pairs
          la=2 lb=0:    197 shell pairs
          la=2 lb=1:     72 shell pairs
          la=2 lb=2:     21 shell pairs

Calculating one electron integrals          ... done (  0.0 sec)
Calculating RI/J V-Matrix + Cholesky decomp.... done (  0.0 sec)
Calculating Nuclear repulsion               ... done (  0.0 sec) ENN=    247.892987025585 Eh

Diagonalization of the overlap matrix:
Smallest eigenvalue                        ... 1.989e-03
Time for diagonalization                   ...    0.001 sec
Threshold for overlap eigenvalues          ... 1.000e-07
Number of eigenvalues below threshold      ... 0
Time for construction of square roots      ...    0.000 sec
Total time needed                          ...    0.002 sec

-------------------
DFT GRID GENERATION
-------------------

General Integration Accuracy     IntAcc      ... 4.159
Radial Grid Type                 RadialGrid  ... OptM3 with GC (2021)
Angular Grid (max. ang.)         AngularGrid ... 3 (Lebedev-194)
Angular grid pruning method      GridPruning ... 4 (adaptive)
Weight generation scheme         WeightScheme... mBecke (2022)
Basis function cutoff            BFCut       ... 1.0000e-10
Integration weight cutoff        WCut        ... 1.0000e-14
Partially contracted basis set               ... off
Rotationally invariant grid construction     ... off
Angular grids for H and He will be reduced by one unit

Total number of grid points                  ...    31120
Total number of batches                      ...      493
Average number of points per batch           ...       63
Average number of grid points per atom       ...     2223
Initializing property integral containers    ... done (  0.0 sec)

SHARK setup successfully completed in   0.2 seconds

Maximum memory used throughout the entire STARTUP-calculation: 15.8 MB
-------------------------------------------------------------------------------
                                 ORCA GUESS
                   Start orbitals & Density for SCF / CASSCF
-------------------------------------------------------------------------------

------------
SCF SETTINGS
------------
Hamiltonian:
 Density Functional     Method          .... DFT(GTOs)
 Exchange Functional    Exchange        .... PBE
   PBE kappa parameter   XKappa         ....  0.804000
   PBE mue parameter    XMuePBE         ....  0.219520
 Correlation Functional Correlation     .... PBE
   PBE beta parameter  CBetaPBE         ....  0.066725
 LDA part of GGA corr.  LDAOpt          .... PW91-LDA
 Gradients option       PostSCFGGA      .... off
   NL short-range parameter             ....  6.400000
 RI-approximation to the Coulomb term is turned on
   Number of AuxJ basis functions       .... 382


General Settings:
 Integral files         IntName         .... sp
 Hartree-Fock type      HFTyp           .... RHF
 Total Charge           Charge          ....    0
 Multiplicity           Mult            ....    1
 Number of Electrons    NEL             ....   48
 Basis Dimension        Dim             ....  100
 Nuclear Repulsion      ENuc            ....    247.8929870256 Eh

Convergence Acceleration:
 AO-DIIS                CNVDIIS         .... on
   Start iteration      DIISMaxIt       ....    12
   Startup error        DIISStart       ....  0.200000
   # of expansion vecs  DIISMaxEq       ....     5
   Bias factor          DIISBfac        ....   1.050
   Max. coefficient     DIISMaxC        ....  10.000
 MO-DIIS                CNVKDIIS        .... off
 Trust-Rad. Augm. Hess. CNVTRAH         .... auto
   Auto Start mean grad. ratio tolernc. ....  1.125000
   Auto Start start iteration           ....     1
   Auto Start num. interpolation iter.  ....    10
   Max. Number of Micro iterations      ....    24
   Max. Number of Macro iterations      .... Maxiter - #DIIS iter
   Number of Davidson start vectors     ....     2
   Converg. threshold    (grad. norm)   ....   1.000e-04
   Grad. Scal. Fac. for Micro threshold ....   0.100
   Minimum threshold for Micro iter.    ....   1.000e-02
   NR start threshold (gradient norm)   ....   1.000e-04
   Initial trust radius                 ....   0.400
   Minimum AH scaling param. (alpha)    ....   1.000
   Maximum AH scaling param. (alpha)    .... 1000.000
   Quad. conv. algorithm                .... NR
   White noise on init. David. guess    .... on
   Maximum white noise                  ....   0.010
   Pseudo random numbers                .... off
   Inactive MOs                         .... canonical
   Orbital update algorithm             .... Taylor
   Preconditioner                       .... Diag
   Full preconditioner red. dimension   ....   250
 SOSCF                  CNVSOSCF        .... on
   Start iteration      SOSCFMaxIt      ....   150
   Startup grad/error   SOSCFStart      ....  0.003300
   Hessian update       SOSCFHessUp     .... L-BFGS
 Level Shifting         CNVShift        .... on
   Level shift para.    LevelShift      ....    0.2500
   Turn off err/grad.   ShiftErr        ....    0.0010
 Zerner damping         CNVZerner       .... off
 Static damping         CNVDamp         .... on
   Fraction old density DampFac         ....    0.7000
   Max. Damping (<1)    DampMax         ....    0.9800
   Min. Damping (>=0)   DampMin         ....    0.0000
   Turn off err/grad.   DampErr         ....    0.1000

SCF Procedure:
 Maximum # iterations   MaxIter         ....   125
 SCF integral mode      SCFMode         .... Direct
   Integral package                     .... SHARK and LIBINT hybrid scheme
 Reset frequency        DirectResetFreq ....    20
 Integral Threshold     Thresh          ....  1.000e-09 Eh
 Primitive CutOff       TCut            ....  1.000e-10 Eh

Convergence Tolerance:
 Convergence Check Mode ConvCheckMode   .... Total+1el-Energy
 Convergence forced     ConvForced      .... 0
 Energy Change          TolE            ....  1.000e-05 Eh
 1-El. energy change                    ....  1.000e-02 Eh
 Orbital Gradient       TolG            ....  1.000e-04
 Orbital Rotation angle TolX            ....  1.000e-04
 DIIS Error             TolErr          ....  5.000e-04

---------------------
INITIAL GUESS: MOREAD
---------------------
Guess MOs are being read from file: sp.ges
Input Geometry matches current geometry (good)
Input basis set matches current basis set (good)
Occupation numbers will be reassigned to an Aufbau configuration
MOs were renormalized
MOs were reorthogonalized (Cholesky)
                      ------------------
                      INITIAL GUESS DONE (   0.0 sec)
                      ------------------
             **** ENERGY FILE WAS UPDATED (sp.en.tmp) ****
Finished Guess after   0.0 sec
Maximum memory used throughout the entire GUESS-calculation: 8.1 MB

-------------------------------------------------------------------------------------------
                                      ORCA LEAN-SCF
                              memory conserving SCF solver
-------------------------------------------------------------------------------------------

----------------------------------------D-I-I-S--------------------------------------------
Iteration    Energy (Eh)           Delta-E    RMSDP     MaxDP     DIISErr   Damp  Time(sec)
-------------------------------------------------------------------------------------------
               ***  Starting incremental Fock matrix formation  ***
                              *** Initializing SOSCF ***
---------------------------------------S-O-S-C-F--------------------------------------
Iteration    Energy (Eh)           Delta-E    RMSDP     MaxDP     MaxGrad    Time(sec)
--------------------------------------------------------------------------------------
    1    -307.0804262484282958     0.00e+00  1.54e-06  2.88e-05  2.19e-06     0.2
               *** Restarting incremental Fock matrix formation ***
    2    -307.0804262481166802     3.12e-10  2.72e-06  6.23e-05  7.08e-06     0.2
                  *** Gradient check signals convergence ***

               *****************************************************
               *                     SUCCESS                       *
               *           SCF CONVERGED AFTER   2 CYCLES          *
               *****************************************************

             **** ENERGY FILE WAS UPDATED (sp.en.tmp) ****

----------------
TOTAL SCF ENERGY
----------------

Total Energy       :       -307.08042624811668 Eh           -8356.08321 eV

Components:
Nuclear Repulsion  :        247.89298702558546 Eh            6745.51111 eV
Electronic Energy  :       -554.97341327370214 Eh          -15101.59433 eV
One Electron Energy:       -908.70952656338955 Eh          -24727.24333 eV
Two Electron Energy:        353.73611328968747 Eh            9625.64900 eV

Virial components:
Potential Energy   :       -611.82050356516220 Eh          -16648.48229 eV
Kinetic Energy     :        304.74007731704546 Eh            8292.39908 eV
Virial Ratio       :          2.00767981996879

DFT components:
N(Alpha)           :       23.999960789239 electrons
N(Beta)            :       23.999960789239 electrons
N(Total)           :       47.999921578477 electrons
E(X)               :      -39.887190145652 Eh       
E(C)               :       -1.597359661104 Eh       
E(XC)              :      -41.484549806756 Eh       

---------------
SCF CONVERGENCE
---------------

  Last Energy change         ...   -3.1162e-10  Tolerance :   1.0000e-05
  Last MAX-Density change    ...    6.2326e-05  Tolerance :   1.0000e-03
  Last RMS-Density change    ...    2.7187e-06  Tolerance :   1.0000e-04
  Last DIIS Error            ...    1.9928e-05  Tolerance :   5.0000e-04
  Last Orbital Gradient      ...    7.0838e-06  Tolerance :   1.0000e-04
  Last Orbital Rotation      ...    2.8534e-05  Tolerance :   1.0000e-04


----------------
ORBITAL ENERGIES
----------------

  NO   OCC          E(Eh)            E(eV) 
   0   2.0000     -18.800910      -511.5988 
   1   2.0000     -18.733388      -509.7614 
   2   2.0000     -10.004214      -272.2285 
   3   2.0000      -9.938813      -270.4489 
   4   2.0000      -9.899514      -269.3795 
   5   2.0000      -9.881010      -268.8760 
   6   2.0000      -1.006359       -27.3844 
   7   2.0000      -0.913714       -24.8634 
   8   2.0000      -0.714817       -19.4512 
   9   2.0000      -0.651292       -17.7225 
  10   2.0000      -0.576028       -15.6745 
  11   2.0000      -0.508523       -13.8376 
  12   2.0000      -0.448054       -12.1922 
  13   2.0000      -0.441331       -12.0092 
  14   2.0000      -0.410149       -11.1607 
  15   2.0000      -0.398364       -10.8400 
  16   2.0000      -0.375179       -10.2091 
  17   2.0000      -0.351953        -9.5771 
  18   2.0000      -0.343393        -9.3442 
  19   2.0000      -0.321807        -8.7568 
  20   2.0000      -0.307028        -8.3547 
  21   2.0000      -0.299096        -8.1388 
  22   2.0000      -0.257790        -7.0148 
  23   2.0000      -0.218345        -5.9415 
  24   0.0000      -0.017728        -0.4824 
  25   0.0000       0.040792         1.1100 
  26   0.0000       0.061029         1.6607 
  27   0.0000       0.088647         2.4122 
  28   0.0000       0.098218         2.6726 
  29   0.0000       0.099873         2.7177 
  30   0.0000       0.104518         2.8441 
  31   0.0000       0.114306         3.1104 
  32   0.0000       0.120506         3.2791 
  33   0.0000       0.141133         3.8404 
  34   0.0000       0.184943         5.0325 
*Only the first 10 virtual orbitals were printed.

                    ********************************
                    * MULLIKEN POPULATION ANALYSIS *
                    ********************************

-----------------------
MULLIKEN ATOMIC CHARGES
-----------------------
   0 C :   -0.267824
   1 C :   -0.199716
   2 C :    0.108658
   3 O :   -0.195535
   4 O :   -0.244293
   5 C :   -0.126461
   6 H :    0.112566
   7 H :    0.102806
   8 H :    0.106777
   9 H :    0.122343
  10 H :    0.113851
  11 H :    0.128157
  12 H :    0.120387
  13 H :    0.118283
Sum of atomic charges:    0.0000000

--------------------------------
MULLIKEN REDUCED ORBITAL CHARGES
--------------------------------
  0 C s       :     3.087274  s :     3.087274
      pz      :     1.064266  p :     3.151423
      px      :     1.054196
      py      :     1.032961
      dz2     :     0.008818  d :     0.029127
      dxz     :     0.002122
      dyz     :     0.005247
      dx2y2   :     0.007812
      dxy     :     0.005127

  1 C s       :     3.033120  s :     3.033120
      pz      :     1.070266  p :     3.132924
      px      :     1.025740
      py      :     1.036919
      dz2     :     0.009660  d :     0.033671
      dxz     :     0.003383
      dyz     :     0.005210
      dx2y2   :     0.007697
      dxy     :     0.007720

  2 C s       :     3.056918  s :     3.056918
      pz      :     0.853549  p :     2.703392
      px      :     0.992233
      py      :     0.857610
      dz2     :     0.007464  d :     0.131033
      dxz     :     0.009438
      dyz     :     0.028222
      dx2y2   :     0.040167
      dxy     :     0.045742

  3 O s       :     3.736560  s :     3.736560
      pz      :     1.392055  p :     4.440900
      px      :     1.669919
      py      :     1.378926
      dz2     :     0.001998  d :     0.018074
      dxz     :     0.000806
      dyz     :     0.004923
      dx2y2   :     0.005293
      dxy     :     0.005056

  4 O s       :     3.734885  s :     3.734885
      pz      :     1.710444  p :     4.493007
      px      :     1.251831
      py      :     1.530733
      dz2     :     0.002054  d :     0.016401
      dxz     :     0.002084
      dyz     :     0.002578
      dx2y2   :     0.004807
      dxy     :     0.004878

  5 C s       :     3.128412  s :     3.128412
      pz      :     1.101439  p :     2.946019
      px      :     0.743174
      py      :     1.101406
      dz2     :     0.007370  d :     0.052029
      dxz     :     0.013102
      dyz     :     0.006025
      dx2y2   :     0.015801
      dxy     :     0.009731

  6 H s       :     0.887434  s :     0.887434

  7 H s       :     0.897194  s :     0.897194

  8 H s       :     0.893223  s :     0.893223

  9 H s       :     0.877657  s :     0.877657

 10 H s       :     0.886149  s :     0.886149

 11 H s       :     0.871843  s :     0.871843

 12 H s       :     0.879613  s :     0.879613

 13 H s       :     0.881717  s :     0.881717


------------------------
MULLIKEN OVERLAP CHARGES
------------------------
B(  0-C ,  1-C ) :   0.6455 B(  0-C ,  6-H ) :   0.7366 B(  0-C ,  7-H ) :   0.7108 
B(  0-C ,  8-H ) :   0.7830 B(  1-C ,  2-C ) :   0.5724 B(  1-C ,  3-O ) :  -0.1943 
B(  1-C ,  4-O ) :  -0.3176 B(  1-C ,  8-H ) :  -0.0665 B(  1-C ,  9-H ) :   0.6332 
B(  1-C , 10-H ) :   0.6544 B(  2-C ,  3-O ) :   1.4010 B(  2-C ,  4-O ) :   0.7509 
B(  2-C ,  5-C ) :  -0.0754 B(  3-O ,  4-O ) :  -0.1693 B(  3-O , 11-H ) :   0.0633 
B(  4-O ,  5-C ) :   0.5585 B(  4-O , 11-H ) :  -0.0655 B(  4-O , 12-H ) :  -0.0553 
B(  4-O , 13-H ) :  -0.0574 B(  5-C , 11-H ) :   0.7404 B(  5-C , 12-H ) :   0.7626 
B(  5-C , 13-H ) :   0.7807 B( 11-H , 13-H ) :  -0.0589 B( 12-H , 13-H ) :  -0.0569 



                     *******************************
                     * LOEWDIN POPULATION ANALYSIS *
                     *******************************

----------------------
LOEWDIN ATOMIC CHARGES
----------------------
   0 C :   -0.342239
   1 C :   -0.254946
   2 C :    0.033520
   3 O :   -0.159101
   4 O :   -0.074445
   5 C :   -0.210250
   6 H :    0.123070
   7 H :    0.120934
   8 H :    0.121477
   9 H :    0.144320
  10 H :    0.138633
  11 H :    0.121786
  12 H :    0.119385
  13 H :    0.117856

-------------------------------
LOEWDIN REDUCED ORBITAL CHARGES
-------------------------------
  0 C s       :     2.943557  s :     2.943557
      pz      :     1.123785  p :     3.327566
      px      :     1.120027
      py      :     1.083754
      dz2     :     0.021139  d :     0.071116
      dxz     :     0.005145
      dyz     :     0.012835
      dx2y2   :     0.019201
      dxy     :     0.012796

  1 C s       :     2.914209  s :     2.914209
      pz      :     1.106586  p :     3.255998
      px      :     1.060742
      py      :     1.088671
      dz2     :     0.023038  d :     0.084739
      dxz     :     0.008163
      dyz     :     0.012696
      dx2y2   :     0.021538
      dxy     :     0.019303

  2 C s       :     2.848611  s :     2.848611
      pz      :     0.836445  p :     2.820290
      px      :     1.005664
      py      :     0.978181
      dz2     :     0.018033  d :     0.297579
      dxz     :     0.016002
      dyz     :     0.056332
      dx2y2   :     0.098153
      dxy     :     0.109060

  3 O s       :     3.543363  s :     3.543363
      pz      :     1.391617  p :     4.583896
      px      :     1.691024
      py      :     1.501255
      dz2     :     0.004434  d :     0.031842
      dxz     :     0.001022
      dyz     :     0.006337
      dx2y2   :     0.010214
      dxy     :     0.009834

  4 O s       :     3.450774  s :     3.450774
      pz      :     1.690548  p :     4.590440
      px      :     1.313922
      py      :     1.585971
      dz2     :     0.004236  d :     0.033231
      dxz     :     0.003989
      dyz     :     0.003370
      dx2y2   :     0.010343
      dxy     :     0.011293

  5 C s       :     2.963295  s :     2.963295
      pz      :     1.149487  p :     3.131658
      px      :     0.826990
      py      :     1.155180
      dz2     :     0.016194  d :     0.115298
      dxz     :     0.028990
      dyz     :     0.014668
      dx2y2   :     0.035294
      dxy     :     0.020152

  6 H s       :     0.876930  s :     0.876930

  7 H s       :     0.879066  s :     0.879066

  8 H s       :     0.878523  s :     0.878523

  9 H s       :     0.855680  s :     0.855680

 10 H s       :     0.861367  s :     0.861367

 11 H s       :     0.878214  s :     0.878214

 12 H s       :     0.880615  s :     0.880615

 13 H s       :     0.882144  s :     0.882144


---------------------------------
LOEWDIN BOND ORDERS (THRESH 0.050000)
---------------------------------
B(  0-C ,  1-C ) :   1.1262 B(  0-C ,  2-C ) :   0.0573 B(  0-C ,  6-H ) :   0.9393 
B(  0-C ,  7-H ) :   0.9358 B(  0-C ,  8-H ) :   0.9418 B(  1-C ,  2-C ) :   1.0621 
B(  1-C ,  3-O ) :   0.0981 B(  1-C ,  4-O ) :   0.0648 B(  1-C ,  9-H ) :   0.8835 
B(  1-C , 10-H ) :   0.8936 B(  2-C ,  3-O ) :   2.2312 B(  2-C ,  4-O ) :   1.3792 
B(  2-C ,  5-C ) :   0.0777 B(  3-O ,  4-O ) :   0.2098 B(  4-O ,  5-C ) :   1.1186 
B(  5-C , 11-H ) :   0.9357 B(  5-C , 12-H ) :   0.9520 B(  5-C , 13-H ) :   0.9490 


------------------------------------------
LOEWDIN REDUCED ORBITAL POPULATIONS PER MO
-------------------------------------------
THRESHOLD FOR PRINTING IS 0.1%%
                      0         1         2         3         4         5   
                 -18.80091 -18.73339 -10.00421  -9.93881  -9.89951  -9.88101
                   2.00000   2.00000   2.00000   2.00000   2.00000   2.00000
                  --------  --------  --------  --------  --------  --------
 0 C  s               0.0       0.0       0.0       0.0       0.0      99.7
 1 C  s               0.0       0.0       0.0       0.0      99.6       0.0
 2 C  s               0.0       0.0      99.3       0.0       0.0       0.0
 2 C  px              0.0       0.0       0.0       0.0       0.1       0.0
 3 O  s               0.0      99.9       0.0       0.0       0.0       0.0
 3 O  py              0.0       0.0       0.3       0.0       0.0       0.0
 4 O  s              99.9       0.0       0.0       0.0       0.0       0.0
 4 O  px              0.0       0.0       0.1       0.1       0.0       0.0
 4 O  py              0.0       0.0       0.1       0.0       0.0       0.0
 5 C  s               0.0       0.0       0.0      99.7       0.0       0.0

                      6         7         8         9        10        11   
                  -1.00636  -0.91371  -0.71482  -0.65129  -0.57603  -0.50852
                   2.00000   2.00000   2.00000   2.00000   2.00000   2.00000
                  --------  --------  --------  --------  --------  --------
 0 C  s               0.1       0.0      15.4       9.7      21.0       0.3
 0 C  pz              0.0       0.0       0.4       0.0       0.7       0.2
 0 C  px              0.1       0.0       0.4       0.1       0.5       0.2
 0 C  py              0.1       0.0       2.3       0.2       3.7       0.7
 1 C  s               0.9       0.2      25.8       4.5       9.0       1.7
 1 C  pz              0.0       0.0       0.2       0.1       1.5       0.4
 1 C  px              1.7       0.2       0.2       2.2       2.3       2.8
 1 C  py              0.0       0.3       1.1       0.5       8.7       1.3
 1 C  dx2y2           0.0       0.0       0.0       0.1       0.2       0.0
 2 C  s              18.4       5.2       4.6       2.1       2.4       2.9
 2 C  pz              0.1       0.2       0.0       0.1       0.4       0.2
 2 C  px              4.5       0.1       8.6       1.2       8.9       0.8
 2 C  py              0.5      23.9       3.4       3.8       0.1       3.7
 2 C  dz2             0.6       0.1       0.0       0.0       0.0       0.0
 2 C  dx2y2           0.3       0.3       0.1       0.1       0.2       0.0
 2 C  dxy             0.1       1.5       0.0       0.2       0.0       0.0
 3 O  s              11.7      41.0       1.4       0.3       1.3       1.0
 3 O  px              0.2       0.9       0.2       0.0       1.0       0.4
 3 O  py              2.7       3.6       0.1       0.2       0.1       1.3
 4 O  s              41.0      16.1       0.1       1.0       0.6       5.1
 4 O  pz              0.0       0.0       0.1       0.4       0.0       0.3
 4 O  px              0.0       0.5       7.9      17.4       0.0      12.2
 4 O  py              3.1       0.2       0.4       2.8       0.0      12.0
 4 O  dx2y2           0.0       0.0       0.0       0.2       0.0       0.0
 4 O  dxy             0.0       0.0       0.1       0.1       0.0       0.1
 5 C  s               4.9       2.4       5.4      24.8       3.2       6.9
 5 C  px              5.7       1.7       0.3       0.4       1.0      17.7
 5 C  py              0.0       0.2       0.0       0.2       0.0       4.5
 5 C  dz2             0.1       0.1       0.0       0.0       0.0       0.2
 5 C  dx2y2           0.4       0.2       0.0       0.0       0.0       0.6
 5 C  dxy             0.0       0.0       0.0       0.0       0.0       0.2
 6 H  s               0.1       0.0       2.9       1.8       7.1       0.3
 7 H  s               0.0       0.0       2.7       2.5       7.5       0.0
 8 H  s               0.0       0.0       2.9       2.0       7.2       0.3
 9 H  s               0.1       0.0       4.9       1.1       3.8       1.6
10 H  s               0.1       0.1       4.5       1.3       3.5       2.2
11 H  s               0.8       0.1       1.0       5.3       0.9       9.1
12 H  s               0.5       0.3       1.1       7.0       1.3       2.6
13 H  s               0.5       0.3       1.0       6.1       1.3       5.8

                     12        13        14        15        16        17   
                  -0.44805  -0.44133  -0.41015  -0.39836  -0.37518  -0.35195
                   2.00000   2.00000   2.00000   2.00000   2.00000   2.00000
                  --------  --------  --------  --------  --------  --------
 0 C  s               0.0       0.1       0.2       0.2       0.0       0.0
 0 C  pz              2.6       1.7      10.0       2.9       0.0      14.7
 0 C  px              4.1       0.4       0.7       0.0      18.1       5.3
 0 C  py              1.5       2.9       0.0       7.8       0.3       2.5
 0 C  dx2y2           0.0       0.0       0.0       0.0       0.1       0.2
 1 C  s               1.4       0.3       0.2       0.2       0.2       0.2
 1 C  pz              4.5       7.7       9.4       9.6       0.1       0.8
 1 C  px             13.2       2.8       0.8       3.6       6.8       0.8
 1 C  py              0.0       1.6       5.0       0.1       1.4       9.7
 1 C  dz2             0.1       0.0       0.1       0.0       0.0       0.0
 1 C  dx2y2           0.1       0.0       0.0       0.0       0.0       0.2
 1 C  dxy             0.0       0.0       0.0       0.1       0.0       0.0
 2 C  s               1.0       0.0       1.9       2.1       0.5       0.1
 2 C  pz              1.8      16.5       0.0       1.0       0.1      11.7
 2 C  px             10.7       0.3       0.6       0.2       3.8       1.2
 2 C  py              0.3       0.3       1.9       2.7       0.1       1.4
 2 C  dyz             0.0       0.0       0.0       0.0       0.0       0.1
 2 C  dx2y2           0.2       0.1       0.2       0.1       0.2       0.0
 2 C  dxy             0.1       0.0       0.1       0.0       0.1       0.2
 3 O  s               0.1       0.2       7.3       8.8       1.3       1.0
 3 O  pz              0.3       5.8       0.0       0.2       0.1      12.7
 3 O  px              4.7       0.1       4.8       4.3       0.5       0.1
 3 O  py              0.7       0.2      11.1      17.7       6.2       5.8
 3 O  dyz             0.0       0.1       0.0       0.0       0.0       0.1
 3 O  dxy             0.1       0.0       0.1       0.1       0.0       0.0
 4 O  s               0.9       0.2       0.5       0.8       0.2       0.2
 4 O  pz              3.6      19.5       4.1       2.5       0.1       0.9
 4 O  px              2.1       0.1       5.3       4.4       4.3       0.1
 4 O  py             13.0       4.2       1.4       1.7       0.1       0.0
 4 O  dxy             0.0       0.0       0.0       0.0       0.1       0.0
 5 C  s               0.1       0.0       0.1       0.1       0.1       0.0
 5 C  pz              3.0      13.7      12.6       8.3       1.1       7.6
 5 C  px              0.6       1.0       1.1       2.8       4.5       0.1
 5 C  py             11.4       3.3       0.2       0.3      19.6       3.0
 5 C  dz2             0.0       0.1       0.0       0.1       0.0       0.1
 5 C  dyz             0.1       0.0       0.0       0.0       0.3       0.0
 5 C  dx2y2           0.0       0.0       0.1       0.0       0.0       0.0
 5 C  dxy             0.0       0.0       0.0       0.0       0.1       0.0
 6 H  s               0.7       2.2       0.8       3.7       2.3       1.3
 7 H  s               0.8       0.0       0.2       0.4       8.2       2.5
 8 H  s               1.7       0.3       4.0       0.5       0.6       6.0
 9 H  s               5.7       1.1       5.2       2.1       0.1       0.1
10 H  s               1.4       4.2       1.6       4.2       1.3       0.7
11 H  s               1.0       2.9       1.4       0.5       4.8       3.9
12 H  s               5.9       0.0       3.7       0.1      12.0       0.1
13 H  s               0.2       5.8       2.9       5.3       0.0       4.1

                     18        19        20        21        22        23   
                  -0.34339  -0.32181  -0.30703  -0.29910  -0.25779  -0.21834
                   2.00000   2.00000   2.00000   2.00000   2.00000   2.00000
                  --------  --------  --------  --------  --------  --------
 0 C  s               0.1       0.1       0.0       0.0       0.0       0.2
 0 C  pz              4.6       3.7      11.6       2.4       0.4       0.0
 0 C  px             10.9      12.6       1.4       0.2       0.0       1.1
 0 C  py             13.7      13.9       0.4       3.5       0.0       0.8
 0 C  dz2             0.2       0.2       0.3       0.1       0.0       0.0
 0 C  dyz             0.1       0.1       0.1       0.1       0.0       0.0
 0 C  dx2y2           0.2       0.1       0.1       0.0       0.0       0.0
 0 C  dxy             0.0       0.4       0.1       0.0       0.0       0.1
 1 C  s               0.4       0.1       0.0       0.1       0.0       0.7
 1 C  pz              0.7       3.3      13.8       2.8       0.2       0.3
 1 C  px              0.5       5.6       2.4       1.6       0.1       5.4
 1 C  py              8.5      12.4       1.1       1.3       0.0       1.1
 1 C  dz2             0.0       0.2       0.5       0.1       0.0       0.0
 1 C  dxz             0.1       0.0       0.1       0.0       0.0       0.0
 1 C  dyz             0.2       0.1       0.1       0.1       0.0       0.0
 1 C  dx2y2           0.1       0.1       0.1       0.0       0.0       0.1
 1 C  dxy             0.0       0.6       0.1       0.0       0.0       0.0
 2 C  s               0.1       0.7       0.2       0.4       0.0       0.5
 2 C  pz              5.9       0.5       2.8       0.0       0.5       0.0
 2 C  px              3.6       4.3       0.3       0.2       0.0       0.8
 2 C  py              0.5       0.1       0.6       4.9       0.0       0.6
 2 C  dxz             0.1       0.0       0.4       0.0       0.0       0.0
 2 C  dyz             0.1       0.0       0.0       0.0       2.5       0.0
 2 C  dx2y2           0.1       0.0       0.1       0.9       0.0       2.0
 2 C  dxy             0.3       0.1       0.0       0.2       0.0       2.6
 3 O  s               0.2       0.1       0.3       1.2       0.0       0.0
 3 O  pz              7.4       0.9       6.3       0.2      35.3       0.3
 3 O  px              2.5       0.9       0.2       2.6       0.0      61.2
 3 O  py              5.2       1.1       2.0       7.4       0.0       9.4
 4 O  s               0.7       0.1       0.8       4.0       0.0       0.3
 4 O  pz              1.1       0.2       4.5       1.0      45.2       0.8
 4 O  px              1.0       1.3       1.1       7.2       0.5       0.1
 4 O  py              0.6       0.1       4.8      26.2       0.9       7.5
 5 C  s               0.0       0.1       0.0       0.2       0.0       0.2
 5 C  pz              3.7       0.2       2.7       0.2       3.9       0.3
 5 C  px              0.2       1.0       0.3       2.1       0.1       0.7
 5 C  py              2.7       0.7       2.6       8.7       0.0       0.2
 5 C  dxz             0.1       0.0       0.1       0.1       1.0       0.0
 5 C  dyz             0.1       0.0       0.0       0.2       0.0       0.0
 5 C  dx2y2           0.0       0.0       0.1       0.1       0.1       0.0
 5 C  dxy             0.0       0.0       0.1       0.5       0.0       0.0
 6 H  s               2.6       8.2       6.4       3.2       0.1       0.0
 7 H  s               9.6       8.0       0.2       0.0       0.0       1.3
 8 H  s               4.1       4.9       7.5       1.5       0.2       0.2
 9 H  s               0.0       4.6       9.7       2.3       0.1       0.2
10 H  s               0.8       7.2       8.4       1.3       0.1       0.1
11 H  s               0.5       0.4       3.4       5.7       1.8       0.4
12 H  s               3.4       0.3       0.0       4.2       1.2       0.1
13 H  s               2.5       0.5       1.6       0.6       5.6       0.0

                     24        25        26        27        28        29   
                  -0.01773   0.04079   0.06103   0.08865   0.09822   0.09987
                   0.00000   0.00000   0.00000   0.00000   0.00000   0.00000
                  --------  --------  --------  --------  --------  --------
 0 C  s               0.6      10.8       1.7       8.3       1.9       2.9
 0 C  pz              0.0       0.3       0.0       3.0       5.1       0.0
 0 C  px              0.0       0.3       0.6       0.2       2.0       2.5
 0 C  py              0.3       1.6       0.0       0.3       3.2       0.7
 0 C  dz2             0.0       0.0       0.0       0.2       0.4       0.0
 0 C  dyz             0.0       0.1       0.0       0.5       0.2       0.1
 0 C  dx2y2           0.0       0.1       0.1       0.1       0.5       0.0
 0 C  dxy             0.0       0.0       0.0       0.0       0.1       0.1
 1 C  s               0.1       8.4       1.2       6.7       1.6       0.2
 1 C  pz              0.4       0.8       0.0       6.1       5.8       0.9
 1 C  px              0.0       0.4       0.4       1.8       2.4       2.5
 1 C  py              0.0       1.9       0.7       0.2       3.0       0.2
 1 C  dz2             0.4       0.0       0.0       0.3       0.3       0.2
 1 C  dxz             1.4       0.0       0.0       0.0       0.0       0.0
 1 C  dyz             0.0       0.2       0.0       0.3       0.2       0.0
 1 C  dx2y2           0.0       0.1       0.0       0.1       0.5       0.2
 1 C  dxy             0.0       0.1       0.2       0.0       0.1       0.0
 2 C  s               0.0       1.9       0.2       0.2       0.0       2.3
 2 C  pz             46.4       0.4       0.1       0.5       1.0       0.4
 2 C  px              0.5       1.1       0.1       0.2       0.1       0.2
 2 C  py              0.3       0.3       0.8       0.2       0.2       1.2
 2 C  dz2             0.0       0.6       0.0       0.1       0.0       0.6
 2 C  dxz             0.7       0.1       0.0       0.1       0.0       0.0
 2 C  dyz             0.5       0.0       0.0       0.0       0.0       0.0
 2 C  dx2y2           0.0       0.1       0.1       0.0       0.0       0.5
 2 C  dxy             0.0       0.1       0.3       0.0       0.0       0.1
 3 O  s               0.0       0.4       0.3       0.2       0.1       0.2
 3 O  pz             25.5       0.1       0.1       0.1       0.6       0.3
 3 O  px              0.2       0.4       0.2       0.2       0.0       0.4
 3 O  py              0.1       0.1       0.1       0.0       0.2       0.1
 3 O  dyz             0.5       0.0       0.0       0.0       0.0       0.0
 4 O  s               0.0       3.4       0.3       0.3       0.4       8.8
 4 O  pz             10.0       0.1       0.1       0.0       0.1       0.3
 4 O  px              0.1       0.2       0.5       0.4       0.7       7.0
 4 O  py              0.1       0.1       0.1       0.0       0.0       1.0
 4 O  dz2             0.0       0.0       0.1       0.0       0.0       0.2
 4 O  dxz             0.2       0.0       0.0       0.0       0.0       0.1
 4 O  dyz             0.2       0.0       0.0       0.0       0.0       0.0
 4 O  dx2y2           0.0       0.0       0.2       0.0       0.0       0.4
 4 O  dxy             0.0       0.0       0.0       0.0       0.0       0.1
 5 C  s               0.0       1.3      24.0       0.2       1.1       3.3
 5 C  pz              0.1       0.0       0.1       1.6       0.2       0.5
 5 C  px              0.0       7.2       2.4       1.7       1.5      31.5
 5 C  py              0.0       0.1       0.3       1.1       1.2       3.0
 5 C  dz2             0.0       0.2       0.0       0.0       0.1       1.6
 5 C  dxz             0.4       0.1       0.0       0.0       0.0       0.2
 5 C  dyz             0.0       0.0       0.0       0.1       0.1       0.1
 5 C  dx2y2           0.0       0.4       0.0       0.2       0.1       3.7
 6 H  s               0.0       7.5       0.1       2.1      27.5       1.0
 7 H  s               0.3       8.8       4.0       1.7       0.2      11.0
 8 H  s               0.4       8.1       0.3      21.5       2.5       0.6
 9 H  s               6.0      11.9       0.9      31.1       3.2       0.9
10 H  s               2.0      12.0       4.4       1.3      26.7       0.2
11 H  s               0.2       0.9      10.8       0.5       4.6       1.0
12 H  s               0.2       2.6      21.8       3.9       0.1       5.3
13 H  s               1.3       4.5      22.5       2.2       0.0       1.5

                     30        31        32        33        34        35   
                   0.10452   0.11431   0.12051   0.14113   0.18494   0.21145
                   0.00000   0.00000   0.00000   0.00000   0.00000   0.00000
                  --------  --------  --------  --------  --------  --------
 0 C  s               2.6       0.5       0.3       0.1       2.0       0.1
 0 C  pz              1.1       2.2       2.7      10.6       2.9       0.5
 0 C  px              2.7      11.4       2.9       3.2       3.0       0.6
 0 C  py              0.2       0.9       0.2       1.2      27.6       0.5
 0 C  dz2             0.2       0.5       0.3       0.0       0.5       0.0
 0 C  dxz             0.0       0.0       0.0       1.2       0.2       0.2
 0 C  dyz             0.0       0.3       0.0       0.0       2.0       0.1
 0 C  dx2y2           0.4       0.2       0.0       0.0       2.8       0.0
 0 C  dxy             0.0       0.1       0.0       0.0       1.5       1.3
 1 C  s               0.4       2.1       0.3       0.0       3.6       1.8
 1 C  pz              0.0       0.3       0.1       6.1       6.6       1.7
 1 C  px              0.4       0.3       1.0       1.9       1.3      17.4
 1 C  py              0.1       0.0       0.1       4.6      17.6       0.0
 1 C  dz2             0.0       0.0       0.0       0.1       0.5       1.3
 1 C  dxz             0.0       0.1       0.0       0.3       0.0       0.3
 1 C  dyz             0.1       0.0       0.2       0.1       2.3       0.1
 1 C  dx2y2           0.1       0.0       0.1       0.0       2.1       3.6
 1 C  dxy             0.1       0.6       0.1       0.2       1.2       0.3
 2 C  s               0.6       0.6       0.5       0.8       0.6      27.9
 2 C  pz              0.1       0.4       0.4       2.2       0.4       0.0
 2 C  px              0.1       0.2       0.1       0.0       0.1       4.0
 2 C  py              0.0       1.1       0.2       0.1       3.3       0.7
 2 C  dz2             0.1       0.3       0.0       0.1       0.0       6.8
 2 C  dxz             0.0       0.0       0.0       0.2       0.4       0.2
 2 C  dyz             0.0       0.0       0.1       0.0       0.1       0.2
 2 C  dx2y2           0.1       0.0       0.0       0.0       0.3       0.1
 2 C  dxy             0.1       0.1       0.0       0.2       1.4       0.0
 3 O  s               0.0       0.5       0.2       0.1       0.6       1.6
 3 O  pz              0.1       0.1       0.1       1.2       0.1       0.0
 3 O  px              0.1       0.1       0.9       0.0       1.6       1.0
 3 O  py              0.0       0.1       0.0       0.2       0.0       1.7
 3 O  dxy             0.0       0.0       0.0       0.0       0.0       0.2
 4 O  s               0.7       0.1       0.3       0.1       0.1       0.7
 4 O  pz              0.1       0.9       0.6       0.1       0.6       0.1
 4 O  px              2.9       0.3       0.0       0.4       0.6       6.3
 4 O  py              0.1       0.0       0.5       0.1       0.9       2.7
 4 O  dx2y2           0.1       0.0       0.0       0.0       0.0       0.1
 4 O  dxy             0.2       0.0       0.2       0.0       0.2       0.4
 5 C  s               0.4       0.0       0.4       0.1       0.2       0.0
 5 C  pz              8.0       8.9       8.7       0.1       0.2       0.0
 5 C  px              6.7       1.8       0.2       0.7       0.7       3.5
 5 C  py              9.5       0.0      11.4       0.1       0.1       1.1
 5 C  dz2             0.1       0.5       0.2       0.0       0.0       0.2
 5 C  dyz             0.8       0.0       0.5       0.0       0.0       0.0
 5 C  dx2y2           1.0       0.0       0.5       0.1       0.0       0.7
 5 C  dxy             0.2       0.0       0.0       0.0       0.1       0.3
 6 H  s               3.6       2.6       0.6      20.3       2.7       0.8
 7 H  s               1.7      28.3       9.1       1.8       1.5       1.2
 8 H  s               8.7       5.8       5.1      12.8       0.6       1.7
 9 H  s               0.3       3.4       0.4       9.1       2.6       1.6
10 H  s               0.9       1.0       1.4      18.7       1.3       1.2
11 H  s               5.0       2.6      38.0       0.1       0.0       2.3
12 H  s              30.6       2.7       0.5       0.1       0.8       0.4
13 H  s               8.3      17.6      10.2       0.2       0.1       0.3

                     36        37        38        39        40        41   
                   0.25079   0.31141   0.38406   0.39512   0.39959   0.42058
                   0.00000   0.00000   0.00000   0.00000   0.00000   0.00000
                  --------  --------  --------  --------  --------  --------
 0 C  s               0.1       0.4       0.0       1.5       0.0       0.4
 0 C  pz              0.5       0.6       6.8       1.4       9.8       7.4
 0 C  px              0.1       3.9       1.4       2.0       4.6       7.5
 0 C  py              0.6       5.9       0.3       4.3       6.3       3.7
 0 C  dz2             0.2       0.0       3.5       1.0       0.8       3.0
 0 C  dxz             0.1       0.1       0.1       0.0       1.4       0.0
 0 C  dyz             0.0       0.8       0.0       0.4       2.3       1.1
 0 C  dx2y2           0.0       2.4       0.0       0.4       0.8       0.2
 0 C  dxy             0.7       0.0       0.0       0.1       1.3       0.1
 1 C  s               4.0       0.5       0.1       1.1       0.0       1.1
 1 C  pz              0.7       0.3       0.8       2.6       4.0       2.5
 1 C  px             16.6       1.1       0.9       1.7       0.2       4.8
 1 C  py              0.4       2.9       1.1       1.2       0.6       7.4
 1 C  dz2             1.5       0.0       0.7       1.1       2.3       0.8
 1 C  dxz             0.2       0.0       0.2       0.0       0.0       0.1
 1 C  dyz             0.0       0.1       0.7       0.0       0.6       1.7
 1 C  dx2y2           2.3       0.0       0.2       0.3       0.3       0.0
 1 C  dxy             0.2       3.0       0.0       0.3       0.5       0.1
 2 C  s              16.0       1.6       3.9       8.6       7.3       1.4
 2 C  pz              0.2       0.7      16.3       1.3       0.2       4.4
 2 C  px             20.2       7.0       0.5       1.6       1.0       1.3
 2 C  py              2.6      25.9       1.7       1.9       2.3       4.7
 2 C  dz2             2.3       0.0       0.0       0.1       0.1       0.1
 2 C  dxz             0.0       0.0       0.0       0.2       0.1       0.0
 2 C  dyz             0.1       0.0       0.0       0.0       0.0       0.1
 2 C  dx2y2           2.3       0.0       0.0       1.0       0.1       0.0
 2 C  dxy             0.0       3.7       0.0       0.1       0.0       0.0
 3 O  s               4.8       4.4       0.1       0.0       0.1       0.4
 3 O  pz              0.1       0.0       0.2       0.3       0.1       0.6
 3 O  px              1.4       3.1       0.3       0.7       0.0       0.0
 3 O  py              2.5       0.3       0.2       0.5       0.2       0.1
 3 O  dx2y2           0.4       0.3       0.0       0.2       0.1       0.1
 3 O  dxy             0.2       0.2       0.0       0.0       0.0       0.0
 4 O  s               1.0       4.6       0.0       0.1       0.1       0.1
 4 O  pz              0.2       0.0       3.5       0.2       0.3       0.3
 4 O  px              0.8       6.3       0.2       2.0       0.6       1.3
 4 O  py              3.3       1.4       1.1       0.3       0.6       4.8
 4 O  dz2             0.0       0.1       0.5       0.0       0.2       0.3
 4 O  dxz             0.0       0.0       0.0       0.0       0.0       0.4
 4 O  dx2y2           1.2       0.0       0.0       1.3       0.1       0.0
 4 O  dxy             0.0       0.6       0.2       0.8       0.6       0.0
 5 C  s               0.9       0.0       0.3       3.5       0.0       1.4
 5 C  pz              0.3       0.9      17.9       3.1       4.9       9.9
 5 C  px              4.9       2.0       3.1      16.0       0.0       5.8
 5 C  py              0.0       0.7       0.3      11.5       3.8       1.8
 5 C  dz2             0.2       0.0       2.5       0.5       0.5       1.0
 5 C  dxz             0.0       0.0       0.7       0.7       0.1       0.7
 5 C  dyz             0.0       0.4       0.0       2.5       0.5       0.0
 5 C  dx2y2           0.0       0.3       1.2       0.1       1.0       0.5
 5 C  dxy             0.1       0.6       0.0       0.5       0.3       0.0
 6 H  s               0.3       0.0       1.3       1.4      13.4       0.8
 7 H  s               1.1       5.8       1.5       2.3       1.1       2.7
 8 H  s               1.0       0.2       7.6       2.1       5.1       4.1
 9 H  s               1.8       0.0       2.1       2.0       7.5       1.1
10 H  s               0.5       3.8       3.3       0.0       5.2       0.6
11 H  s               0.3       0.1       3.0       4.3       5.3       2.6
12 H  s               0.3       3.0       0.9       4.4       0.2       0.7
13 H  s               0.4       0.0       8.4       4.4       1.1       3.9

                     42        43        44        45        46        47   
                   0.43611   0.45806   0.49621   0.54502   0.57121   0.59649
                   0.00000   0.00000   0.00000   0.00000   0.00000   0.00000
                  --------  --------  --------  --------  --------  --------
 0 C  s               1.6       0.2       0.2       1.5       5.1       2.7
 0 C  pz              5.7       2.7       4.6       0.3       1.5       0.1
 0 C  px              0.5       1.3       5.9       2.9       7.4       0.7
 0 C  py             17.6       0.6       1.8       8.1       5.0       0.3
 0 C  dz2             0.7       0.0       0.0       0.2       0.3       0.2
 0 C  dxz             0.0       0.4       1.5       0.0       0.6       0.4
 0 C  dyz             0.5       0.0       0.1       0.1       0.1       0.1
 0 C  dx2y2           0.0       0.5       0.0       0.8       0.7       0.4
 0 C  dxy             0.3       0.3       0.1       0.4       0.0       0.0
 1 C  s               0.3       2.0       0.8      10.6       1.0       0.1
 1 C  pz              1.7       2.1       0.9       2.2       1.0       1.4
 1 C  px              5.3       5.9      10.4       5.6       2.2      11.2
 1 C  py              9.4       1.5       1.5       1.2       4.2      10.6
 1 C  dz2             0.2       0.4       0.0       0.3       0.4       0.3
 1 C  dxz             0.0       0.1       1.5       0.0       0.2       0.0
 1 C  dyz             1.6       0.8       0.2       0.1       0.3       0.1
 1 C  dx2y2           1.1       0.0       0.1       0.1       0.1       0.0
 1 C  dxy             0.1       0.0       0.2       0.0       0.0       0.3
 2 C  s               2.6       4.3       2.3       9.7       1.5       4.3
 2 C  pz              0.1      13.1      31.5       0.7       9.6       2.3
 2 C  px              3.6       2.7       2.7       3.6       7.3       2.7
 2 C  py              3.2       1.2       3.7       1.1       7.6      18.9
 2 C  dz2             0.3       0.3       0.5       0.2       0.1       0.2
 2 C  dxz             0.0       0.2       0.3       0.2       0.2       0.0
 2 C  dx2y2           0.2       1.0       1.1       0.3       0.0       2.3
 2 C  dxy             0.0       0.3       0.0       0.3       0.2       1.7
 3 O  s               0.1       0.0       0.5       0.1       1.3       1.5
 3 O  pz              0.0       0.3       0.2       0.2       1.4       0.1
 3 O  px              2.0       2.2       0.7       0.7       0.7       1.0
 3 O  py              0.0       0.8       0.2       1.2       1.0       6.7
 3 O  dz2             0.0       0.1       0.1       0.3       0.0       0.9
 3 O  dyz             0.0       0.1       0.1       0.0       0.0       0.0
 3 O  dx2y2           0.0       0.1       0.1       0.0       0.0       2.0
 3 O  dxy             0.0       0.1       0.1       0.3       0.1       1.9
 4 O  s               0.9       0.0       0.1       0.4       0.4       0.1
 4 O  pz              0.4       0.1       0.2       0.1       0.1       0.1
 4 O  px              0.7       0.1       0.0       3.4       1.7       3.5
 4 O  py              1.6       4.8       1.5       0.0       0.9       0.3
 4 O  dz2             0.8       0.0       0.2       0.0       0.2       0.0
 4 O  dyz             0.0       0.0       0.1       0.0       0.1       0.0
 4 O  dx2y2           0.4       0.3       0.1       0.0       0.0       0.0
 4 O  dxy             0.2       0.1       0.0       0.1       0.2       0.1
 5 C  s               4.3       0.4       0.0       2.0       2.2       1.9
 5 C  pz              0.9       1.7       6.0       0.9       4.3       1.9
 5 C  px             22.8       1.2       0.8       6.0       1.7       1.1
 5 C  py              0.0      23.0       3.7       3.1       3.0       0.5
 5 C  dz2             0.0       1.3       0.5       0.1       0.6       0.2
 5 C  dxz             0.1       0.0       0.4       0.0       0.5       0.2
 5 C  dyz             0.3       4.3       1.1       1.3       0.0       0.2
 5 C  dx2y2           0.2       0.1       0.4       0.1       0.0       0.1
 5 C  dxy             0.3       0.0       0.1       0.0       0.9       0.1
 6 H  s               1.1       1.7       1.0       2.1       0.3       3.4
 7 H  s               0.1       1.8       0.3       2.4       8.6       0.2
 8 H  s               2.0       0.3       0.7       1.4       1.4       1.2
 9 H  s               0.0       1.0       0.6       9.0       0.3       0.8
10 H  s               0.0       0.4       2.7       6.5       0.7       0.4
11 H  s               0.3       5.4       0.1       0.3       0.8       0.9
12 H  s               3.6       4.3       3.9       5.6       2.4       6.9
13 H  s               0.0       2.3       1.5       1.9       7.4       0.4

                     48        49        50        51        52        53   
                   0.60874   0.62230   0.62986   0.63438   0.65043   0.65382
                   0.00000   0.00000   0.00000   0.00000   0.00000   0.00000
                  --------  --------  --------  --------  --------  --------
 0 C  s               4.8       0.1       0.6      11.4       1.6       9.0
 0 C  pz              1.0       2.0       7.2       0.2      10.4      16.1
 0 C  px              0.0       0.0       0.9       0.3       0.5       0.4
 0 C  py              5.0       0.9       1.4       4.1       3.0       1.3
 0 C  dz2             0.0       0.0       0.2       0.2       0.3       0.1
 0 C  dxz             0.3       0.2       0.0       0.0       0.0       0.3
 0 C  dyz             0.0       0.0       0.0       0.2       1.0       0.2
 0 C  dx2y2           0.1       0.1       0.0       0.0       0.7       0.6
 0 C  dxy             0.0       0.0       0.4       0.1       0.0       0.4
 1 C  s               0.3       0.2       8.0      14.8       0.2       0.5
 1 C  pz              8.7       2.4       2.3       3.3      23.1       5.8
 1 C  px              1.3       0.0       7.5       8.8       1.6       1.5
 1 C  py              7.6       0.2       1.9       4.1      13.1       8.6
 1 C  dz2             0.0       0.2       0.0       0.4       0.0       1.3
 1 C  dxz             0.0       0.1       0.0       0.0       0.2       0.9
 1 C  dyz             0.1       0.0       0.1       0.1       0.0       0.5
 1 C  dxy             0.1       0.1       0.1       0.0       0.2       0.1
 2 C  s               7.3       1.7       3.3       0.6       0.0       0.8
 2 C  pz              0.4       0.8       0.1       0.7       0.0       1.5
 2 C  px              0.6       0.3       0.1       0.0       0.3       3.4
 2 C  py              9.0       0.5       6.9       1.0       1.1       1.1
 2 C  dz2             0.3       0.0       0.1       0.0       0.1       0.2
 2 C  dxz             0.3       0.2       0.0       0.0       0.0       0.3
 2 C  dx2y2           0.8       0.0       0.2       0.1       0.0       0.1
 2 C  dxy             0.6       0.1       0.6       0.1       0.0       0.0
 3 O  s               1.2       0.2       0.3       0.2       0.0       0.2
 3 O  pz              0.2       0.9       0.1       0.4       0.3       0.5
 3 O  px              0.9       0.3       0.9       0.2       0.1       0.1
 3 O  py              3.7       1.4       2.8       0.4       0.2       0.5
 3 O  dz2             0.8       0.0       0.5       0.0       0.1       0.0
 3 O  dx2y2           0.9       0.1       0.3       0.0       0.0       0.2
 3 O  dxy             1.0       0.1       0.4       0.0       0.1       0.1
 4 O  s               0.6       0.4       0.0       0.0       0.1       0.9
 4 O  pz              0.0       0.0       0.0       0.0       0.2       0.3
 4 O  px              0.3       0.4       0.5       0.3       0.3       0.9
 4 O  py              0.2       0.3       0.1       0.3       0.6       0.1
 4 O  dz2             0.0       0.1       0.0       0.0       0.1       0.0
 4 O  dx2y2           0.1       0.0       0.0       0.0       0.0       0.0
 4 O  dxy             0.3       0.0       0.0       0.0       0.0       0.0
 5 C  s               4.6      45.3       0.1       0.2       0.9       3.0
 5 C  pz              0.1       0.9      15.2       7.9       3.9       0.6
 5 C  px              4.0      14.3       0.2       0.9       0.1       1.4
 5 C  py             12.7       3.4       8.3       5.8       3.1       0.4
 5 C  dz2             0.0       0.3       0.1       0.1       0.1       0.0
 5 C  dxz             0.0       0.2       0.8       0.1       0.1       0.0
 5 C  dyz             0.2       0.2       0.0       0.8       0.0       0.1
 5 C  dx2y2           0.0       0.1       0.5       0.1       0.0       0.5
 5 C  dxy             1.2       0.1       0.2       0.1       0.0       0.1
 6 H  s               0.6       0.1       0.0       3.8       8.5       0.2
 7 H  s               2.9       0.1       1.4       0.0       0.1       1.7
 8 H  s               2.3       0.1       1.6       2.7       3.6       1.5
 9 H  s               0.2       0.2       3.5       8.6       6.4      13.5
10 H  s               0.4       0.4       2.1       3.9       8.9       1.1
11 H  s               2.2       8.5       8.2       4.7       3.7      10.8
12 H  s               8.9       0.1       0.1       2.6       0.1       4.1
13 H  s               0.5      11.3       9.4       5.2       1.0       2.0

                     54        55        56        57        58        59   
                   0.66209   0.66561   0.68033   0.68476   0.69142   0.74471
                   0.00000   0.00000   0.00000   0.00000   0.00000   0.00000
                  --------  --------  --------  --------  --------  --------
 0 C  s              11.2      11.8       1.3       0.3       1.2      17.4
 0 C  pz              3.7       1.6       6.7       2.9      12.9       1.1
 0 C  px              2.4      15.4       3.1      31.0       0.8       1.0
 0 C  py             17.2       0.1       0.9       6.3       2.4       1.6
 0 C  dz2             0.1       0.2       0.1       0.4       1.5       0.0
 0 C  dxz             1.0       0.1       0.5       0.0       1.6       0.6
 0 C  dyz             0.2       0.0       0.1       0.2       0.0       0.1
 0 C  dx2y2           0.1       0.0       0.8       0.3       0.8       0.0
 0 C  dxy             0.0       0.3       0.0       0.3       0.9       0.0
 1 C  s               1.9       1.1       1.4       5.4       0.7       7.3
 1 C  pz              1.7       0.4      13.4       1.6      15.1       0.5
 1 C  px              0.5       3.0       2.0       8.7       0.0       1.3
 1 C  py              8.7       0.5       1.6       1.8       6.8       3.3
 1 C  dz2             0.6       0.2       0.0       0.0       1.3       0.3
 1 C  dxz             0.6       0.0       0.0       0.0       0.5       0.1
 1 C  dyz             0.3       0.3       0.4       0.1       0.7       0.3
 1 C  dx2y2           0.2       0.0       0.1       0.0       0.0       0.1
 1 C  dxy             0.5       0.0       0.0       0.0       0.2       0.0
 2 C  s               0.0       0.5       2.0       2.4       0.7       4.2
[...]
 5 C  dz2             0.0       0.3       0.0       0.7       0.0       0.0
 5 C  dxz             0.2       0.0       0.0       0.0       0.0       0.0
 5 C  dyz             0.4       0.2       0.1       0.5       0.1       0.0
 5 C  dx2y2           0.7       0.2       0.0       1.2       0.3       0.1
 5 C  dxy             0.9       0.8       0.4       1.8       3.0       0.5
 6 H  s               0.4       2.3       3.2       0.3       0.0       0.2
 7 H  s               2.4       4.8       0.2       0.1       0.2       0.3
 8 H  s               3.9       0.8       1.9       0.4       0.0       0.2
 9 H  s               2.8       0.7       1.5       1.3       0.2       0.1
10 H  s               2.5       2.0       1.5       0.2       0.6       0.1
12 H  s               0.1       0.1       0.0       0.2       0.1       0.0

                     90        91        92        93        94        95   
                   2.55627   2.62243   2.71192   2.83068   2.86851   3.06075
                   0.00000   0.00000   0.00000   0.00000   0.00000   0.00000
                  --------  --------  --------  --------  --------  --------
 0 C  dyz             0.2       0.1       0.0       0.0       0.5       0.0
 0 C  dx2y2           0.3       0.0       0.0       0.1       0.8       0.1
 1 C  s               0.0       0.1       0.0       0.0       0.2       0.3
 1 C  px              0.0       0.2       0.0       0.0       0.1       0.2
 1 C  py              0.1       0.1       0.0       0.0       0.0       0.0
 1 C  dz2             0.1       0.7       0.0       0.0       0.5       0.1
 1 C  dxz             0.5       0.0       0.2       0.8       0.2       0.1
 1 C  dyz             0.3       0.1       0.0       0.3       0.0       0.0
 1 C  dx2y2           0.2       0.3       0.0       0.0       0.1       1.2
 1 C  dxy             0.0       0.3       0.0       0.0       5.4       0.4
 2 C  s               0.0       0.0       0.0       0.0       0.3       1.3
 2 C  pz              0.3       0.0       0.1       1.1       0.0       0.1
 2 C  px              0.0       0.3       0.0       0.0       0.1       0.9
 2 C  py              0.0       0.2       0.0       0.0       0.3       2.5
 2 C  dz2             0.0       2.9       0.0       0.7       0.3       2.3
 2 C  dxz             0.2       0.1       0.6      10.3       1.1       0.0
 2 C  dyz             0.2       0.0       0.4       1.1       0.1       0.0
 2 C  dx2y2           0.0       0.2       0.0       0.2       4.3       0.5
 2 C  dxy             0.0       0.0       0.0       0.5       8.0       2.3
 3 O  s               0.0       0.0       0.0       0.0       1.3       0.4
 3 O  pz              0.0       0.0       0.0       0.3       0.0       0.0
 3 O  px              0.0       0.0       0.0       0.0       0.4       0.6
 3 O  py              0.0       0.0       0.0       0.0       0.4       0.2
 3 O  dz2             2.6      57.5       0.0       1.4       5.4       0.0
 3 O  dxz            68.2       2.6       5.2       3.3       0.4       0.0
 3 O  dyz             5.9       1.2       2.1      20.9       0.3       0.5
 3 O  dx2y2           0.6       9.3       0.2       0.0       3.8       6.4
 3 O  dxy             0.3      12.1       0.0       0.1       4.6      17.2
 4 O  s               0.0       0.2       0.0       0.0       0.8       7.3
 4 O  pz              0.2       0.0       0.9       0.5       0.0       0.0
 4 O  px              0.0       0.0       0.0       0.1       2.2       0.1
 4 O  py              0.0       0.7       0.0       0.0       0.6       1.1
 4 O  dz2             0.6       5.1       0.6       0.8      28.2      33.7
 4 O  dxz             0.1       0.0      58.9      11.6       0.0       2.2
 4 O  dyz            17.5       0.1      17.0      42.4       0.1       1.2
 4 O  dx2y2           0.2       1.9       1.1       0.0       1.7       1.6
 4 O  dxy             0.1       1.6       0.0       2.2      20.1      10.7
 5 C  s               0.0       0.1       0.0       0.0       0.8       0.5
 5 C  pz              0.0       0.1       0.4       0.0       0.0       0.0
 5 C  px              0.0       0.1       0.0       0.0       0.9       0.8
 5 C  dz2             0.0       0.0       0.2       0.0       0.9       0.9
 5 C  dxz             0.2       0.1      11.5       0.2       0.3       0.1
 5 C  dyz             0.4       0.3       0.0       0.5       0.0       0.0
 5 C  dx2y2           0.0       0.0       0.1       0.1       2.0       0.9
 5 C  dxy             0.0       0.9       0.0       0.1       2.1       0.9
13 H  s               0.0       0.0       0.1       0.0       0.0       0.0

                     96        97        98        99   
                   3.11685   3.30996   3.48937   3.56249
                   0.00000   0.00000   0.00000   0.00000
                  --------  --------  --------  --------
 1 C  s               0.0       0.1       0.1       0.0
 1 C  px              0.0       0.1       0.4       0.1
 1 C  dxz             0.3       0.0       0.1       0.0
 1 C  dyz             0.2       0.0       0.0       0.0
 1 C  dx2y2           0.0       0.1       1.6       0.1
 1 C  dxy             0.0       0.6       0.4       0.4
 2 C  s               0.0       3.3       0.1       6.6
 2 C  pz              0.5       0.0       0.0       0.0
 2 C  px              0.0       1.5       0.1       1.0
 2 C  py              0.0       0.1       3.5       3.7
 2 C  dz2             0.3       0.3       0.1       1.4
 2 C  dxz             0.8       0.2       0.0       0.0
 2 C  dyz            19.2       0.0       0.4       0.2
 2 C  dx2y2           0.2       6.0       5.3      10.8
 2 C  dxy             0.1       0.3      15.2       0.2
 3 O  s               0.0       1.5       0.9       4.3
 3 O  pz              1.0       0.0       0.0       0.0
 3 O  px              0.0       0.0       0.2       1.1
 3 O  py              0.0       0.8       1.0       2.4
 3 O  dz2             0.2       3.8       1.5      11.4
 3 O  dxz            11.9       0.0       0.0       0.0
 3 O  dyz            48.4       0.4       0.6       0.0
 3 O  dx2y2           0.9      13.5      26.2       8.1
 3 O  dxy             0.3       0.0       2.0      34.9
 4 O  s               0.0       0.1       0.6       0.2
 4 O  px              0.0       1.8       2.3       0.2
 4 O  py              0.0       0.8       1.0       0.1
 4 O  dz2             0.9       0.6       1.9       0.9
 4 O  dxz            10.0       0.5       0.2       0.3
 4 O  dyz             3.4       0.4       0.8       0.0
 4 O  dx2y2           0.0      51.4       3.9       5.2
 4 O  dxy             0.2       2.6      27.3       5.0
 5 C  s               0.0       1.2       0.3       0.0
 5 C  px              0.0       1.8       0.3       0.1
 5 C  dz2             0.0       1.1       0.0       0.1
 5 C  dxz             0.6       0.1       0.0       0.0
 5 C  dyz             0.1       0.0       0.0       0.0
 5 C  dx2y2           0.0       3.8       0.7       0.1
 5 C  dxy             0.0       0.7       0.4       0.5


                      *****************************
                      * MAYER POPULATION ANALYSIS *
                      *****************************

  NA   - Mulliken gross atomic population
  ZA   - Total nuclear charge
  QA   - Mulliken gross atomic charge
  VA   - Mayer's total valence
  BVA  - Mayer's bonded valence
  FA   - Mayer's free valence

  ATOM       NA         ZA         QA         VA         BVA        FA
  0 C      6.2678     6.0000    -0.2678     4.0213     4.0213     0.0000
  1 C      6.1997     6.0000    -0.1997     4.0012     4.0012     0.0000
  2 C      5.8913     6.0000     0.1087     4.3923     4.3923     0.0000
  3 O      8.1955     8.0000    -0.1955     2.3028     2.3028     0.0000
  4 O      8.2443     8.0000    -0.2443     2.2686     2.2686     0.0000
  5 C      6.1265     6.0000    -0.1265     3.8658     3.8658    -0.0000
  6 H      0.8874     1.0000     0.1126     0.9665     0.9665    -0.0000
  7 H      0.8972     1.0000     0.1028     0.9494     0.9494     0.0000
  8 H      0.8932     1.0000     0.1068     0.9560     0.9560     0.0000
  9 H      0.8777     1.0000     0.1223     0.9484     0.9484     0.0000
 10 H      0.8861     1.0000     0.1139     0.9638     0.9638     0.0000
 11 H      0.8718     1.0000     0.1282     0.9865     0.9865    -0.0000
 12 H      0.8796     1.0000     0.1204     0.9555     0.9555    -0.0000
 13 H      0.8817     1.0000     0.1183     0.9543     0.9543    -0.0000

  Mayer bond orders larger than 0.100000
B(  0-C ,  1-C ) :   1.1457 B(  0-C ,  6-H ) :   0.9481 B(  0-C ,  7-H ) :   0.9461 
B(  0-C ,  8-H ) :   0.9610 B(  1-C ,  2-C ) :   1.0319 B(  1-C ,  9-H ) :   0.8999 
B(  1-C , 10-H ) :   0.9147 B(  2-C ,  3-O ) :   2.0795 B(  2-C ,  4-O ) :   1.2007 
B(  4-O ,  5-C ) :   0.9466 B(  5-C , 11-H ) :   0.9367 B(  5-C , 12-H ) :   0.9603 
B(  5-C , 13-H ) :   0.9588 

-------
TIMINGS
-------

Total SCF time: 0 days 0 hours 0 min 0 sec 

Total time                  ....       0.432 sec
Sum of individual times     ....       0.424 sec  ( 98.2%)

SCF preparation             ....       0.030 sec  (  7.0%)
Fock matrix formation       ....       0.351 sec  ( 81.2%)
  Startup                   ....       0.001 sec  (  0.2% of F)
  Split-RI-J                ....       0.151 sec  ( 42.9% of F)
  XC integration            ....       0.198 sec  ( 56.4% of F)
    Basis function eval.    ....       0.082 sec  ( 41.4% of XC)
    Density eval.           ....       0.039 sec  ( 20.0% of XC)
    XC-Functional eval.     ....       0.018 sec  (  9.3% of XC)
    XC-Potential eval.      ....       0.048 sec  ( 24.3% of XC)
Diagonalization             ....       0.000 sec  (  0.0%)
Density matrix formation    ....       0.001 sec  (  0.2%)
Total Energy calculation    ....       0.000 sec  (  0.0%)
Population analysis         ....       0.037 sec  (  8.6%)
Orbital Transformation      ....       0.002 sec  (  0.4%)
Orbital Orthonormalization  ....       0.000 sec  (  0.0%)
DIIS solution               ....       0.001 sec  (  0.3%)
  MO trafo                  ....       0.000 sec  (  0.0 % of DIIS)
  Orb grad                  ....       0.000 sec  (  0.0 % of DIIS)
  Energy W gradient         ....       0.000 sec  (  0.0 % of DIIS)
  DIIS error                ....       0.000 sec  ( 10.0 % of DIIS)
  DIIS work                 ....       0.001 sec  ( 87.7 % of DIIS)
  Form Q                    ....       0.000 sec  (  0.0 % of DIIS)
  Form QpQm                 ....       0.000 sec  (  0.0 % of DIIS)
  Exp/Cayley                ....       0.000 sec  (  0.0 % of DIIS)
  Orb update                ....       0.000 sec  (  0.0 % of DIIS)
  Wake-sleep                ....       0.000 sec  (  2.2 % of DIIS)
SOSCF solution              ....       0.002 sec  (  0.5%)
  MO trafo                  ....       0.001 sec  ( 73.7 % of SOSCF)
  Orb grad                  ....       0.000 sec  (  1.4 % of SOSCF)
  Rot update                ....       0.000 sec  (  0.6 % of SOSCF)
  Step                      ....       0.000 sec  ( 21.8 % of SOSCF)
Finished LeanSCF after   0.4 sec

Maximum memory used throughout the entire LEANSCF-calculation: 9.7 MB


-------------------------------------------------------------------------------
                          DFT DISPERSION CORRECTION                            
                                                                               
                                DFTD4 V3.4.0                                   
-------------------------------------------------------------------------------
The PBE functional is recognized
Active option DFTDOPT                   ...         5   

-------------------------   ----------------
Dispersion correction           -0.009184183
-------------------------   ----------------

------------------   -----------------
gCP correction             0.063825518
------------------   -----------------

-------------------------   --------------------
FINAL SINGLE POINT ENERGY      -307.025784912985
-------------------------   --------------------


------------------------------------------------------------------------------
                              ORCA PROPERTY CALCULATIONS
------------------------------------------------------------------------------

GBWName                                 ... sp.gbw
Number of atoms                         ...     14
Number of basis functions               ...    100
Max core memory                         ...   1024 MB

Electric properties:
Dipole moment                           ... YES
Quadrupole moment                       ...  NO
Static polarizability (Dipole/Dipole)   ...  NO
Static polarizability (Dipole/Quad.)    ...  NO
Static polarizability (Quad./Quad.)     ...  NO
Static polarizability (Velocity)        ...  NO

Atomic electric properties:
Dipole moment                           ...  NO
Quadrupole moment                       ...  NO
Static polarizability                   ...  NO

Choice of electric origin               ... Center of mass
Position of electric origin             ...    -0.000015     0.000018     0.000003

General magnetic properties:
Magnetizability                         ...  NO

EPR properties:
g-Tensor (aka g-matrix)                 ...  NO
Zero-Field splitting spin-orbit         ...  NO
Zero-field splitting spin-spin          ...  NO
Hyperfine couplings                     ...  NO (   0 nuclei)
Quadrupole couplings                    ...  NO (   0 nuclei)
Contact density                         ...  NO (   0 nuclei)

NMR properties:
Chemical shifts                         ...  NO (   0 nuclei)
Spin-rotation constants                 ...  NO (   0 nuclei)
Spin-spin couplings                     ...  NO (   0 nuclei,    0 pairs)

Choice of magnetic origin               ... GIAO
Position of magnetic origin             ...     0.000000     0.000000     0.000000

Properties with geometric perturbations:
SCF Hessian                             ...  NO
IR spectrum                             ...  NO
VCD spectrum                            ...  NO
X-ray spectroscopy properties:
SCF XES/XAS/RIXS spectra                ...  NO


-------------
DIPOLE MOMENT
-------------

Method             : SCF
Type of density    : Electron Density
Multiplicity       :   1
Irrep              :   0
Energy             :  -307.0804262481166802 Eh
Relativity type    : 
Basis              : AO
                                X                 Y                 Z
Electronic contribution:      2.304537592      -3.507732502      -0.744692537
Nuclear contribution   :     -2.270178194       4.208160758       0.777388277
                        -----------------------------------------
Total Dipole Moment    :      0.034359398       0.700428256       0.032695740
                        -----------------------------------------
Magnitude (a.u.)       :      0.702032280
Magnitude (Debye)      :      1.784424245



--------------------
Rotational spectrum 
--------------------
 
Rotational constants in cm-1:             0.200953             0.090968             0.065523 
Rotational constants in MHz :          6024.420597          2727.161878          1964.334104 

Dipole components along the rotational axes: 
x,y,z [a.u.] :    -0.101697     0.687464    -0.099500 
x,y,z [Debye]:    -0.258492     1.747395    -0.252908 

 

Dipole moment calculation done in   0.0 sec 

Maximum memory used throughout the entire PROP-calculation: 6.3 MB

--------------------------------
SUGGESTED CITATIONS FOR THIS RUN
--------------------------------

Below you find a list of papers that are relevant to this ORCA run
We neither can nor want to force you to cite these papers, but we appreciate if you do
You receive ORCA, which is the product of decades of hard work by many enthusiastic individuals, for free
The only thing we kindly ask in return is that you cite our papers,
We deeply appreciate it, if you show your appreciation for ORCA by not just citing the generic ORCA reference.

Please note that relegating all ORCA citations to the supporting information does *not* help us.
SI sections are not indexed - citations you put there will not count into any citation statistics
But we need these citations in order to attract the funding resources that allow us to do what we are doing

Therefore, if you are a happy ORCA user, please consider citing a few of the papers listed below in the main body of your paper

In addition to the list printed below, the program has created the file sp.bibtex that contains the list in bibtex format
You can import this file easily into all common literature databanks and citation aid programs


List of essential papers. We consider these as the minimum necessary citations

  1. Neese,F.
     Software update: the ORCA program system, version 5.0
     WIRES Comput. Molec. Sci., 2022 12(1)e1606
     doi.org/10.1002/wcms.1606

List of papers to cite with high priority. The work reported in these papers was absolutely
necessary for this run to complete.
Our perspective: the developers of density functionals and basis sets usually get cited in chemistry papers
Good! But without the algorithms to do something with them, the functionals or basis sets would not do anything.
Hence, in our opinion, the algorithm design and method developments papers are equally worthy of getting cited

  1. Neese,F.
     An improvement of the resolution of the identity approximation for the formation of the Coulomb matrix
     J. Comp. Chem., 2003 24(14)1740-1747
     doi.org/10.1002/jcc.10318
  2. Neese,F.
     The SHARK Integral Generation and Digestion System
     J. Comp. Chem., 2022  1-16
     doi.org/10.1002/jcc.26942
  3. Caldeweyher,E.; Bannwarth,C.; Grimme,S.
     Extension of the D3 dispersion coefficient model
     J. Chem. Phys., 2017 147 034112
     doi.org/10.1063/1.4993215
  4. Caldeweyher,E.; Ehlert,S.; Hansen,A.; Neugebauer,H.; Spicher,S.; Bannwarth,C.; Grimme,S.
     A generally applicable atomic-charge dependent London dispersion correction
     J. Chem. Phys., 2019 150 154122
     doi.org/10.1063/1.5090222
  5. Caldeweyher,E.; Mewes,J.; Ehlert,S.; Grimme,S.
     Extension and evaluation of the D4 London-dispersion model for periodic systems
     Phys. Chem. Chem. Phys., 2020 22(16)8499-8512
     doi.org/10.1039/D0CP00502A
  6. Wittmann,L.; Gordiy,I.; Friede,M.; Helmich-Paris,B.; Grimme,S.; Hansen,A.; Bursch,M.
     Extension of the D3 and D4 London Dispersion Corrections to the full Actinides Series
     Phys. Chem. Chem. Phys., 2024 26(32)21379-21394
     doi.org/https://doi.org/10.1039/D4CP01514B 

List of suggested additional citations. These are papers that are important in the 'surrounding' of 
of this run, or papers that preceded the highly important papers. If you like your results we are grateful for a citation.

  1. Neese,F.
     The ORCA program system
     WIRES Comput. Molec. Sci., 2012 2(1)73-78
     doi.org/10.1002/wcms.81
  2. Neese,F.
     Software update: the ORCA program system, version 4.0
     WIRES Comput. Molec. Sci., 2018 8(1)1-6
     doi.org/10.1002/wcms.1327
  3. Neese,F.; Wennmohs,F.; Becker,U.; Riplinger,C.
     The ORCA quantum chemistry program package
     J. Chem. Phys., 2020 152 Art. No. L224108
     doi.org/10.1063/5.0004608

List of optional additional citations

  1. Neese,F.
     Approximate second-order SCF convergence for spin unrestricted wavefunctions
     Chem. Phys. Lett., 2000 325(1-3)93-98
     doi.org/10.1016/s0009-2614(00)00662-x

Timings for individual modules:

Sum of individual times          ...        0.768 sec (=   0.013 min)
Startup calculation              ...        0.229 sec (=   0.004 min)  29.7 %
SCF iterations                   ...        0.500 sec (=   0.008 min)  65.1 %
Property calculations            ...        0.040 sec (=   0.001 min)   5.2 %
                             ****ORCA TERMINATED NORMALLY****
TOTAL RUN TIME: 0 days 0 hours 0 minutes 0 seconds 873 msec
