      -----------------------------------------------------------      
     |                   =====================                   |     
     |                           x T B                           |     
     |                   =====================                   |     
     |                         S. Grimme                         |     
     |          Mulliken Center for Theoretical Chemistry        |     
     |                    University of Bonn                     |     
      -----------------------------------------------------------      

   * xtb version 6.7.1 (41059b4) compiled by 'michael@archlinux' on 2025-03-24

   xtb is free software: you can redistribute it and/or modify it under
   the terms of the GNU Lesser General Public License as published by
   the Free Software Foundation, either version 3 of the License, or
   (at your option) any later version.
   
   xtb is distributed in the hope that it will be useful,
   but WITHOUT ANY WARRANTY; without even the implied warranty of
   MERCHANTABILITY or FITNESS FOR A PARTICULAR PURPOSE.  See the
   GNU Lesser General Public License for more details.
   
   Cite this work as:
   * C. Bannwarth, E. Caldeweyher, S. Ehlert, A. Hansen, P. Pracht,
     J. Seibert, S. Spicher, S. Grimme, WIREs Comput. Mol. Sci., 2020, 11,
     e01493. DOI: 10.1002/wcms.1493
   
   for GFN2-xTB:
   * C. Bannwarth, S. Ehlert and S. Grimme., J. Chem. Theory Comput., 2019,
     15, 1652-1671. DOI: 10.1021/acs.jctc.8b01176
   for GFN1-xTB:
   * S. Grimme, C. Bannwarth, P. Shushkov, J. Chem. Theory Comput., 2017,
     13, 1989-2009. DOI: 10.1021/acs.jctc.7b00118
   for GFN0-xTB:
   * P. Pracht, E. Caldeweyher, S. Ehlert, S. Grimme, ChemRxiv, 2019, preprint.
     DOI: 10.26434/chemrxiv.8326202.v1
   for GFN-FF:
   * S. Spicher and S. Grimme, Angew. Chem. Int. Ed., 2020, 59, 15665-15673.
     DOI: 10.1002/anie.202004239
   
   for ALPB and GBSA implicit solvation:
   * S. Ehlert, M. Stahn, S. Spicher, S. Grimme, J. Chem. Theory Comput.,
     2021, 17, 4250-4261. DOI: 10.1021/acs.jctc.1c00471
   
   for ddCOSMO and CPCM-X implicit solvation:
   * M. Stahn, S. Ehlert, S. Grimme, J. Phys. Chem. A,
     2023, XX, XXXX-XXXX. DOI: 10.1021/acs.jpca.3c04382
   
   for DFT-D4:
   * E. Caldeweyher, C. Bannwarth and S. Grimme, J. Chem. Phys., 2017,
     147, 034112. DOI: 10.1063/1.4993215
   * E. Caldeweyher, S. Ehlert, A. Hansen, H. Neugebauer, S. Spicher,
     C. Bannwarth and S. Grimme, J. Chem. Phys., 2019, 150, 154122.
     DOI: 10.1063/1.5090222
   * E. Caldeweyher, J.-M. Mewes, S. Ehlert and S. Grimme, Phys. Chem. Chem. Phys.
     2020, 22, 8499-8512. DOI: 10.1039/D0CP00502A
   
   for sTDA-xTB:
   * S. Grimme and C. Bannwarth, J. Chem. Phys., 2016, 145, 054103.
     DOI: 10.1063/1.4959605
   
   in the mass-spec context:
   * V. Asgeirsson, C. Bauer and S. Grimme, Chem. Sci., 2017, 8, 4879.
     DOI: 10.1039/c7sc00601b
   * J. Koopman and S. Grimme, ACS Omega 2019, 4, 12, 15120-15133.
     DOI: 10.1021/acsomega.9b02011
   
   for metadynamics refer to:
   * S. Grimme, J. Chem. Theory Comput., 2019, 155, 2847-2862
     DOI: 10.1021/acs.jctc.9b00143
   
   for SPH calculations refer to:
   * S. Spicher and S. Grimme, J. Chem. Theory Comput., 2021, 17, 1701-1714
     DOI: 10.1021/acs.jctc.0c01306
   
   for ONIOM refer to:
   * C. Plett, A. Katbashev, S. Ehlert, S. Grimme, M. Bursch,
     Phys. Chem. Chem. Phys., 2023, 25, 17860-17868. DOI: 10.1039/D3CP02178E
   
   for DIPRO refer to:
   * J. Kohn, N. Gildemeister, S. Grimme, D. Fazzi, A. Hansen,
     J. Chem. Phys., 2023, just accepted.
   
   for PTB refer to:
   * S. Grimme, M. Mueller, A. Hansen, J. Chem. Phys., 2023, 158, 124111.
     DOI: 10.1063/5.0137838
   
   with help from (in alphabetical order)
   P. Atkinson, C. Bannwarth, F. Bohle, G. Brandenburg, E. Caldeweyher
   M. Checinski, S. Dohm, S. Ehlert, S. Ehrlich, I. Gerasimov, C. Hölzer
   A. Katbashev, J. Kohn, J. Koopman, C. Lavigne, S. Lehtola, F. März, M. Müller,
   F. Musil, H. Neugebauer, J. Pisarek, C. Plett, P. Pracht, F. Pultar,
   J. Seibert, P. Shushkov, S. Spicher, M. Stahn, M. Steiner, T. Strunk,
   J. Stückrath, T. Rose, and J. Unsleber
   
 * started run on 2025/04/08 at 22:26:49.993     
   ID    Z sym.   atoms
    1    6 C      1-3, 6
    2    8 O      4, 5
    3    1 H      7-14

           -------------------------------------------------
          |                Calculation Setup                |
           -------------------------------------------------

          program call               : /usr/bin/xtb xtb_opt.coord --opt normal --orca -I xtb_opt-xcontrol-inp
          coordinate file            : xtb_opt.coord
          omp threads                :                    16

           -------------------------------------------------
          |                   Orca driver                   |
           -------------------------------------------------
orca executable           : /home/michael/Documents/CHEM4561/orca_avx2/orca
orca input file           : xtb_opt.inp
orca input line           : 
orca parallel             : true
orca number of threads    : 16
                         * ORCA takes the control...
  ------------------------------------------------------------------------

                                 *****************
                                 * O   R   C   A *
                                 *****************

                                            #,                                       
                                            ###                                      
                                            ####                                     
                                            #####                                    
                                            ######                                   
                                           ########,                                 
                                     ,,################,,,,,                         
                               ,,#################################,,                 
                          ,,##########################################,,             
                       ,#########################################, ''#####,          
                    ,#############################################,,   '####,        
                  ,##################################################,,,,####,       
                ,###########''''           ''''###############################       
              ,#####''   ,,,,##########,,,,          '''####'''          '####       
            ,##' ,,,,###########################,,,                        '##       
           ' ,,###''''                  '''############,,,                           
         ,,##''                                '''############,,,,        ,,,,,,###''
      ,#''                                            '''#######################'''  
     '                                                          ''''####''''         
             ,#######,   #######,   ,#######,      ##                                
            ,#'     '#,  ##    ##  ,#'     '#,    #''#        ,####,   ,####,        
            ##       ##  ##   ,#'  ##            #'  '#       #'       #'  '#        
            ##       ##  #######   ##           ,######,      #####,   #    #        
            '#,     ,#'  ##    ##  '#,     ,#' ,#      #,     #,   #   #,  ,#        
             '#######'   ##     ##  '#######'  #'      '#     '####' # '####'        



                #########################################################
                #                        -***-                          #
                #          Department of theory and spectroscopy        #
                #                                                       #
                #                      Frank Neese                      #
                #                                                       #
                #     Directorship, Architecture, Infrastructure        #
                #                    SHARK, DRIVERS                     #
                #        Core code/Algorithms in most modules           #
                #                                                       #
                #        Max Planck Institute fuer Kohlenforschung      #
                #                Kaiser Wilhelm Platz 1                 #
                #                 D-45470 Muelheim/Ruhr                 #
                #                      Germany                          #
                #                                                       #
                #                  All rights reserved                  #
                #                        -***-                          #
                #########################################################


                         Program Version 6.0.1  -  RELEASE   -


 With contributions from (in alphabetic order):
[Max-Planck-Institut fuer Kohlenforschung]                               
  Daniel Aravena         : Magnetic Suceptibility                        
  Michael Atanasov       : Ab Initio Ligand Field Theory (pilot matlab implementation)
  Alexander A. Auer      : GIAO ZORA, VPT2 properties, NMR spectrum      
  Ute Becker             : All parallelization in ORCA, NUMFREQ, NUMCALC 
  Giovanni Bistoni       : ED, misc. LED, open-shell LED, HFLD           
  Martin Brehm           : Molecular dynamics                            
  Dmytro Bykov           : pre 5.0 version of the SCF Hessian            
  Marcos Casanova-Páez   : Triplet and SCS-CIS(D). UHF-(DLPNO)-IP/EA/STEOM-CCSD. UHF-CVS-IP/STEOM-CCSD   
  Vijay G. Chilkuri      : MRCI spin determinant printing, contributions to CSF-ICE 
  Pauline Colinet        : FMM embedding                                 
  Dipayan Datta          : RHF DLPNO-CCSD density                        
  Achintya Kumar Dutta   : EOM-CC, STEOM-CC                              
  Nicolas Foglia         : Exact transition moments, OPA infrastructure, MCD improvements    
  Dmitry Ganyushin       : Spin-Orbit,Spin-Spin,Magnetic field MRCI      
  Miquel Garcia-Rates    : C-PCM and meta-GGA Hessian, CCSD/C-PCM, Gaussian charge scheme 
  Tiago L. C. Gouveia    : GS-ROHF, GS-ROCIS                             
  Yang Guo               : DLPNO-NEVPT2, F12-NEVPT2, CIM, IAO-localization        
  Andreas Hansen         : Spin unrestricted coupled pair/coupled cluster methods 
  Ingolf Harden          : AUTO-CI MPn and infrastructure                
  Benjamin Helmich-Paris : MC-RPA, TRAH-(SCF,CASSCF), AVAS, COSX integrals, SCF dyn. polar. 
  Lee Huntington         : MR-EOM, pCC                                   
  Robert Izsak           : Overlap fitted RIJCOSX, COSX-SCS-MP3, EOM     
  Riya Kayal             : Wick's Theorem for AUTO-CI, AUTO-CI UHF-CCSDT 
  Emily Kempfer          : AUTO-CI, RHF CISDT and CCSDT                  
  Christian Kollmar      : KDIIS, OOCD, Brueckner-CCSD(T), CCSD density, CASPT2, CASPT2-K, improved NEVPT2 
  Axel Koslowski         : Symmetry handling                             
  Simone Kossmann        : meta-GGA functionals, TD-DFT gradient, OOMP2, (MP2 Hessian; deprecated post 5.0) 
  Lucas Lang             : DCDCAS                                        
  Marvin Lechner         : AUTO-CI (C++ implementation), FIC-MRCC        
  Spencer Leger          : CASSCF response                               
  Dagmar Lenk            : GEPOL surface, SMD, ORCA-2-JSON               
  Dimitrios Liakos       : Extrapolation schemes; Compound Job, initial MDCI parallelization 
  Dimitrios Manganas     : Further ROCIS development; embedding schemes. LFT, Crystal Embedding 
  Dimitrios Pantazis     : SARC Basis sets                               
  Anastasios Papadopoulos: AUTO-CI, single reference methods and gradients 
  Taras Petrenko         : pre 6.0 DFT Hessian and TD-DFT gradient, (ASA, deprecated), ECA, 1-Electron XAS/XES, NRVS 
  Peter Pinski           : DLPNO-MP2, DLPNO-MP2 Gradient                 
  Christoph Reimann      : Effective Core Potentials                     
  Marius Retegan         : Local ZFS, SOC                                
  Christoph Riplinger    : Optimizer, TS searches, QM/MM, DLPNO-CCSD(T), (RO)-DLPNO pert. Triples 
  Michael Roemelt        : Original ROCIS implementation                 
  Masaaki Saitow         : Open-shell DLPNO-CCSD energy and density      
  Barbara Sandhoefer     : DKH picture change effects                    
  Kantharuban Sivalingam : CASSCF convergence/infrastructure, NEVPT2 and variants, FIC-MRCI 
  Bernardo de Souza      : ESD, SOC TD-DFT                               
  Georgi L. Stoychev     : AutoAux, RI-MP2 NMR, DLPNO-MP2 response, X2C  
  Van Anh Tran           : RI-MP2 g-tensors                              
  Willem Van den Heuvel  : Paramagnetic NMR                              
  Zikuan Wang            : NOTCH, Electric field optimization            
  Frank Wennmohs         : Technical directorship and infrastructure     
  Hang Xu                : AUTO-CI-Response properties                   
                                                                         
[FACCTs GmbH]                                                            
  Markus Bursch, Miquel Garcia-Rates, Christoph Riplinger, Bernardo de Souza, Georgi L. Stoychev 
                                                                 
  APM, Basis sets (HGBS, AHGBS, def-TZVP (Ac-Lr), def2-XVPD (La-Lu)), CI-OPT, improved COSX, DLPNO-Multilevel,           
  DOCKER, DRACO, updates on ESD, GOAT, IRC, LR-CPCM, MBIS, meta-GGA TD-DFT gradient, ML-optimized integration grids, 
  MM, NACMEs, nearIR, NEB, NEB-TS, NL-DFT gradient (VV10), 2- and 3-layer-ONIOM, interface openCOSMO-RS, QMMM,   
  Crystal-QMMM, SF, symmetry and pop. for TD-DFT, r2SCAN hybrids, SOLVATOR                                   
                                                                         
[Other institutions]                                                     
  V. Asgeirsson          : NEB                                           
  Christoph Bannwarth    : sTDA-DFT, sTD-DFT, PBEh-3c, B97-3c, D3        
  Sebastian Ehlert       : rSCAN, r2SCAN, r2SCAN-3c, D4, dhf basis sets  
  Marvin Friede          : D4 for Fr, Ra, Ac-Lr                          
  Lars Goerigk           : TD-DFT with DH, B97 family of functionals     
  Stefan Grimme          : VdW corrections, initial TS optimization, DFT functionals, gCP, sTDA/sTD-DF 
  Waldemar Hujo          : DFT-NL                                        
  H. Jonsson             : NEB                                           
  Holger Kruse           : gCP                                           
  Marcel Mueller         : wB97X-3c, vDZP basis set                      
  Hagen Neugebauer       : wr2SCAN                                       
  Tobias Risthaus        : range-separated hybrid DFT                    
  Lukas Wittmann         : regularized MP2, r2SCAN double-hybrids, wr2SCAN        
                                                                         
We gratefully acknowledge several colleagues who have allowed us to      
interface, adapt or use parts of their codes:                            
  Ed Valeev, F. Pavosevic, A. Kumar             : LibInt (2-el integral package), F12 methods 
  Garnet Chan, S. Sharma, J. Yang, R. Olivares  : DMRG                   
  Ulf Ekstrom                                   : XCFun DFT Library      
  Mihaly Kallay                                 : mrcc  (arbitrary order and MRCC methods)
  Frank Weinhold                                : gennbo (NPA and NBO analysis)           
  Simon Mueller                                 : openCOSMO-RS                            
  Christopher J. Cramer and Donald G. Truhlar   : smd solvation model                     
  S Lehtola, MJT Oliveira, MAL Marques          : LibXC Library                           
  Liviu Ungur et al                             : ANISO software                          


 Your calculation uses the libint2 library for the computation of 2-el integrals
 For citations please refer to: http://libint.valeyev.net

 Your ORCA version has been built with support for libXC version: 6.2.2
 For citations please refer to: https://libxc.gitlab.io

 This ORCA versions uses:
   CBLAS   interface :  Fast vector & matrix operations
   LAPACKE interface :  Fast linear algebra routines
   SCALAPACK package :  Parallel linear algebra routines
   Shared memory     :  Shared parallel matrices
   BLAS/LAPACK       :  OpenBLAS 0.3.27  USE64BITINT DYNAMIC_ARCH NO_AFFINITY Zen SINGLE_THREADED
        Core in use  :  Zen
   Copyright (c) 2011-2014, The OpenBLAS Project




***************************************
The coordinates will be read from file: xtb_opt.xyz
***************************************


Your calculation utilizes the geometrical counterpoise correction gCP
Please cite in your paper:
H.Kruse, S. Grimme J.Chem.Phys., 136, (2012), 154101 
   

Your calculation utilizes the atom-pairwise dispersion correction
based on EEQ partial charges (D4)


================================================================================

----- Orbital basis set information -----
Your calculation utilizes the basis: def2-mTZVPP
   Stefan Grimme, Andreas Hansen, Sebastian Ehlert, and Jan-Michael Mewes 
   J. Chem. Phys. 154, 064103 (2021). DOI: 10.1063/5.0040021

----- AuxJ basis set information -----
Your calculation utilizes the auxiliary basis: def2/J
   F. Weigend, Phys. Chem. Chem. Phys. 8, 1057 (2006).

================================================================================
                                        WARNINGS
                       Please study these warnings very carefully!
================================================================================

WARNING: Old DensityContainer found on disk!
         Will remove this file - 
         If you want to keep old densities, please start your calculation with a different basename. 



WARNING: SCAN, rSCAN, or r2SCAN functional requested.
  ===> : libXC variant has now been activated.



================================================================================
                                       INPUT FILE
================================================================================
NAME = xtb_opt.inp
|  1> ! r2scan-3c def2/J RI DEFGRID2 scfconv7 ENGRAD tightSCF miniprint
|  2> * xyzfile 0 1 xtb_opt.xyz
|  3> 
|  4>                          ****END OF INPUT****
================================================================================

                     *******************************
                     * Energy+Gradient Calculation *
                     *******************************

---------------------------------
CARTESIAN COORDINATES (ANGSTROEM)
---------------------------------
  C     -1.961479    1.166782    0.328927
  C     -1.485416   -0.147343   -0.280300
  C     -0.006420   -0.444601   -0.192519
  O      0.483917   -1.525597   -0.439153
  O      0.723253    0.636869    0.169524
  C      2.143495    0.401487    0.223571
  H     -1.514032    2.025107   -0.174903
  H     -3.047826    1.244557    0.237211
  H     -1.704325    1.228408    1.388941
  H     -1.731403   -0.187904   -1.348856
  H     -1.990671   -1.006261    0.171825
  H      2.370517   -0.415213    0.920320
  H      2.585885    1.340823    0.567332
  H      2.519980    0.134134   -0.771055

----------------------------
CARTESIAN COORDINATES (A.U.)
----------------------------
  NO LB      ZA    FRAG     MASS         X           Y           Z
   0 C     6.0000    0    12.011   -3.706657    2.204898    0.621582
   1 C     6.0000    0    12.011   -2.807029   -0.278438   -0.529691
   2 C     6.0000    0    12.011   -0.012132   -0.840174   -0.363809
   3 O     8.0000    0    15.999    0.914471   -2.882961   -0.829879
   4 O     8.0000    0    15.999    1.366750    1.203507    0.320354
   5 C     6.0000    0    12.011    4.050619    0.758700    0.422488
   6 H     1.0000    0     1.008   -2.861105    3.826897   -0.330518
   7 H     1.0000    0     1.008   -5.759556    2.351872    0.448264
   8 H     1.0000    0     1.008   -3.220708    2.321355    2.624718
   9 H     1.0000    0     1.008   -3.271877   -0.355087   -2.548968
  10 H     1.0000    0     1.008   -3.761824   -1.901557    0.324703
  11 H     1.0000    0     1.008    4.479628   -0.784640    1.739152
  12 H     1.0000    0     1.008    4.886614    2.533789    1.072102
  13 H     1.0000    0     1.008    4.762073    0.253477   -1.457083

------------------------------------------------------------------------------
                   ___                                                        
                  /   \      - P O W E R E D   B Y -                         
                 /     \                                                     
                 |  |  |   _    _      __       _____    __    __             
                 |  |  |  | |  | |    /  \     |  _  \  |  |  /  |          
                  \  \/   | |  | |   /    \    | | | |  |  | /  /          
                 / \  \   | |__| |  /  /\  \   | |_| |  |  |/  /          
                |  |  |   |  __  | /  /__\  \  |    /   |      \           
                |  |  |   | |  | | |   __   |  |    \   |  |\   \          
                \     /   | |  | | |  |  |  |  | |\  \  |  | \   \       
                 \___/    |_|  |_| |__|  |__|  |_| \__\ |__|  \__/        
                                                                              
                      - O R C A' S   B I G   F R I E N D -                    
                                      &                                       
                       - I N T E G R A L  F E E D E R -                       
                                                                              
 v1 FN, 2020, v2 2021, v3 2022-2024                                           
------------------------------------------------------------------------------


----------------------
SHARK INTEGRAL PACKAGE
----------------------

Number of atoms                             ...     14
Number of basis functions                   ...    164
Number of shells                            ...     80
Maximum angular momentum                    ...      2
Integral batch strategy                     ... SHARK/LIBINT Hybrid
RI-J (if used) integral strategy            ... SPLIT-RIJ (Revised 2003 algorithm where possible)
Printlevel                                  ...      1
Contraction scheme used                     ... SEGMENTED contraction
Prescreening option                         ... SCHWARTZ
   Thresh                                   ... 3.000e-11
   Tcut                                     ... 1.000e-12
   Tpresel                                  ... 1.000e-12 
Coulomb Range Separation                    ... NOT USED
Exchange Range Separation                   ... NOT USED
Multipole approximations                    ... NOT USED
Finite Nucleus Model                        ... NOT USED
CABS basis                                  ... NOT available
Auxiliary Coulomb fitting basis             ... AVAILABLE
   # of basis functions in Aux-J            ...    382
   # of shells in Aux-J                     ...    130
   Maximum angular momentum in Aux-J        ...      4
Auxiliary J/K fitting basis                 ... NOT available
Auxiliary Correlation fitting basis         ... NOT available
Auxiliary 'external' fitting basis          ... NOT available

Checking pre-screening integrals            ... done (  0.0 sec) Dimension = 80
Check shell pair data                       ... done (  0.0 sec)
Shell pair information
Shell pair cut-off parameter TPreSel        ...   1.0e-12
Total number of shell pairs                 ...      3240
Shell pairs after pre-screening             ...      3029
Total number of primitive shell pairs       ...     11481
Primitive shell pairs kept                  ...      7951
          la=0 lb=0:    986 shell pairs
          la=1 lb=0:   1119 shell pairs
          la=1 lb=1:    328 shell pairs
          la=2 lb=0:    356 shell pairs
          la=2 lb=1:    204 shell pairs
          la=2 lb=2:     36 shell pairs

Calculating one electron integrals          ... done (  0.0 sec)
Calculating RI/J V-Matrix + Cholesky decomp.... done (  0.0 sec)
Calculating Nuclear repulsion               ... done (  0.0 sec) ENN=    246.233772577180 Eh

Diagonalization of the overlap matrix:
Smallest eigenvalue                        ... 1.859e-04
Time for diagonalization                   ...    0.005 sec
Threshold for overlap eigenvalues          ... 1.000e-07
Number of eigenvalues below threshold      ... 0
Time for construction of square roots      ...    0.001 sec
Total time needed                          ...    0.007 sec

-------------------
DFT GRID GENERATION
-------------------

General Integration Accuracy     IntAcc      ... 4.388
Radial Grid Type                 RadialGrid  ... OptM3 with GC (2021)
Angular Grid (max. ang.)         AngularGrid ... 4 (Lebedev-302)
Angular grid pruning method      GridPruning ... 4 (adaptive)
Weight generation scheme         WeightScheme... mBecke (2022)
Basis function cutoff            BFCut       ... 1.0000e-11
Integration weight cutoff        WCut        ... 1.0000e-14
Partially contracted basis set               ... off
Rotationally invariant grid construction     ... off
Angular grids for H and He will be reduced by one unit
Diffuse basis detected: some atoms will have their outermost
                        angular grid increased by 1.

Total number of grid points                  ...    62779
Total number of batches                      ...      988
Average number of points per batch           ...       63
Average number of grid points per atom       ...     4484
Initializing property integral containers    ... done (  0.0 sec)

SHARK setup successfully completed in   0.6 seconds

Maximum memory used throughout the entire STARTUP-calculation: 28.6 MB
Occupation numbers will be reassigned to an Aufbau configuration
             **** ENERGY FILE WAS UPDATED (xtb_opt.en.tmp) ****
Finished Guess after   0.1 sec
Maximum memory used throughout the entire GUESS-calculation: 11.6 MB
----------------------------------------D-I-I-S--------------------------------------------
Iteration    Energy (Eh)           Delta-E    RMSDP     MaxDP     DIISErr   Damp  Time(sec)
-------------------------------------------------------------------------------------------
               ***  Starting incremental Fock matrix formation  ***
                              *** Initializing SOSCF ***
---------------------------------------S-O-S-C-F--------------------------------------
Iteration    Energy (Eh)           Delta-E    RMSDP     MaxDP     MaxGrad    Time(sec)
--------------------------------------------------------------------------------------
    1    -307.6389753667978084     0.00e+00  2.35e-06  6.92e-05  9.03e-06     1.7
               *** Restarting incremental Fock matrix formation ***
    2    -307.6389753630177211     3.78e-09  3.74e-06  1.14e-04  2.83e-05     1.8
    3    -307.6389753203324062     4.27e-08  2.70e-06  9.06e-05  6.24e-05     1.0
                 **** Energy Check signals convergence ****

               *****************************************************
               *                     SUCCESS                       *
               *           SCF CONVERGED AFTER   3 CYCLES          *
               *****************************************************

             **** ENERGY FILE WAS UPDATED (xtb_opt.en.tmp) ****

----------------
TOTAL SCF ENERGY
----------------

Total Energy       :       -307.63897532033241 Eh           -8371.28211 eV

Components:
Nuclear Repulsion  :        246.23377257717951 Eh            6700.36159 eV
Electronic Energy  :       -553.87274789751200 Eh          -15071.64370 eV
One Electron Energy:       -905.98187448198041 Eh          -24653.02014 eV
Two Electron Energy:        352.10912658446847 Eh            9581.37644 eV

Virial components:
Potential Energy   :       -613.91299778794769 Eh          -16705.42196 eV
Kinetic Energy     :        306.27402246761534 Eh            8334.13985 eV
Virial Ratio       :          2.00445663932488

DFT components:
N(Alpha)           :       24.000014313033 electrons
N(Beta)            :       24.000014313033 electrons
N(Total)           :       48.000028626066 electrons
E(X)               :      -40.196685473663 Eh       
E(C)               :       -1.537074326798 Eh       
E(XC)              :      -41.733759800460 Eh       

---------------
SCF CONVERGENCE
---------------

  Last Energy change         ...   -4.2685e-08  Tolerance :   1.0000e-07
  Last MAX-Density change    ...    9.0577e-05  Tolerance :   1.0000e-07
  Last RMS-Density change    ...    2.7022e-06  Tolerance :   5.0000e-09
  Last DIIS Error            ...    6.7750e-05  Tolerance :   1.0000e-07
  Last Orbital Gradient      ...    6.2436e-05  Tolerance :   1.0000e-04
  Last Orbital Rotation      ...    5.4351e-05  Tolerance :   1.0000e-04


----------------
ORBITAL ENERGIES
----------------

  NO   OCC          E(Eh)            E(eV) 
   0   2.0000     -19.001186      -517.0486 
   1   2.0000     -18.932942      -515.1916 
   2   2.0000     -10.155753      -276.3521 
   3   2.0000     -10.087892      -274.5055 
   4   2.0000     -10.049241      -273.4537 
   5   2.0000     -10.029807      -272.9249 
   6   2.0000      -1.066762       -29.0281 
   7   2.0000      -0.977534       -26.6000 
   8   2.0000      -0.758851       -20.6494 
   9   2.0000      -0.685720       -18.6594 
  10   2.0000      -0.617618       -16.8062 
  11   2.0000      -0.533073       -14.5057 
  12   2.0000      -0.464917       -12.6510 
  13   2.0000      -0.458044       -12.4640 
  14   2.0000      -0.436137       -11.8679 
  15   2.0000      -0.418712       -11.3937 
  16   2.0000      -0.389097       -10.5879 
  17   2.0000      -0.368271       -10.0212 
  18   2.0000      -0.358930        -9.7670 
  19   2.0000      -0.336923        -9.1681 
  20   2.0000      -0.326370        -8.8810 
  21   2.0000      -0.317438        -8.6379 
  22   2.0000      -0.275269        -7.4904 
  23   2.0000      -0.238860        -6.4997 
  24   0.0000      -0.018369        -0.4999 
  25   0.0000       0.059929         1.6307 
  26   0.0000       0.096574         2.6279 
  27   0.0000       0.114163         3.1065 
  28   0.0000       0.124650         3.3919 
  29   0.0000       0.152035         4.1371 
  30   0.0000       0.154269         4.1979 
  31   0.0000       0.168400         4.5824 
  32   0.0000       0.170735         4.6459 
  33   0.0000       0.182437         4.9644 
  34   0.0000       0.187850         5.1116 
*Only the first 10 virtual orbitals were printed.
Total SCF time: 0 days 0 hours 0 min 4 sec 
Finished LeanSCF after   4.7 sec

Maximum memory used throughout the entire LEANSCF-calculation: 17.6 MB


-------------------------------------------------------------------------------
                          DFT DISPERSION CORRECTION                            
                                                                               
                                DFTD4 V3.4.0                                   
-------------------------------------------------------------------------------
-------------------------   ----------------
Dispersion correction           -0.002991138
-------------------------   ----------------

------------------   -----------------
gCP correction             0.009211853
------------------   -----------------

-------------------------   --------------------
FINAL SINGLE POINT ENERGY      -307.632754605686
-------------------------   --------------------

------------------------------------------------------------------------------
                         ORCA SCF GRADIENT CALCULATION
------------------------------------------------------------------------------

Nuc. rep. gradient        (SHARK) ... done (  0.0 sec)
HCore & Overlap gradient  (SHARK) ... done (  0.2 sec)
Split-RIJ-J gradient      (SHARK) ... done (  1.2 sec)
XC gradient                       ... done (  5.4 sec)
Dispersion correction             ... done (  0.0 sec)

-------------------
DISPERSION GRADIENT
-------------------

   1   C   :   -0.000061770    0.000033907    0.000010348
   2   C   :   -0.000052473   -0.000010010   -0.000010334
   3   C   :    0.000014049   -0.000018981   -0.000006046
   4   O   :    0.000020065   -0.000057724   -0.000016083
   5   O   :    0.000038497    0.000006769    0.000003282
   6   C   :    0.000073997    0.000000038    0.000004869
   7   H   :   -0.000024108    0.000020839    0.000000503
   8   H   :   -0.000023994    0.000012524    0.000003618
   9   H   :   -0.000025548    0.000015100    0.000012762
  10   H   :   -0.000019006   -0.000004877   -0.000012332
  11   H   :   -0.000018962   -0.000011775   -0.000000049
  12   H   :    0.000024708    0.000000792    0.000004461
  13   H   :    0.000029512    0.000010485    0.000005101
  14   H   :    0.000025034    0.000002912   -0.000000100

Difference to translation invariance:
           :   -0.0000000000   -0.0000000000   -0.0000000000

Difference to rotation invariance:
           :   -0.0000000000   -0.0000000000    0.0000000000

Norm of the Dispersion gradient    ...    0.0001605348
RMS gradient                       ...    0.0000247711
MAX gradient                       ...    0.0000739967
gCP correction                   ... done

------------------
CARTESIAN GRADIENT
------------------

   1   C   :    0.000022236    0.000561910   -0.000002598
   2   C   :   -0.000600657   -0.000537662   -0.000326282
   3   C   :   -0.000894912    0.003707584    0.001289918
   4   O   :    0.001593856   -0.003812678   -0.000840888
   5   O   :    0.001292706    0.000610231    0.000125111
   6   C   :   -0.003583685    0.000419169   -0.000705012
   7   H   :   -0.000424626   -0.000445603    0.000079290
   8   H   :    0.000445386   -0.000259516   -0.000035915
   9   H   :   -0.000114210   -0.000069106   -0.000282934
  10   H   :    0.000187598    0.000385276    0.000178232
  11   H   :    0.000263217    0.000254853    0.000056584
  12   H   :    0.000443270   -0.002243229    0.001620985
  13   H   :    0.001054891    0.002027935    0.000899500
  14   H   :    0.000314930   -0.000599164   -0.002055990

Difference to translation invariance:
           :    0.0000000000   -0.0000000000    0.0000000000

Difference to rotation invariance:
           :    0.0000006992   -0.0000921140    0.0000022283

Norm of the Cartesian gradient     ...    0.0083857542
RMS gradient                       ...    0.0012939500
MAX gradient                       ...    0.0038126782

-------
TIMINGS
-------

Total SCF gradient time     ....        6.880 sec

Densities                   ....       0.000 sec  (  0.0%)
One electron gradient       ....       0.236 sec  (  3.4%)
RI-J Coulomb gradient       ....       1.160 sec  ( 16.9%)
XC gradient                 ....       5.429 sec  ( 78.9%)

Maximum memory used throughout the entire SCFGRAD-calculation: 31.7 MB

------------------------------------------------------------------------------
                              ORCA PROPERTY CALCULATIONS
------------------------------------------------------------------------------

GBWName                                 ... xtb_opt.gbw
Number of atoms                         ...     14
Number of basis functions               ...    164
Max core memory                         ...   1024 MB

Electric properties:
Dipole moment                           ... YES
Quadrupole moment                       ...  NO
Static polarizability (Dipole/Dipole)   ...  NO
Static polarizability (Dipole/Quad.)    ...  NO
Static polarizability (Quad./Quad.)     ...  NO
Static polarizability (Velocity)        ...  NO

Atomic electric properties:
Dipole moment                           ...  NO
Quadrupole moment                       ...  NO
Static polarizability                   ...  NO

Choice of electric origin               ... Center of mass
Position of electric origin             ...     0.022506     0.040890    -0.050576

General magnetic properties:
Magnetizability                         ...  NO

EPR properties:
g-Tensor (aka g-matrix)                 ...  NO
Zero-Field splitting spin-orbit         ...  NO
Zero-field splitting spin-spin          ...  NO
Hyperfine couplings                     ...  NO (   0 nuclei)
Quadrupole couplings                    ...  NO (   0 nuclei)
Contact density                         ...  NO (   0 nuclei)

NMR properties:
Chemical shifts                         ...  NO (   0 nuclei)
Spin-rotation constants                 ...  NO (   0 nuclei)
Spin-spin couplings                     ...  NO (   0 nuclei,    0 pairs)

Choice of magnetic origin               ... GIAO
Position of magnetic origin             ...     0.000000     0.000000     0.000000

Properties with geometric perturbations:
SCF Hessian                             ...  NO
IR spectrum                             ...  NO
VCD spectrum                            ...  NO
X-ray spectroscopy properties:
SCF XES/XAS/RIXS spectra                ...  NO


-------------
DIPOLE MOMENT
-------------

Method             : SCF
Type of density    : Electron Density
Multiplicity       :   1
Irrep              :   0
Energy             :  -307.6389753203324062 Eh
Relativity type    : 
Basis              : AO
                                X                 Y                 Z
Electronic contribution:      2.345580517      -3.186943076      -0.958056032
Nuclear contribution   :     -2.428466505       3.917689002       1.127236238
                        -----------------------------------------
Total Dipole Moment    :     -0.082885988       0.730745926       0.169180206
                        -----------------------------------------
Magnitude (a.u.)       :      0.754640071
Magnitude (Debye)      :      1.918142624



--------------------
Rotational spectrum 
--------------------
 
Rotational constants in cm-1:             0.204099             0.088591             0.064189 
Rotational constants in MHz :          6118.722384          2655.883170          1924.332150 

Dipole components along the rotational axes: 
x,y,z [a.u.] :    -0.232564     0.715065    -0.063853 
x,y,z [Debye]:    -0.591131     1.817552    -0.162302 

 

Dipole moment calculation done in   0.0 sec 

Maximum memory used throughout the entire PROP-calculation: 10.0 MB

--------------------------------
SUGGESTED CITATIONS FOR THIS RUN
--------------------------------

Below you find a list of papers that are relevant to this ORCA run
We neither can nor want to force you to cite these papers, but we appreciate if you do
You receive ORCA, which is the product of decades of hard work by many enthusiastic individuals, for free
The only thing we kindly ask in return is that you cite our papers,
We deeply appreciate it, if you show your appreciation for ORCA by not just citing the generic ORCA reference.

Please note that relegating all ORCA citations to the supporting information does *not* help us.
SI sections are not indexed - citations you put there will not count into any citation statistics
But we need these citations in order to attract the funding resources that allow us to do what we are doing

Therefore, if you are a happy ORCA user, please consider citing a few of the papers listed below in the main body of your paper

In addition to the list printed below, the program has created the file xtb_opt.bibtex that contains the list in bibtex format
You can import this file easily into all common literature databanks and citation aid programs


List of essential papers. We consider these as the minimum necessary citations

  1. Neese,F.
     Software update: the ORCA program system, version 5.0
     WIRES Comput. Molec. Sci., 2022 12(1)e1606
     doi.org/10.1002/wcms.1606
  2. Grimme,S.; Hansen,A.; Ehlert,S.; Mewes,J.
     r2SCAN-3c: A 'Swiss army knife' composite electronic-structure method
     J. Chem. Phys., 2021 154 064103
     doi.org/10.1063/5.0040021

List of papers to cite with high priority. The work reported in these papers was absolutely
necessary for this run to complete.
Our perspective: the developers of density functionals and basis sets usually get cited in chemistry papers
Good! But without the algorithms to do something with them, the functionals or basis sets would not do anything.
Hence, in our opinion, the algorithm design and method developments papers are equally worthy of getting cited

  1. Neese,F.
     An improvement of the resolution of the identity approximation for the formation of the Coulomb matrix
     J. Comp. Chem., 2003 24(14)1740-1747
     doi.org/10.1002/jcc.10318
  2. Neese,F.
     The SHARK Integral Generation and Digestion System
     J. Comp. Chem., 2022  1-16
     doi.org/10.1002/jcc.26942
  3. Lehtola,S.; Steigemann,C.; Oliveira,M.; Marques,M.
     Recent developments in Libxc - A comprehensive library of functionals for density functional theory
     Software X, 2018 7 
     doi.org/10.1016/j.softx.2017.11.002
  4. Caldeweyher,E.; Bannwarth,C.; Grimme,S.
     Extension of the D3 dispersion coefficient model
     J. Chem. Phys., 2017 147 034112
     doi.org/10.1063/1.4993215
  5. Caldeweyher,E.; Ehlert,S.; Hansen,A.; Neugebauer,H.; Spicher,S.; Bannwarth,C.; Grimme,S.
     A generally applicable atomic-charge dependent London dispersion correction
     J. Chem. Phys., 2019 150 154122
     doi.org/10.1063/1.5090222
  6. Caldeweyher,E.; Mewes,J.; Ehlert,S.; Grimme,S.
     Extension and evaluation of the D4 London-dispersion model for periodic systems
     Phys. Chem. Chem. Phys., 2020 22(16)8499-8512
     doi.org/10.1039/D0CP00502A
  7. Wittmann,L.; Gordiy,I.; Friede,M.; Helmich-Paris,B.; Grimme,S.; Hansen,A.; Bursch,M.
     Extension of the D3 and D4 London Dispersion Corrections to the full Actinides Series
     Phys. Chem. Chem. Phys., 2024 26(32)21379-21394
     doi.org/https://doi.org/10.1039/D4CP01514B 

List of suggested additional citations. These are papers that are important in the 'surrounding' of 
of this run, or papers that preceded the highly important papers. If you like your results we are grateful for a citation.

  1. Neese,F.
     The ORCA program system
     WIRES Comput. Molec. Sci., 2012 2(1)73-78
     doi.org/10.1002/wcms.81
  2. Neese,F.
     Software update: the ORCA program system, version 4.0
     WIRES Comput. Molec. Sci., 2018 8(1)1-6
     doi.org/10.1002/wcms.1327
  3. Neese,F.; Wennmohs,F.; Becker,U.; Riplinger,C.
     The ORCA quantum chemistry program package
     J. Chem. Phys., 2020 152 Art. No. L224108
     doi.org/10.1063/5.0004608

List of optional additional citations

  1. Neese,F.
     Approximate second-order SCF convergence for spin unrestricted wavefunctions
     Chem. Phys. Lett., 2000 325(1-3)93-98
     doi.org/10.1016/s0009-2614(00)00662-x

Timings for individual modules:

Sum of individual times          ...       12.590 sec (=   0.210 min)
Startup calculation              ...        0.630 sec (=   0.011 min)   5.0 %
SCF iterations                   ...        4.815 sec (=   0.080 min)  38.2 %
Property calculations            ...        0.135 sec (=   0.002 min)   1.1 %
SCF Gradient evaluation          ...        7.010 sec (=   0.117 min)  55.7 %
                             ****ORCA TERMINATED NORMALLY****
TOTAL RUN TIME: 0 days 0 hours 0 minutes 12 seconds 753 msec
  ------------------------------------------------------------------------
          * successful ORCA run, taking over control again...

         :::::::::::::::::::::::::::::::::::::::::::::::::::::
         ::                  ORCA SUMMARY                   ::
         :::::::::::::::::::::::::::::::::::::::::::::::::::::
         :: total energy            -307.632754605686 Eh    ::
         :: gradient norm              0.008385754160 Eh/a0 ::
         :: HOMO-LUMO gap              0.000000000000 eV    ::
         :::::::::::::::::::::::::::::::::::::::::::::::::::::

      ----------------------------------------------------------- 
     |                       L-ANC optimizer                     |
      ----------------------------------------------------------- 
          low memory version by Sebastian Ehlert

          ...................................................
          :                      SETUP                      :
          :.................................................:
          :   energy convergence        0.5000000E-05 Eh    :
          :   grad. convergence         0.1000000E-02 Eh/a0 :
          :   optimization log               true           :
          :   writing optlog all                1     steps :
          :   Hessian reset                     8     steps :
          :   maximium step len.        1.0000000     a0    :
          :   LBFGS images                      8           :
          ...................................................
 * calculating model hessian...
Using Lindh-Hessian (1995)
 Shifting diagonal of input Hessian by    1.0000000000000000E-002
 Lowest  eigenvalues of input Hessian
    0.000000    0.000000    0.000000    0.000000    0.000000    0.000000
    0.013995    0.015068    0.015980    0.024066    0.029492    0.032994
    0.051241    0.054725    0.063963    0.068380    0.082227    0.094869
 Highest eigenvalues
    1.149330    1.153866    1.257409    1.273449    1.715502    2.288245


........................................................................
.............................. CYCLE    1 ..............................
........................................................................
                         * ORCA takes the control...
  ------------------------------------------------------------------------

                                 *****************
                                 * O   R   C   A *
                                 *****************

                                            #,                                       
                                            ###                                      
                                            ####                                     
                                            #####                                    
                                            ######                                   
                                           ########,                                 
                                     ,,################,,,,,                         
                               ,,#################################,,                 
                          ,,##########################################,,             
                       ,#########################################, ''#####,          
                    ,#############################################,,   '####,        
                  ,##################################################,,,,####,       
                ,###########''''           ''''###############################       
              ,#####''   ,,,,##########,,,,          '''####'''          '####       
            ,##' ,,,,###########################,,,                        '##       
           ' ,,###''''                  '''############,,,                           
         ,,##''                                '''############,,,,        ,,,,,,###''
      ,#''                                            '''#######################'''  
     '                                                          ''''####''''         
             ,#######,   #######,   ,#######,      ##                                
            ,#'     '#,  ##    ##  ,#'     '#,    #''#        ,####,   ,####,        
            ##       ##  ##   ,#'  ##            #'  '#       #'       #'  '#        
            ##       ##  #######   ##           ,######,      #####,   #    #        
            '#,     ,#'  ##    ##  '#,     ,#' ,#      #,     #,   #   #,  ,#        
             '#######'   ##     ##  '#######'  #'      '#     '####' # '####'        



                #########################################################
                #                        -***-                          #
                #          Department of theory and spectroscopy        #
                #                                                       #
                #                      Frank Neese                      #
                #                                                       #
                #     Directorship, Architecture, Infrastructure        #
                #                    SHARK, DRIVERS                     #
                #        Core code/Algorithms in most modules           #
                #                                                       #
                #        Max Planck Institute fuer Kohlenforschung      #
                #                Kaiser Wilhelm Platz 1                 #
                #                 D-45470 Muelheim/Ruhr                 #
                #                      Germany                          #
                #                                                       #
                #                  All rights reserved                  #
                #                        -***-                          #
                #########################################################


                         Program Version 6.0.1  -  RELEASE   -


 With contributions from (in alphabetic order):
[Max-Planck-Institut fuer Kohlenforschung]                               
  Daniel Aravena         : Magnetic Suceptibility                        
  Michael Atanasov       : Ab Initio Ligand Field Theory (pilot matlab implementation)
  Alexander A. Auer      : GIAO ZORA, VPT2 properties, NMR spectrum      
  Ute Becker             : All parallelization in ORCA, NUMFREQ, NUMCALC 
  Giovanni Bistoni       : ED, misc. LED, open-shell LED, HFLD           
  Martin Brehm           : Molecular dynamics                            
  Dmytro Bykov           : pre 5.0 version of the SCF Hessian            
  Marcos Casanova-Páez   : Triplet and SCS-CIS(D). UHF-(DLPNO)-IP/EA/STEOM-CCSD. UHF-CVS-IP/STEOM-CCSD   
  Vijay G. Chilkuri      : MRCI spin determinant printing, contributions to CSF-ICE 
  Pauline Colinet        : FMM embedding                                 
  Dipayan Datta          : RHF DLPNO-CCSD density                        
  Achintya Kumar Dutta   : EOM-CC, STEOM-CC                              
  Nicolas Foglia         : Exact transition moments, OPA infrastructure, MCD improvements    
  Dmitry Ganyushin       : Spin-Orbit,Spin-Spin,Magnetic field MRCI      
  Miquel Garcia-Rates    : C-PCM and meta-GGA Hessian, CCSD/C-PCM, Gaussian charge scheme 
  Tiago L. C. Gouveia    : GS-ROHF, GS-ROCIS                             
  Yang Guo               : DLPNO-NEVPT2, F12-NEVPT2, CIM, IAO-localization        
  Andreas Hansen         : Spin unrestricted coupled pair/coupled cluster methods 
  Ingolf Harden          : AUTO-CI MPn and infrastructure                
  Benjamin Helmich-Paris : MC-RPA, TRAH-(SCF,CASSCF), AVAS, COSX integrals, SCF dyn. polar. 
  Lee Huntington         : MR-EOM, pCC                                   
  Robert Izsak           : Overlap fitted RIJCOSX, COSX-SCS-MP3, EOM     
  Riya Kayal             : Wick's Theorem for AUTO-CI, AUTO-CI UHF-CCSDT 
  Emily Kempfer          : AUTO-CI, RHF CISDT and CCSDT                  
  Christian Kollmar      : KDIIS, OOCD, Brueckner-CCSD(T), CCSD density, CASPT2, CASPT2-K, improved NEVPT2 
  Axel Koslowski         : Symmetry handling                             
  Simone Kossmann        : meta-GGA functionals, TD-DFT gradient, OOMP2, (MP2 Hessian; deprecated post 5.0) 
  Lucas Lang             : DCDCAS                                        
  Marvin Lechner         : AUTO-CI (C++ implementation), FIC-MRCC        
  Spencer Leger          : CASSCF response                               
  Dagmar Lenk            : GEPOL surface, SMD, ORCA-2-JSON               
  Dimitrios Liakos       : Extrapolation schemes; Compound Job, initial MDCI parallelization 
  Dimitrios Manganas     : Further ROCIS development; embedding schemes. LFT, Crystal Embedding 
  Dimitrios Pantazis     : SARC Basis sets                               
  Anastasios Papadopoulos: AUTO-CI, single reference methods and gradients 
  Taras Petrenko         : pre 6.0 DFT Hessian and TD-DFT gradient, (ASA, deprecated), ECA, 1-Electron XAS/XES, NRVS 
  Peter Pinski           : DLPNO-MP2, DLPNO-MP2 Gradient                 
  Christoph Reimann      : Effective Core Potentials                     
  Marius Retegan         : Local ZFS, SOC                                
  Christoph Riplinger    : Optimizer, TS searches, QM/MM, DLPNO-CCSD(T), (RO)-DLPNO pert. Triples 
  Michael Roemelt        : Original ROCIS implementation                 
  Masaaki Saitow         : Open-shell DLPNO-CCSD energy and density      
  Barbara Sandhoefer     : DKH picture change effects                    
  Kantharuban Sivalingam : CASSCF convergence/infrastructure, NEVPT2 and variants, FIC-MRCI 
  Bernardo de Souza      : ESD, SOC TD-DFT                               
  Georgi L. Stoychev     : AutoAux, RI-MP2 NMR, DLPNO-MP2 response, X2C  
  Van Anh Tran           : RI-MP2 g-tensors                              
  Willem Van den Heuvel  : Paramagnetic NMR                              
  Zikuan Wang            : NOTCH, Electric field optimization            
  Frank Wennmohs         : Technical directorship and infrastructure     
  Hang Xu                : AUTO-CI-Response properties                   
                                                                         
[FACCTs GmbH]                                                            
  Markus Bursch, Miquel Garcia-Rates, Christoph Riplinger, Bernardo de Souza, Georgi L. Stoychev 
                                                                 
  APM, Basis sets (HGBS, AHGBS, def-TZVP (Ac-Lr), def2-XVPD (La-Lu)), CI-OPT, improved COSX, DLPNO-Multilevel,           
  DOCKER, DRACO, updates on ESD, GOAT, IRC, LR-CPCM, MBIS, meta-GGA TD-DFT gradient, ML-optimized integration grids, 
  MM, NACMEs, nearIR, NEB, NEB-TS, NL-DFT gradient (VV10), 2- and 3-layer-ONIOM, interface openCOSMO-RS, QMMM,   
  Crystal-QMMM, SF, symmetry and pop. for TD-DFT, r2SCAN hybrids, SOLVATOR                                   
                                                                         
[Other institutions]                                                     
  V. Asgeirsson          : NEB                                           
  Christoph Bannwarth    : sTDA-DFT, sTD-DFT, PBEh-3c, B97-3c, D3        
  Sebastian Ehlert       : rSCAN, r2SCAN, r2SCAN-3c, D4, dhf basis sets  
  Marvin Friede          : D4 for Fr, Ra, Ac-Lr                          
  Lars Goerigk           : TD-DFT with DH, B97 family of functionals     
  Stefan Grimme          : VdW corrections, initial TS optimization, DFT functionals, gCP, sTDA/sTD-DF 
  Waldemar Hujo          : DFT-NL                                        
  H. Jonsson             : NEB                                           
  Holger Kruse           : gCP                                           
  Marcel Mueller         : wB97X-3c, vDZP basis set                      
  Hagen Neugebauer       : wr2SCAN                                       
  Tobias Risthaus        : range-separated hybrid DFT                    
  Lukas Wittmann         : regularized MP2, r2SCAN double-hybrids, wr2SCAN        
                                                                         
We gratefully acknowledge several colleagues who have allowed us to      
interface, adapt or use parts of their codes:                            
  Ed Valeev, F. Pavosevic, A. Kumar             : LibInt (2-el integral package), F12 methods 
  Garnet Chan, S. Sharma, J. Yang, R. Olivares  : DMRG                   
  Ulf Ekstrom                                   : XCFun DFT Library      
  Mihaly Kallay                                 : mrcc  (arbitrary order and MRCC methods)
  Frank Weinhold                                : gennbo (NPA and NBO analysis)           
  Simon Mueller                                 : openCOSMO-RS                            
  Christopher J. Cramer and Donald G. Truhlar   : smd solvation model                     
  S Lehtola, MJT Oliveira, MAL Marques          : LibXC Library                           
  Liviu Ungur et al                             : ANISO software                          


 Your calculation uses the libint2 library for the computation of 2-el integrals
 For citations please refer to: http://libint.valeyev.net

 Your ORCA version has been built with support for libXC version: 6.2.2
 For citations please refer to: https://libxc.gitlab.io

 This ORCA versions uses:
   CBLAS   interface :  Fast vector & matrix operations
   LAPACKE interface :  Fast linear algebra routines
   SCALAPACK package :  Parallel linear algebra routines
   Shared memory     :  Shared parallel matrices
   BLAS/LAPACK       :  OpenBLAS 0.3.27  USE64BITINT DYNAMIC_ARCH NO_AFFINITY Zen SINGLE_THREADED
        Core in use  :  Zen
   Copyright (c) 2011-2014, The OpenBLAS Project




***************************************
The coordinates will be read from file: xtb_opt.xyz
***************************************


Your calculation utilizes the geometrical counterpoise correction gCP
Please cite in your paper:
H.Kruse, S. Grimme J.Chem.Phys., 136, (2012), 154101 
   

Your calculation utilizes the atom-pairwise dispersion correction
based on EEQ partial charges (D4)


================================================================================

----- Orbital basis set information -----
Your calculation utilizes the basis: def2-mTZVPP
   Stefan Grimme, Andreas Hansen, Sebastian Ehlert, and Jan-Michael Mewes 
   J. Chem. Phys. 154, 064103 (2021). DOI: 10.1063/5.0040021

----- AuxJ basis set information -----
Your calculation utilizes the auxiliary basis: def2/J
   F. Weigend, Phys. Chem. Chem. Phys. 8, 1057 (2006).

================================================================================
                                        WARNINGS
                       Please study these warnings very carefully!
================================================================================

WARNING: Old DensityContainer found on disk!
         Will remove this file - 
         If you want to keep old densities, please start your calculation with a different basename. 



WARNING: SCAN, rSCAN, or r2SCAN functional requested.
  ===> : libXC variant has now been activated.



================================================================================
                                       INPUT FILE
================================================================================
NAME = xtb_opt.inp
|  1> ! r2scan-3c def2/J RI DEFGRID2 scfconv7 ENGRAD tightSCF miniprint
|  2> * xyzfile 0 1 xtb_opt.xyz
|  3> 
|  4>                          ****END OF INPUT****
================================================================================

                     *******************************
                     * Energy+Gradient Calculation *
                     *******************************

---------------------------------
CARTESIAN COORDINATES (ANGSTROEM)
---------------------------------
  C     -1.959972    1.166588    0.329576
  C     -1.486837   -0.148418   -0.280815
  C     -0.008096   -0.447367   -0.197004
  O      0.480754   -1.526604   -0.442771
  O      0.721961    0.633358    0.166251
  C      2.144344    0.402459    0.224533
  H     -1.509122    2.024737   -0.173024
  H     -3.046659    1.248784    0.238543
  H     -1.702083    1.227120    1.389839
  H     -1.735493   -0.190810   -1.348954
  H     -1.992924   -1.007022    0.171762
  H      2.372294   -0.408012    0.922620
  H      2.581430    1.341657    0.565366
  H      2.525878    0.134777   -0.765059

----------------------------
CARTESIAN COORDINATES (A.U.)
----------------------------
  NO LB      ZA    FRAG     MASS         X           Y           Z
   0 C     6.0000    0    12.011   -3.703810    2.204532    0.622809
   1 C     6.0000    0    12.011   -2.809715   -0.280469   -0.530663
   2 C     6.0000    0    12.011   -0.015300   -0.845401   -0.372283
   3 O     8.0000    0    15.999    0.908493   -2.884864   -0.836716
   4 O     8.0000    0    15.999    1.364309    1.196874    0.314168
   5 C     6.0000    0    12.011    4.052222    0.760538    0.424306
   6 H     1.0000    0     1.008   -2.851828    3.826198   -0.326968
   7 H     1.0000    0     1.008   -5.757350    2.359859    0.450782
   8 H     1.0000    0     1.008   -3.216470    2.318921    2.626416
   9 H     1.0000    0     1.008   -3.279606   -0.360579   -2.549153
  10 H     1.0000    0     1.008   -3.766081   -1.902997    0.324584
  11 H     1.0000    0     1.008    4.482987   -0.771030    1.743500
  12 H     1.0000    0     1.008    4.878196    2.535364    1.068386
  13 H     1.0000    0     1.008    4.773219    0.254691   -1.445752

------------------------------------------------------------------------------
                   ___                                                        
                  /   \      - P O W E R E D   B Y -                         
                 /     \                                                     
                 |  |  |   _    _      __       _____    __    __             
                 |  |  |  | |  | |    /  \     |  _  \  |  |  /  |          
                  \  \/   | |  | |   /    \    | | | |  |  | /  /          
                 / \  \   | |__| |  /  /\  \   | |_| |  |  |/  /          
                |  |  |   |  __  | /  /__\  \  |    /   |      \           
                |  |  |   | |  | | |   __   |  |    \   |  |\   \          
                \     /   | |  | | |  |  |  |  | |\  \  |  | \   \       
                 \___/    |_|  |_| |__|  |__|  |_| \__\ |__|  \__/        
                                                                              
                      - O R C A' S   B I G   F R I E N D -                    
                                      &                                       
                       - I N T E G R A L  F E E D E R -                       
                                                                              
 v1 FN, 2020, v2 2021, v3 2022-2024                                           
------------------------------------------------------------------------------


----------------------
SHARK INTEGRAL PACKAGE
----------------------

Number of atoms                             ...     14
Number of basis functions                   ...    164
Number of shells                            ...     80
Maximum angular momentum                    ...      2
Integral batch strategy                     ... SHARK/LIBINT Hybrid
RI-J (if used) integral strategy            ... SPLIT-RIJ (Revised 2003 algorithm where possible)
Printlevel                                  ...      1
Contraction scheme used                     ... SEGMENTED contraction
Prescreening option                         ... SCHWARTZ
   Thresh                                   ... 3.000e-11
   Tcut                                     ... 1.000e-12
   Tpresel                                  ... 1.000e-12 
Coulomb Range Separation                    ... NOT USED
Exchange Range Separation                   ... NOT USED
Multipole approximations                    ... NOT USED
Finite Nucleus Model                        ... NOT USED
CABS basis                                  ... NOT available
Auxiliary Coulomb fitting basis             ... AVAILABLE
   # of basis functions in Aux-J            ...    382
   # of shells in Aux-J                     ...    130
   Maximum angular momentum in Aux-J        ...      4
Auxiliary J/K fitting basis                 ... NOT available
Auxiliary Correlation fitting basis         ... NOT available
Auxiliary 'external' fitting basis          ... NOT available

Checking pre-screening integrals            ... done (  0.0 sec) Dimension = 80
Check shell pair data                       ... done (  0.0 sec)
Shell pair information
Shell pair cut-off parameter TPreSel        ...   1.0e-12
Total number of shell pairs                 ...      3240
Shell pairs after pre-screening             ...      3029
Total number of primitive shell pairs       ...     11481
Primitive shell pairs kept                  ...      7945
          la=0 lb=0:    985 shell pairs
          la=1 lb=0:   1119 shell pairs
          la=1 lb=1:    329 shell pairs
          la=2 lb=0:    356 shell pairs
          la=2 lb=1:    204 shell pairs
          la=2 lb=2:     36 shell pairs

Calculating one electron integrals          ... done (  0.0 sec)
Calculating RI/J V-Matrix + Cholesky decomp.... done (  0.0 sec)
Calculating Nuclear repulsion               ... done (  0.0 sec) ENN=    246.255523758568 Eh

Diagonalization of the overlap matrix:
Smallest eigenvalue                        ... 1.863e-04
Time for diagonalization                   ...    0.003 sec
Threshold for overlap eigenvalues          ... 1.000e-07
Number of eigenvalues below threshold      ... 0
Time for construction of square roots      ...    0.001 sec
Total time needed                          ...    0.005 sec

-------------------
DFT GRID GENERATION
-------------------

General Integration Accuracy     IntAcc      ... 4.388
Radial Grid Type                 RadialGrid  ... OptM3 with GC (2021)
Angular Grid (max. ang.)         AngularGrid ... 4 (Lebedev-302)
Angular grid pruning method      GridPruning ... 4 (adaptive)
Weight generation scheme         WeightScheme... mBecke (2022)
Basis function cutoff            BFCut       ... 1.0000e-11
Integration weight cutoff        WCut        ... 1.0000e-14
Partially contracted basis set               ... off
Rotationally invariant grid construction     ... off
Angular grids for H and He will be reduced by one unit
Diffuse basis detected: some atoms will have their outermost
                        angular grid increased by 1.

Total number of grid points                  ...    62777
Total number of batches                      ...      988
Average number of points per batch           ...       63
Average number of grid points per atom       ...     4484
Initializing property integral containers    ... done (  0.0 sec)

SHARK setup successfully completed in   0.6 seconds

Maximum memory used throughout the entire STARTUP-calculation: 28.6 MB
Occupation numbers will be reassigned to an Aufbau configuration
             **** ENERGY FILE WAS UPDATED (xtb_opt.en.tmp) ****
Finished Guess after   0.1 sec
Maximum memory used throughout the entire GUESS-calculation: 11.6 MB
----------------------------------------D-I-I-S--------------------------------------------
Iteration    Energy (Eh)           Delta-E    RMSDP     MaxDP     DIISErr   Damp  Time(sec)
-------------------------------------------------------------------------------------------
               ***  Starting incremental Fock matrix formation  ***
                              *** Initializing SOSCF ***
---------------------------------------S-O-S-C-F--------------------------------------
Iteration    Energy (Eh)           Delta-E    RMSDP     MaxDP     MaxGrad    Time(sec)
--------------------------------------------------------------------------------------
    1    -307.6390156886120621     0.00e+00  7.04e-05  1.27e-03  1.21e-04     1.4
               *** Restarting incremental Fock matrix formation ***
    2    -307.6390423421762534    -2.67e-05  3.57e-05  6.31e-04  2.72e-04     1.8
    3    -307.6390394577506413     2.88e-06  2.75e-05  5.71e-04  8.19e-04     1.2
    4    -307.6390444998595513    -5.04e-06  1.50e-05  3.33e-04  1.59e-04     1.1
    5    -307.6390442425008587     2.57e-07  7.61e-06  1.90e-04  1.49e-04     1.2
    6    -307.6390448931009587    -6.51e-07  4.15e-06  1.38e-04  2.08e-05     1.6
                  *** Gradient check signals convergence ***

               *****************************************************
               *                     SUCCESS                       *
               *           SCF CONVERGED AFTER   6 CYCLES          *
               *****************************************************

             **** ENERGY FILE WAS UPDATED (xtb_opt.en.tmp) ****

----------------
TOTAL SCF ENERGY
----------------

Total Energy       :       -307.63904489310096 Eh           -8371.28400 eV

Components:
Nuclear Repulsion  :        246.25552375856785 Eh            6700.95347 eV
Electronic Energy  :       -553.89456865166881 Eh          -15072.23747 eV
One Electron Energy:       -906.02740088006453 Eh          -24654.25898 eV
Two Electron Energy:        352.13283222839578 Eh            9582.02151 eV

Virial components:
Potential Energy   :       -613.92612367058882 Eh          -16705.77913 eV
Kinetic Energy     :        306.28707877748792 Eh            8334.49513 eV
Virial Ratio       :          2.00441404881005

DFT components:
N(Alpha)           :       24.000015434613 electrons
N(Beta)            :       24.000015434613 electrons
N(Total)           :       48.000030869225 electrons
E(X)               :      -40.200700304691 Eh       
E(C)               :       -1.537109320766 Eh       
E(XC)              :      -41.737809625457 Eh       

---------------
SCF CONVERGENCE
---------------

  Last Energy change         ...    6.5060e-07  Tolerance :   1.0000e-07
  Last MAX-Density change    ...    1.3838e-04  Tolerance :   1.0000e-07
  Last RMS-Density change    ...    4.1545e-06  Tolerance :   5.0000e-09
  Last DIIS Error            ...    1.5707e-03  Tolerance :   1.0000e-07
  Last Orbital Gradient      ...    2.0790e-05  Tolerance :   1.0000e-04
  Last Orbital Rotation      ...    4.6248e-05  Tolerance :   1.0000e-04


----------------
ORBITAL ENERGIES
----------------

  NO   OCC          E(Eh)            E(eV) 
   0   2.0000     -19.000257      -517.0233 
   1   2.0000     -18.932478      -515.1789 
   2   2.0000     -10.155548      -276.3465 
   3   2.0000     -10.087098      -274.4839 
   4   2.0000     -10.049245      -273.4539 
   5   2.0000     -10.029843      -272.9259 
   6   2.0000      -1.066460       -29.0199 
   7   2.0000      -0.977982       -26.6122 
   8   2.0000      -0.758652       -20.6440 
   9   2.0000      -0.686116       -18.6702 
  10   2.0000      -0.617666       -16.8075 
  11   2.0000      -0.533154       -14.5078 
  12   2.0000      -0.464776       -12.6472 
  13   2.0000      -0.457893       -12.4599 
  14   2.0000      -0.435923       -11.8621 
  15   2.0000      -0.418555       -11.3894 
  16   2.0000      -0.389278       -10.5928 
  17   2.0000      -0.368497       -10.0273 
  18   2.0000      -0.359268        -9.7762 
  19   2.0000      -0.336954        -9.1690 
  20   2.0000      -0.326282        -8.8786 
  21   2.0000      -0.317318        -8.6347 
  22   2.0000      -0.275129        -7.4867 
  23   2.0000      -0.238776        -6.4974 
  24   0.0000      -0.017591        -0.4787 
  25   0.0000       0.059795         1.6271 
  26   0.0000       0.096593         2.6284 
  27   0.0000       0.114385         3.1126 
  28   0.0000       0.124543         3.3890 
  29   0.0000       0.152137         4.1399 
  30   0.0000       0.154600         4.2069 
  31   0.0000       0.168888         4.5957 
  32   0.0000       0.170876         4.6498 
  33   0.0000       0.183415         4.9910 
  34   0.0000       0.187969         5.1149 
*Only the first 10 virtual orbitals were printed.
Total SCF time: 0 days 0 hours 0 min 8 sec 
Finished LeanSCF after   8.5 sec

Maximum memory used throughout the entire LEANSCF-calculation: 17.6 MB


-------------------------------------------------------------------------------
                          DFT DISPERSION CORRECTION                            
                                                                               
                                DFTD4 V3.4.0                                   
-------------------------------------------------------------------------------
-------------------------   ----------------
Dispersion correction           -0.002990852
-------------------------   ----------------

------------------   -----------------
gCP correction             0.009220507
------------------   -----------------

-------------------------   --------------------
FINAL SINGLE POINT ENERGY      -307.632815238250
-------------------------   --------------------

------------------------------------------------------------------------------
                         ORCA SCF GRADIENT CALCULATION
------------------------------------------------------------------------------

Nuc. rep. gradient        (SHARK) ... done (  0.0 sec)
HCore & Overlap gradient  (SHARK) ... done (  0.2 sec)
Split-RIJ-J gradient      (SHARK) ... done (  1.1 sec)
XC gradient                       ... done (  5.8 sec)
Dispersion correction             ... done (  0.0 sec)

-------------------
DISPERSION GRADIENT
-------------------

   1   C   :   -0.000061725    0.000033962    0.000010406
   2   C   :   -0.000052467   -0.000010055   -0.000010338
   3   C   :    0.000013576   -0.000019195   -0.000006210
   4   O   :    0.000019873   -0.000057821   -0.000016223
   5   O   :    0.000038580    0.000006697    0.000003239
   6   C   :    0.000074119    0.000000353    0.000004934
   7   H   :   -0.000024116    0.000020844    0.000000534
   8   H   :   -0.000023965    0.000012573    0.000003652
   9   H   :   -0.000025563    0.000015110    0.000012792
  10   H   :   -0.000018962   -0.000004909   -0.000012327
  11   H   :   -0.000018936   -0.000011777   -0.000000047
  12   H   :    0.000024832    0.000000642    0.000004675
  13   H   :    0.000029668    0.000010674    0.000005172
  14   H   :    0.000025087    0.000002901   -0.000000258

Difference to translation invariance:
           :    0.0000000000   -0.0000000000   -0.0000000000

Difference to rotation invariance:
           :   -0.0000000000   -0.0000000000    0.0000000000

Norm of the Dispersion gradient    ...    0.0001607014
RMS gradient                       ...    0.0000247968
MAX gradient                       ...    0.0000741188
gCP correction                   ... done

------------------
CARTESIAN GRADIENT
------------------

   1   C   :   -0.000001929    0.000175292    0.000077457
   2   C   :   -0.000061065   -0.000461842   -0.000017988
   3   C   :   -0.000297287    0.001093020   -0.000012501
   4   O   :    0.000253307   -0.000624050    0.000091885
   5   O   :    0.000505385   -0.000156209    0.000063281
   6   C   :   -0.001155145    0.000256622   -0.000127950
   7   H   :   -0.000181288   -0.000067430   -0.000032752
   8   H   :    0.000050285   -0.000118469   -0.000001335
   9   H   :   -0.000053401    0.000046242   -0.000079375
  10   H   :    0.000203478    0.000128028    0.000063523
  11   H   :    0.000063900    0.000099353   -0.000037324
  12   H   :    0.000192012   -0.000467578    0.000164288
  13   H   :    0.000386733    0.000205758    0.000184788
  14   H   :    0.000095015   -0.000108737   -0.000335996

Difference to translation invariance:
           :    0.0000000000   -0.0000000000   -0.0000000000

Difference to rotation invariance:
           :    0.0000044717   -0.0000850647   -0.0000110365

Norm of the Cartesian gradient     ...    0.0021179130
RMS gradient                       ...    0.0003268011
MAX gradient                       ...    0.0011551452

-------
TIMINGS
-------

Total SCF gradient time     ....        7.233 sec

Densities                   ....       0.000 sec  (  0.0%)
One electron gradient       ....       0.220 sec  (  3.0%)
RI-J Coulomb gradient       ....       1.123 sec  ( 15.5%)
XC gradient                 ....       5.834 sec  ( 80.7%)

Maximum memory used throughout the entire SCFGRAD-calculation: 31.7 MB

------------------------------------------------------------------------------
                              ORCA PROPERTY CALCULATIONS
------------------------------------------------------------------------------

GBWName                                 ... xtb_opt.gbw
Number of atoms                         ...     14
Number of basis functions               ...    164
Max core memory                         ...   1024 MB

Electric properties:
Dipole moment                           ... YES
Quadrupole moment                       ...  NO
Static polarizability (Dipole/Dipole)   ...  NO
Static polarizability (Dipole/Quad.)    ...  NO
Static polarizability (Quad./Quad.)     ...  NO
Static polarizability (Velocity)        ...  NO

Atomic electric properties:
Dipole moment                           ...  NO
Quadrupole moment                       ...  NO
Static polarizability                   ...  NO

Choice of electric origin               ... Center of mass
Position of electric origin             ...     0.020898     0.038715    -0.053591

General magnetic properties:
Magnetizability                         ...  NO

EPR properties:
g-Tensor (aka g-matrix)                 ...  NO
Zero-Field splitting spin-orbit         ...  NO
Zero-field splitting spin-spin          ...  NO
Hyperfine couplings                     ...  NO (   0 nuclei)
Quadrupole couplings                    ...  NO (   0 nuclei)
Contact density                         ...  NO (   0 nuclei)

NMR properties:
Chemical shifts                         ...  NO (   0 nuclei)
Spin-rotation constants                 ...  NO (   0 nuclei)
Spin-spin couplings                     ...  NO (   0 nuclei,    0 pairs)

Choice of magnetic origin               ... GIAO
Position of magnetic origin             ...     0.000000     0.000000     0.000000

Properties with geometric perturbations:
SCF Hessian                             ...  NO
IR spectrum                             ...  NO
VCD spectrum                            ...  NO
X-ray spectroscopy properties:
SCF XES/XAS/RIXS spectra                ...  NO


-------------
DIPOLE MOMENT
-------------

Method             : SCF
Type of density    : Electron Density
Multiplicity       :   1
Irrep              :   0
Energy             :  -307.6390448931009587 Eh
Relativity type    : 
Basis              : AO
                                X                 Y                 Z
Electronic contribution:      2.341057950      -3.203843789      -0.977236800
Nuclear contribution   :     -2.417246558       3.933406347       1.148799807
                        -----------------------------------------
Total Dipole Moment    :     -0.076188608       0.729562558       0.171563007
                        -----------------------------------------
Magnitude (a.u.)       :      0.753326022
Magnitude (Debye)      :      1.914802576



--------------------
Rotational spectrum 
--------------------
 
Rotational constants in cm-1:             0.203777             0.088640             0.064177 
Rotational constants in MHz :          6109.093493          2657.370704          1923.976661 

Dipole components along the rotational axes: 
x,y,z [a.u.] :    -0.225157     0.716168    -0.062515 
x,y,z [Debye]:    -0.572304     1.820354    -0.158901 

 

Dipole moment calculation done in   0.0 sec 

Maximum memory used throughout the entire PROP-calculation: 9.9 MB

--------------------------------
SUGGESTED CITATIONS FOR THIS RUN
--------------------------------

Below you find a list of papers that are relevant to this ORCA run
[...]
               *** Restarting incremental Fock matrix formation ***
    2    -307.6390586490807664    -1.82e-10  7.19e-07  2.40e-05  3.63e-06     1.7
                  *** Gradient check signals convergence ***

               *****************************************************
               *                     SUCCESS                       *
               *           SCF CONVERGED AFTER   2 CYCLES          *
               *****************************************************

             **** ENERGY FILE WAS UPDATED (xtb_opt.en.tmp) ****

----------------
TOTAL SCF ENERGY
----------------

Total Energy       :       -307.63905864908077 Eh           -8371.28437 eV

Components:
Nuclear Repulsion  :        246.25983524106084 Eh            6701.07079 eV
Electronic Energy  :       -553.89889389014161 Eh          -15072.35517 eV
One Electron Energy:       -906.03792598294262 Eh          -24654.54538 eV
Two Electron Energy:        352.13903209280107 Eh            9582.19021 eV

Virial components:
Potential Energy   :       -613.92771357980087 Eh          -16705.82239 eV
Kinetic Energy     :        306.28865493072016 Eh            8334.53802 eV
Virial Ratio       :          2.00440892503402

DFT components:
N(Alpha)           :       24.000018606133 electrons
N(Beta)            :       24.000018606133 electrons
N(Total)           :       48.000037212267 electrons
E(X)               :      -40.200405567967 Eh       
E(C)               :       -1.537056227063 Eh       
E(XC)              :      -41.737461795030 Eh       

---------------
SCF CONVERGENCE
---------------

  Last Energy change         ...    1.8213e-10  Tolerance :   1.0000e-07
  Last MAX-Density change    ...    2.3951e-05  Tolerance :   1.0000e-07
  Last RMS-Density change    ...    7.1906e-07  Tolerance :   5.0000e-09
  Last DIIS Error            ...    1.1775e-05  Tolerance :   1.0000e-07
  Last Orbital Gradient      ...    3.6296e-06  Tolerance :   1.0000e-04
  Last Orbital Rotation      ...    9.5112e-06  Tolerance :   1.0000e-04


----------------
ORBITAL ENERGIES
----------------

  NO   OCC          E(Eh)            E(eV) 
   0   2.0000     -19.000093      -517.0188 
   1   2.0000     -18.932751      -515.1864 
   2   2.0000     -10.155502      -276.3453 
   3   2.0000     -10.087200      -274.4867 
   4   2.0000     -10.049188      -273.4523 
   5   2.0000     -10.029658      -272.9209 
   6   2.0000      -1.066059       -29.0089 
   7   2.0000      -0.978153       -26.6169 
   8   2.0000      -0.758559       -20.6414 
   9   2.0000      -0.686205       -18.6726 
  10   2.0000      -0.617426       -16.8010 
  11   2.0000      -0.533024       -14.5043 
  12   2.0000      -0.464695       -12.6450 
  13   2.0000      -0.457813       -12.4577 
  14   2.0000      -0.435793       -11.8585 
  15   2.0000      -0.418482       -11.3875 
  16   2.0000      -0.389186       -10.5903 
  17   2.0000      -0.368492       -10.0272 
  18   2.0000      -0.359393        -9.7796 
  19   2.0000      -0.337004        -9.1703 
  20   2.0000      -0.326382        -8.8813 
  21   2.0000      -0.317186        -8.6311 
  22   2.0000      -0.275191        -7.4883 
  23   2.0000      -0.238870        -6.5000 
  24   0.0000      -0.017484        -0.4758 
  25   0.0000       0.059509         1.6193 
  26   0.0000       0.096473         2.6252 
  27   0.0000       0.114438         3.1140 
  28   0.0000       0.124363         3.3841 
  29   0.0000       0.152381         4.1465 
  30   0.0000       0.154620         4.2074 
  31   0.0000       0.168859         4.5949 
  32   0.0000       0.171017         4.6536 
  33   0.0000       0.183530         4.9941 
  34   0.0000       0.187863         5.1120 
*Only the first 10 virtual orbitals were printed.
Total SCF time: 0 days 0 hours 0 min 3 sec 
Finished LeanSCF after   3.9 sec

Maximum memory used throughout the entire LEANSCF-calculation: 17.6 MB


-------------------------------------------------------------------------------
                          DFT DISPERSION CORRECTION                            
                                                                               
                                DFTD4 V3.4.0                                   
-------------------------------------------------------------------------------
-------------------------   ----------------
Dispersion correction           -0.002992514
-------------------------   ----------------

------------------   -----------------
gCP correction             0.009217066
------------------   -----------------

-------------------------   --------------------
FINAL SINGLE POINT ENERGY      -307.632834097467
-------------------------   --------------------

------------------------------------------------------------------------------
                         ORCA SCF GRADIENT CALCULATION
------------------------------------------------------------------------------

Nuc. rep. gradient        (SHARK) ... done (  0.0 sec)
HCore & Overlap gradient  (SHARK) ... done (  0.3 sec)
Split-RIJ-J gradient      (SHARK) ... done (  0.9 sec)
XC gradient                       ... done (  5.7 sec)
Dispersion correction             ... done (  0.0 sec)

-------------------
DISPERSION GRADIENT
-------------------

   1   C   :   -0.000061674    0.000034004    0.000010572
   2   C   :   -0.000052501   -0.000010127   -0.000010311
   3   C   :    0.000013163   -0.000019344   -0.000006439
   4   O   :    0.000019802   -0.000057965   -0.000016738
   5   O   :    0.000038488    0.000006711    0.000003188
   6   C   :    0.000074336    0.000000615    0.000005110
   7   H   :   -0.000024108    0.000020823    0.000000605
   8   H   :   -0.000023976    0.000012663    0.000003696
   9   H   :   -0.000025600    0.000015056    0.000012857
  10   H   :   -0.000018951   -0.000004934   -0.000012309
  11   H   :   -0.000018981   -0.000011773   -0.000000034
  12   H   :    0.000025102    0.000000699    0.000004833
  13   H   :    0.000029860    0.000010721    0.000005171
  14   H   :    0.000025040    0.000002851   -0.000000202

Difference to translation invariance:
           :    0.0000000000   -0.0000000000    0.0000000000

Difference to rotation invariance:
           :   -0.0000000000    0.0000000000   -0.0000000000

Norm of the Dispersion gradient    ...    0.0001609805
RMS gradient                       ...    0.0000248398
MAX gradient                       ...    0.0000743365
gCP correction                   ... done

------------------
CARTESIAN GRADIENT
------------------

   1   C   :    0.000057057   -0.000057523   -0.000020219
   2   C   :   -0.000054658    0.000136805   -0.000017766
   3   C   :    0.000009418   -0.000219695    0.000297190
   4   O   :   -0.000000644   -0.000039401   -0.000080550
   5   O   :   -0.000252084    0.000166313   -0.000147603
   6   C   :    0.000354685   -0.000073307    0.000032078
   7   H   :    0.000015001    0.000027012   -0.000016570
   8   H   :    0.000001524   -0.000000727    0.000006844
   9   H   :    0.000034722    0.000009892    0.000011092
  10   H   :   -0.000049323    0.000001617   -0.000045632
  11   H   :   -0.000014692   -0.000029653   -0.000025653
  12   H   :   -0.000048118   -0.000021591   -0.000004959
  13   H   :   -0.000073947    0.000029124    0.000039491
  14   H   :    0.000021060    0.000071134   -0.000027743

Difference to translation invariance:
           :    0.0000000000   -0.0000000000    0.0000000000

Difference to rotation invariance:
           :    0.0000069917   -0.0000791646   -0.0000335455

Norm of the Cartesian gradient     ...    0.0006669628
RMS gradient                       ...    0.0001029146
MAX gradient                       ...    0.0003546854

-------
TIMINGS
-------

Total SCF gradient time     ....        7.020 sec

Densities                   ....       0.000 sec  (  0.0%)
One electron gradient       ....       0.278 sec  (  4.0%)
RI-J Coulomb gradient       ....       0.948 sec  ( 13.5%)
XC gradient                 ....       5.732 sec  ( 81.7%)

Maximum memory used throughout the entire SCFGRAD-calculation: 31.7 MB

------------------------------------------------------------------------------
                              ORCA PROPERTY CALCULATIONS
------------------------------------------------------------------------------

GBWName                                 ... xtb_opt.gbw
Number of atoms                         ...     14
Number of basis functions               ...    164
Max core memory                         ...   1024 MB

Electric properties:
Dipole moment                           ... YES
Quadrupole moment                       ...  NO
Static polarizability (Dipole/Dipole)   ...  NO
Static polarizability (Dipole/Quad.)    ...  NO
Static polarizability (Quad./Quad.)     ...  NO
Static polarizability (Velocity)        ...  NO

Atomic electric properties:
Dipole moment                           ...  NO
Quadrupole moment                       ...  NO
Static polarizability                   ...  NO

Choice of electric origin               ... Center of mass
Position of electric origin             ...     0.019223     0.035628    -0.062034

General magnetic properties:
Magnetizability                         ...  NO

EPR properties:
g-Tensor (aka g-matrix)                 ...  NO
Zero-Field splitting spin-orbit         ...  NO
Zero-field splitting spin-spin          ...  NO
Hyperfine couplings                     ...  NO (   0 nuclei)
Quadrupole couplings                    ...  NO (   0 nuclei)
Contact density                         ...  NO (   0 nuclei)

NMR properties:
Chemical shifts                         ...  NO (   0 nuclei)
Spin-rotation constants                 ...  NO (   0 nuclei)
Spin-spin couplings                     ...  NO (   0 nuclei,    0 pairs)

Choice of magnetic origin               ... GIAO
Position of magnetic origin             ...     0.000000     0.000000     0.000000

Properties with geometric perturbations:
SCF Hessian                             ...  NO
IR spectrum                             ...  NO
VCD spectrum                            ...  NO
X-ray spectroscopy properties:
SCF XES/XAS/RIXS spectra                ...  NO


-------------
DIPOLE MOMENT
-------------

Method             : SCF
Type of density    : Electron Density
Multiplicity       :   1
Irrep              :   0
Energy             :  -307.6390586490807664 Eh
Relativity type    : 
Basis              : AO
                                X                 Y                 Z
Electronic contribution:      2.333501670      -3.225622653      -1.025716736
Nuclear contribution   :     -2.405704078       3.956087994       1.208280348
                        -----------------------------------------
Total Dipole Moment    :     -0.072202408       0.730465341       0.182563612
                        -----------------------------------------
Magnitude (a.u.)       :      0.756387648
Magnitude (Debye)      :      1.922584611



--------------------
Rotational spectrum 
--------------------
 
Rotational constants in cm-1:             0.202749             0.088953             0.064230 
Rotational constants in MHz :          6078.260553          2666.755381          1925.577242 

Dipole components along the rotational axes: 
x,y,z [a.u.] :    -0.221377     0.721050    -0.056586 
x,y,z [Debye]:    -0.562696     1.832762    -0.143830 

 

Dipole moment calculation done in   0.0 sec 

Maximum memory used throughout the entire PROP-calculation: 10.0 MB

--------------------------------
SUGGESTED CITATIONS FOR THIS RUN
--------------------------------

Below you find a list of papers that are relevant to this ORCA run
We neither can nor want to force you to cite these papers, but we appreciate if you do
You receive ORCA, which is the product of decades of hard work by many enthusiastic individuals, for free
The only thing we kindly ask in return is that you cite our papers,
We deeply appreciate it, if you show your appreciation for ORCA by not just citing the generic ORCA reference.

Please note that relegating all ORCA citations to the supporting information does *not* help us.
SI sections are not indexed - citations you put there will not count into any citation statistics
But we need these citations in order to attract the funding resources that allow us to do what we are doing

Therefore, if you are a happy ORCA user, please consider citing a few of the papers listed below in the main body of your paper

In addition to the list printed below, the program has created the file xtb_opt.bibtex that contains the list in bibtex format
You can import this file easily into all common literature databanks and citation aid programs


List of essential papers. We consider these as the minimum necessary citations

  1. Neese,F.
     Software update: the ORCA program system, version 5.0
     WIRES Comput. Molec. Sci., 2022 12(1)e1606
     doi.org/10.1002/wcms.1606
  2. Grimme,S.; Hansen,A.; Ehlert,S.; Mewes,J.
     r2SCAN-3c: A 'Swiss army knife' composite electronic-structure method
     J. Chem. Phys., 2021 154 064103
     doi.org/10.1063/5.0040021

List of papers to cite with high priority. The work reported in these papers was absolutely
necessary for this run to complete.
Our perspective: the developers of density functionals and basis sets usually get cited in chemistry papers
Good! But without the algorithms to do something with them, the functionals or basis sets would not do anything.
Hence, in our opinion, the algorithm design and method developments papers are equally worthy of getting cited

  1. Neese,F.
     An improvement of the resolution of the identity approximation for the formation of the Coulomb matrix
     J. Comp. Chem., 2003 24(14)1740-1747
     doi.org/10.1002/jcc.10318
  2. Neese,F.
     The SHARK Integral Generation and Digestion System
     J. Comp. Chem., 2022  1-16
     doi.org/10.1002/jcc.26942
  3. Lehtola,S.; Steigemann,C.; Oliveira,M.; Marques,M.
     Recent developments in Libxc - A comprehensive library of functionals for density functional theory
     Software X, 2018 7 
     doi.org/10.1016/j.softx.2017.11.002
  4. Caldeweyher,E.; Bannwarth,C.; Grimme,S.
     Extension of the D3 dispersion coefficient model
     J. Chem. Phys., 2017 147 034112
     doi.org/10.1063/1.4993215
  5. Caldeweyher,E.; Ehlert,S.; Hansen,A.; Neugebauer,H.; Spicher,S.; Bannwarth,C.; Grimme,S.
     A generally applicable atomic-charge dependent London dispersion correction
     J. Chem. Phys., 2019 150 154122
     doi.org/10.1063/1.5090222
  6. Caldeweyher,E.; Mewes,J.; Ehlert,S.; Grimme,S.
     Extension and evaluation of the D4 London-dispersion model for periodic systems
     Phys. Chem. Chem. Phys., 2020 22(16)8499-8512
     doi.org/10.1039/D0CP00502A
  7. Wittmann,L.; Gordiy,I.; Friede,M.; Helmich-Paris,B.; Grimme,S.; Hansen,A.; Bursch,M.
     Extension of the D3 and D4 London Dispersion Corrections to the full Actinides Series
     Phys. Chem. Chem. Phys., 2024 26(32)21379-21394
     doi.org/https://doi.org/10.1039/D4CP01514B 

List of suggested additional citations. These are papers that are important in the 'surrounding' of 
of this run, or papers that preceded the highly important papers. If you like your results we are grateful for a citation.

  1. Neese,F.
     The ORCA program system
     WIRES Comput. Molec. Sci., 2012 2(1)73-78
     doi.org/10.1002/wcms.81
  2. Neese,F.
     Software update: the ORCA program system, version 4.0
     WIRES Comput. Molec. Sci., 2018 8(1)1-6
     doi.org/10.1002/wcms.1327
  3. Neese,F.; Wennmohs,F.; Becker,U.; Riplinger,C.
     The ORCA quantum chemistry program package
     J. Chem. Phys., 2020 152 Art. No. L224108
     doi.org/10.1063/5.0004608

List of optional additional citations

  1. Neese,F.
     Approximate second-order SCF convergence for spin unrestricted wavefunctions
     Chem. Phys. Lett., 2000 325(1-3)93-98
     doi.org/10.1016/s0009-2614(00)00662-x

Timings for individual modules:

Sum of individual times          ...       12.107 sec (=   0.202 min)
Startup calculation              ...        0.698 sec (=   0.012 min)   5.8 %
SCF iterations                   ...        4.080 sec (=   0.068 min)  33.7 %
Property calculations            ...        0.200 sec (=   0.003 min)   1.6 %
SCF Gradient evaluation          ...        7.130 sec (=   0.119 min)  58.9 %
                             ****ORCA TERMINATED NORMALLY****
TOTAL RUN TIME: 0 days 0 hours 0 minutes 12 seconds 285 msec
  ------------------------------------------------------------------------
          * successful ORCA run, taking over control again...

         :::::::::::::::::::::::::::::::::::::::::::::::::::::
         ::                  ORCA SUMMARY                   ::
         :::::::::::::::::::::::::::::::::::::::::::::::::::::
         :: total energy            -307.632834097467 Eh    ::
         :: gradient norm              0.000666962829 Eh/a0 ::
         :: HOMO-LUMO gap              0.000000000000 eV    ::
         :::::::::::::::::::::::::::::::::::::::::::::::::::::

           -------------------------------------------------
          |                Property Printout                |
           -------------------------------------------------
           -------------------------------------------------
          |                Geometry Summary                 |
           -------------------------------------------------

      molecular mass/u    :       88.1052794
   center of mass at/Å    :        0.0101838       0.0188438      -0.0328298
  moments of inertia/u·Å² :        0.8314513E+02   0.1895059E+03   0.2624513E+03
rotational constants/cm⁻¹ :        0.2027495E+00   0.8895571E-01   0.6423147E-01

 * 12 selected distances

     #   Z          #   Z                                           value/Å
     1   6          2   6                                         1.5247758 (max)
     3   6          4   8                                         1.2094073
     3   6          5   8                                         1.3541731
     5   8          6   6                                         1.4436321
     1   6          7   1                                         1.0920932
     1   6          8   1                                         1.0936593
     1   6          9   1                                         1.0930396
     2   6         10   1                                         1.0977017
     2   6         11   1                                         1.0949533
     6   6         12   1                                         1.0929143
     6   6         13   1                                         1.0899478 (min)
     6   6         14   1                                         1.0931532

 * 3 distinct bonds (by element types)

   Z      Z             #   av. dist./Å        max./Å        min./Å
   1 H    6 C           8     1.0934328     1.0977017     1.0899478
   6 C    6 C           1     1.5247758     1.5247758     1.5247758
   6 C    8 O           3     1.3357375     1.4436321     1.2094073


optimized geometry written to: xtbopt.coord


           -------------------------------------------------
          | TOTAL ENERGY             -307.632834097467 Eh   |
          | GRADIENT NORM               0.000666962829 Eh/α |
           -------------------------------------------------

------------------------------------------------------------------------
 * finished run on 2025/04/08 at 22:28:23.173     
------------------------------------------------------------------------
 total:
 * wall-time:     0 d,  0 h,  1 min, 33.180 sec
 *  cpu-time:     0 d,  0 h,  0 min,  0.488 sec
 * ratio c/w:     0.005 speedup
 SCF:
 * wall-time:     0 d,  0 h,  0 min, 12.802 sec
 *  cpu-time:     0 d,  0 h,  0 min,  0.025 sec
 * ratio c/w:     0.002 speedup
 ANC optimizer:
 * wall-time:     0 d,  0 h,  1 min, 19.814 sec
 *  cpu-time:     0 d,  0 h,  0 min,  0.006 sec
 * ratio c/w:     0.000 speedup

