
                                 *****************
                                 * O   R   C   A *
                                 *****************

                                            #,                                       
                                            ###                                      
                                            ####                                     
                                            #####                                    
                                            ######                                   
                                           ########,                                 
                                     ,,################,,,,,                         
                               ,,#################################,,                 
                          ,,##########################################,,             
                       ,#########################################, ''#####,          
                    ,#############################################,,   '####,        
                  ,##################################################,,,,####,       
                ,###########''''           ''''###############################       
              ,#####''   ,,,,##########,,,,          '''####'''          '####       
            ,##' ,,,,###########################,,,                        '##       
           ' ,,###''''                  '''############,,,                           
         ,,##''                                '''############,,,,        ,,,,,,###''
      ,#''                                            '''#######################'''  
     '                                                          ''''####''''         
             ,#######,   #######,   ,#######,      ##                                
            ,#'     '#,  ##    ##  ,#'     '#,    #''#        ,####,   ,####,        
            ##       ##  ##   ,#'  ##            #'  '#       #'       #'  '#        
            ##       ##  #######   ##           ,######,      #####,   #    #        
            '#,     ,#'  ##    ##  '#,     ,#' ,#      #,     #,   #   #,  ,#        
             '#######'   ##     ##  '#######'  #'      '#     '####' # '####'        



                #########################################################
                #                        -***-                          #
                #          Department of theory and spectroscopy        #
                #                                                       #
                #                      Frank Neese                      #
                #                                                       #
                #     Directorship, Architecture, Infrastructure        #
                #                    SHARK, DRIVERS                     #
                #        Core code/Algorithms in most modules           #
                #                                                       #
                #        Max Planck Institute fuer Kohlenforschung      #
                #                Kaiser Wilhelm Platz 1                 #
                #                 D-45470 Muelheim/Ruhr                 #
                #                      Germany                          #
                #                                                       #
                #                  All rights reserved                  #
                #                        -***-                          #
                #########################################################


                         Program Version 6.0.1  -  RELEASE   -


 With contributions from (in alphabetic order):
[Max-Planck-Institut fuer Kohlenforschung]                               
  Daniel Aravena         : Magnetic Suceptibility                        
  Michael Atanasov       : Ab Initio Ligand Field Theory (pilot matlab implementation)
  Alexander A. Auer      : GIAO ZORA, VPT2 properties, NMR spectrum      
  Ute Becker             : All parallelization in ORCA, NUMFREQ, NUMCALC 
  Giovanni Bistoni       : ED, misc. LED, open-shell LED, HFLD           
  Martin Brehm           : Molecular dynamics                            
  Dmytro Bykov           : pre 5.0 version of the SCF Hessian            
  Marcos Casanova-Páez   : Triplet and SCS-CIS(D). UHF-(DLPNO)-IP/EA/STEOM-CCSD. UHF-CVS-IP/STEOM-CCSD   
  Vijay G. Chilkuri      : MRCI spin determinant printing, contributions to CSF-ICE 
  Pauline Colinet        : FMM embedding                                 
  Dipayan Datta          : RHF DLPNO-CCSD density                        
  Achintya Kumar Dutta   : EOM-CC, STEOM-CC                              
  Nicolas Foglia         : Exact transition moments, OPA infrastructure, MCD improvements    
  Dmitry Ganyushin       : Spin-Orbit,Spin-Spin,Magnetic field MRCI      
  Miquel Garcia-Rates    : C-PCM and meta-GGA Hessian, CCSD/C-PCM, Gaussian charge scheme 
  Tiago L. C. Gouveia    : GS-ROHF, GS-ROCIS                             
  Yang Guo               : DLPNO-NEVPT2, F12-NEVPT2, CIM, IAO-localization        
  Andreas Hansen         : Spin unrestricted coupled pair/coupled cluster methods 
  Ingolf Harden          : AUTO-CI MPn and infrastructure                
  Benjamin Helmich-Paris : MC-RPA, TRAH-(SCF,CASSCF), AVAS, COSX integrals, SCF dyn. polar. 
  Lee Huntington         : MR-EOM, pCC                                   
  Robert Izsak           : Overlap fitted RIJCOSX, COSX-SCS-MP3, EOM     
  Riya Kayal             : Wick's Theorem for AUTO-CI, AUTO-CI UHF-CCSDT 
  Emily Kempfer          : AUTO-CI, RHF CISDT and CCSDT                  
  Christian Kollmar      : KDIIS, OOCD, Brueckner-CCSD(T), CCSD density, CASPT2, CASPT2-K, improved NEVPT2 
  Axel Koslowski         : Symmetry handling                             
  Simone Kossmann        : meta-GGA functionals, TD-DFT gradient, OOMP2, (MP2 Hessian; deprecated post 5.0) 
  Lucas Lang             : DCDCAS                                        
  Marvin Lechner         : AUTO-CI (C++ implementation), FIC-MRCC        
  Spencer Leger          : CASSCF response                               
  Dagmar Lenk            : GEPOL surface, SMD, ORCA-2-JSON               
  Dimitrios Liakos       : Extrapolation schemes; Compound Job, initial MDCI parallelization 
  Dimitrios Manganas     : Further ROCIS development; embedding schemes. LFT, Crystal Embedding 
  Dimitrios Pantazis     : SARC Basis sets                               
  Anastasios Papadopoulos: AUTO-CI, single reference methods and gradients 
  Taras Petrenko         : pre 6.0 DFT Hessian and TD-DFT gradient, (ASA, deprecated), ECA, 1-Electron XAS/XES, NRVS 
  Peter Pinski           : DLPNO-MP2, DLPNO-MP2 Gradient                 
  Christoph Reimann      : Effective Core Potentials                     
  Marius Retegan         : Local ZFS, SOC                                
  Christoph Riplinger    : Optimizer, TS searches, QM/MM, DLPNO-CCSD(T), (RO)-DLPNO pert. Triples 
  Michael Roemelt        : Original ROCIS implementation                 
  Masaaki Saitow         : Open-shell DLPNO-CCSD energy and density      
  Barbara Sandhoefer     : DKH picture change effects                    
  Kantharuban Sivalingam : CASSCF convergence/infrastructure, NEVPT2 and variants, FIC-MRCI 
  Bernardo de Souza      : ESD, SOC TD-DFT                               
  Georgi L. Stoychev     : AutoAux, RI-MP2 NMR, DLPNO-MP2 response, X2C  
  Van Anh Tran           : RI-MP2 g-tensors                              
  Willem Van den Heuvel  : Paramagnetic NMR                              
  Zikuan Wang            : NOTCH, Electric field optimization            
  Frank Wennmohs         : Technical directorship and infrastructure     
  Hang Xu                : AUTO-CI-Response properties                   
                                                                         
[FACCTs GmbH]                                                            
  Markus Bursch, Miquel Garcia-Rates, Christoph Riplinger, Bernardo de Souza, Georgi L. Stoychev 
                                                                 
  APM, Basis sets (HGBS, AHGBS, def-TZVP (Ac-Lr), def2-XVPD (La-Lu)), CI-OPT, improved COSX, DLPNO-Multilevel,           
  DOCKER, DRACO, updates on ESD, GOAT, IRC, LR-CPCM, MBIS, meta-GGA TD-DFT gradient, ML-optimized integration grids, 
  MM, NACMEs, nearIR, NEB, NEB-TS, NL-DFT gradient (VV10), 2- and 3-layer-ONIOM, interface openCOSMO-RS, QMMM,   
  Crystal-QMMM, SF, symmetry and pop. for TD-DFT, r2SCAN hybrids, SOLVATOR                                   
                                                                         
[Other institutions]                                                     
  V. Asgeirsson          : NEB                                           
  Christoph Bannwarth    : sTDA-DFT, sTD-DFT, PBEh-3c, B97-3c, D3        
  Sebastian Ehlert       : rSCAN, r2SCAN, r2SCAN-3c, D4, dhf basis sets  
  Marvin Friede          : D4 for Fr, Ra, Ac-Lr                          
  Lars Goerigk           : TD-DFT with DH, B97 family of functionals     
  Stefan Grimme          : VdW corrections, initial TS optimization, DFT functionals, gCP, sTDA/sTD-DF 
  Waldemar Hujo          : DFT-NL                                        
  H. Jonsson             : NEB                                           
  Holger Kruse           : gCP                                           
  Marcel Mueller         : wB97X-3c, vDZP basis set                      
  Hagen Neugebauer       : wr2SCAN                                       
  Tobias Risthaus        : range-separated hybrid DFT                    
  Lukas Wittmann         : regularized MP2, r2SCAN double-hybrids, wr2SCAN        
                                                                         
We gratefully acknowledge several colleagues who have allowed us to      
interface, adapt or use parts of their codes:                            
  Ed Valeev, F. Pavosevic, A. Kumar             : LibInt (2-el integral package), F12 methods 
  Garnet Chan, S. Sharma, J. Yang, R. Olivares  : DMRG                   
  Ulf Ekstrom                                   : XCFun DFT Library      
  Mihaly Kallay                                 : mrcc  (arbitrary order and MRCC methods)
  Frank Weinhold                                : gennbo (NPA and NBO analysis)           
  Simon Mueller                                 : openCOSMO-RS                            
  Christopher J. Cramer and Donald G. Truhlar   : smd solvation model                     
  S Lehtola, MJT Oliveira, MAL Marques          : LibXC Library                           
  Liviu Ungur et al                             : ANISO software                          


 Your calculation uses the libint2 library for the computation of 2-el integrals
 For citations please refer to: http://libint.valeyev.net

 Your ORCA version has been built with support for libXC version: 6.2.2
 For citations please refer to: https://libxc.gitlab.io

 This ORCA versions uses:
   CBLAS   interface :  Fast vector & matrix operations
   LAPACKE interface :  Fast linear algebra routines
   SCALAPACK package :  Parallel linear algebra routines
   Shared memory     :  Shared parallel matrices
   BLAS/LAPACK       :  OpenBLAS 0.3.27  USE64BITINT DYNAMIC_ARCH NO_AFFINITY Zen SINGLE_THREADED
        Core in use  :  Zen
   Copyright (c) 2011-2014, The OpenBLAS Project


Your calculation utilizes the geometrical counterpoise correction gCP
Please cite in your paper:
H.Kruse, S. Grimme J.Chem.Phys., 136, (2012), 154101 
   

Your calculation utilizes the DFT-NL dispersion correction.
Cite in your paper:
Vydrov, O. A.; Van Voorhis, T. J. Chem. Phys. 2010, 133, 244103
Hujo, W.; Grimme, S. J. Chem. Theory Comput. 2011, 7, 3866 
   

================================================================================

----- Orbital basis set information -----
Your calculation utilizes the basis: def2-TZVP
   F. Weigend and R. Ahlrichs, Phys. Chem. Chem. Phys. 7, 3297 (2005).

----- AuxJ basis set information -----
Your calculation utilizes the auxiliary basis: def2/J
   F. Weigend, Phys. Chem. Chem. Phys. 8, 1057 (2006).

================================================================================
                                        WARNINGS
                       Please study these warnings very carefully!
================================================================================

WARNING: Old DensityContainer found on disk!
         Will remove this file - 
         If you want to keep old densities, please start your calculation with a different basename. 


================================================================================
                                       INPUT FILE
================================================================================
NAME = sp.inp
|  1> ! wb97x-v def2-tzvp def2/J RIJCOSX DEFGRID2 scfconv7 GCP(DFT/TZ) printgap
|  2> %output
|  3>     printlevel normal
|  4> end
|  5> * xyz 0 1
|  6> C 2.86525556377469 -0.504376628030309 0.0015791599722404304
|  7> C 1.3817846815205088 -0.25160599809442635 -0.002740616210095137
|  8> C 0.8926835224513364 1.0596493448350843 -0.003940484868010139
|  9> C -0.47309094132851426 1.3226713090224456 0.00044506730113403904
| 10> C -1.3642597812688404 0.24355359303740604 0.005571326684055495
| 11> C -0.9090019022958702 -1.070659432028666 0.005103297216549603
| 12> C 0.47117514142903794 -1.3029201263644414 0.0017390121505749048
| 13> C -1.8696789423320208 -2.229058805222521 -0.004349240610349712
| 14> C -0.996104336144935 2.7337535821722105 -0.0007483740050465636
| 15> H 3.3272978746298114 -0.11445298962410767 0.9153668580089823
| 16> H 3.087805721024927 -1.572511450629646 -0.058875223451332274
| 17> H 3.351798086366035 -0.007404268401385475 -0.8444110244990262
| 18> H 1.5966693835192916 1.8890246462186213 -0.006666375731662145
| 19> H -2.434566240813598 0.4382237543306858 0.00977527135592445
| 20> H 0.8373449283099581 -2.3272862861265162 0.0032042393659202912
| 21> H -1.8181038876114288 -2.772317858657542 -0.9547182430123323
| 22> H -1.6329368280138508 -2.9437836814790943 0.7905453460615549
| 23> H -2.9002781252238874 -1.8934689474092425 0.1348304767959806
| 24> H -1.6287498372400668 2.9190923723250464 0.8740270890266736
| 25> H -0.18075876469342536 3.4610530010829383 0.010877318803638838
| 26> H -1.6081296297985102 2.9249527753822395 -0.8889562456806014
| 27> *
| 28> 
| 29>                          ****END OF INPUT****
================================================================================

                       ****************************
                       * Single Point Calculation *
                       ****************************

---------------------------------
CARTESIAN COORDINATES (ANGSTROEM)
---------------------------------
  C      2.865256   -0.504377    0.001579
  C      1.381785   -0.251606   -0.002741
  C      0.892684    1.059649   -0.003940
  C     -0.473091    1.322671    0.000445
  C     -1.364260    0.243554    0.005571
  C     -0.909002   -1.070659    0.005103
  C      0.471175   -1.302920    0.001739
  C     -1.869679   -2.229059   -0.004349
  C     -0.996104    2.733754   -0.000748
  H      3.327298   -0.114453    0.915367
  H      3.087806   -1.572511   -0.058875
  H      3.351798   -0.007404   -0.844411
  H      1.596669    1.889025   -0.006666
  H     -2.434566    0.438224    0.009775
  H      0.837345   -2.327286    0.003204
  H     -1.818104   -2.772318   -0.954718
  H     -1.632937   -2.943784    0.790545
  H     -2.900278   -1.893469    0.134830
  H     -1.628750    2.919092    0.874027
  H     -0.180759    3.461053    0.010877
  H     -1.608130    2.924953   -0.888956

----------------------------
CARTESIAN COORDINATES (A.U.)
----------------------------
  NO LB      ZA    FRAG     MASS         X           Y           Z
   0 C     6.0000    0    12.011    5.414548   -0.953134    0.002984
   1 C     6.0000    0    12.011    2.611195   -0.475466   -0.005179
   2 C     6.0000    0    12.011    1.686927    2.002447   -0.007446
   3 C     6.0000    0    12.011   -0.894012    2.499487    0.000841
   4 C     6.0000    0    12.011   -2.578077    0.460250    0.010528
   5 C     6.0000    0    12.011   -1.717765   -2.023253    0.009644
   6 C     6.0000    0    12.011    0.890392   -2.462162    0.003286
   7 C     6.0000    0    12.011   -3.533181   -4.212311   -0.008219
   8 C     6.0000    0    12.011   -1.882364    5.166046   -0.001414
   9 H     1.0000    0     1.008    6.287682   -0.216285    1.729793
  10 H     1.0000    0     1.008    5.835107   -2.971616   -0.111258
  11 H     1.0000    0     1.008    6.333980   -0.013992   -1.595706
  12 H     1.0000    0     1.008    3.017268    3.569739   -0.012598
  13 H     1.0000    0     1.008   -4.600663    0.828123    0.018473
  14 H     1.0000    0     1.008    1.582353   -4.397934    0.006055
  15 H     1.0000    0     1.008   -3.435718   -5.238922   -1.804156
  16 H     1.0000    0     1.008   -3.085803   -5.562945    1.493914
  17 H     1.0000    0     1.008   -5.480731   -3.578138    0.254793
  18 H     1.0000    0     1.008   -3.077891    5.516285    1.651672
  19 H     1.0000    0     1.008   -0.341585    6.540442    0.020555
  20 H     1.0000    0     1.008   -3.038925    5.527360   -1.679884

--------------------------------
INTERNAL COORDINATES (ANGSTROEM)
--------------------------------
 C      0   0   0     0.000000000000     0.00000000     0.00000000
 C      1   0   0     1.504857970149     0.00000000     0.00000000
 C      2   1   0     1.399504182862   120.12547876     0.00000000
 C      3   2   1     1.390877303225   121.35587666   180.40314010
 C      4   3   2     1.399536789359   118.65072068   359.97283235
 C      5   4   3     1.390832783145   121.34208240   359.94081560
 C      2   1   3     1.390859877154   121.22712324   180.35416217
 C      6   5   4     1.504951438931   121.22340577   180.66660815
 C      4   3   2     1.504891230972   121.23733873   179.99510624
 H      1   2   3     1.095687682641   110.99686898    63.11270710
 H      1   2   3     1.092746678886   111.39494206   183.43232823
 H      1   2   3     1.095173294391   111.06995100   303.97269166
 H      3   2   1     1.087872655052   119.21931819     0.29867312
 H      5   4   3     1.087874102179   119.24300290   179.95494638
 H      7   2   1     1.087845802024   119.43225383   359.68027237
 H      8   6   5     1.095897634880   110.91447094   111.98621788
 H      8   6   5     1.094867974393   111.09311591   231.11956166
 H      8   6   5     1.092760825699   111.39818340   351.79943395
 H      9   4   3     1.095364280919   111.02350077   238.61750871
 H      9   4   3     1.092651821198   111.39452900   359.08859492
 H      9   4   3     1.095465798125   111.00615374   119.50870010

---------------------------
INTERNAL COORDINATES (A.U.)
---------------------------
 C      0   0   0     0.000000000000     0.00000000     0.00000000
 C      1   0   0     2.843769434030     0.00000000     0.00000000
 C      2   1   0     2.644679628887   120.12547876     0.00000000
 C      3   2   1     2.628377188982   121.35587666   180.40314010
 C      4   3   2     2.644741246235   118.65072068   359.97283235
 C      5   4   3     2.628293058224   121.34208240   359.94081560
 C      2   1   3     2.628344258480   121.22712324   180.35416217
 C      6   5   4     2.843946064430   121.22340577   180.66660815
 C      4   3   2     2.843832287877   121.23733873   179.99510624
 H      1   2   3     2.070549648503   110.99686898    63.11270710
 H      1   2   3     2.064991956847   111.39494206   183.43232823
 H      1   2   3     2.069577595583   111.06995100   303.97269166
 H      3   2   1     2.055781386630   119.21931819     0.29867312
 H      5   4   3     2.055784121304   119.24300290   179.95494638
 H      7   2   1     2.055730641761   119.43225383   359.68027237
 H      8   6   5     2.070946400735   110.91447094   111.98621788
 H      8   6   5     2.069000624404   111.09311591   231.11956166
 H      8   6   5     2.065018690448   111.39818340   351.79943395
 H      9   4   3     2.069938507817   111.02350077   238.61750871
 H      9   4   3     2.064812701794   111.39452900   359.08859492
 H      9   4   3     2.070130347534   111.00615374   119.50870010

---------------------
BASIS SET INFORMATION
---------------------
There are 2 groups of distinct atoms

 Group   1 Type C   : 11s6p2d1f contracted to 5s3p2d1f pattern {62111/411/11/1}
 Group   2 Type H   : 5s1p contracted to 3s1p pattern {311/1}

Atom   0C    basis set group =>   1
Atom   1C    basis set group =>   1
Atom   2C    basis set group =>   1
Atom   3C    basis set group =>   1
Atom   4C    basis set group =>   1
Atom   5C    basis set group =>   1
Atom   6C    basis set group =>   1
Atom   7C    basis set group =>   1
Atom   8C    basis set group =>   1
Atom   9H    basis set group =>   2
Atom  10H    basis set group =>   2
Atom  11H    basis set group =>   2
Atom  12H    basis set group =>   2
Atom  13H    basis set group =>   2
Atom  14H    basis set group =>   2
Atom  15H    basis set group =>   2
Atom  16H    basis set group =>   2
Atom  17H    basis set group =>   2
Atom  18H    basis set group =>   2
Atom  19H    basis set group =>   2
Atom  20H    basis set group =>   2
---------------------------------
AUXILIARY/J BASIS SET INFORMATION
---------------------------------
There are 2 groups of distinct atoms

 Group   1 Type C   : 12s5p4d2f1g contracted to 6s4p3d1f1g pattern {711111/2111/211/2/1}
 Group   2 Type H   : 5s2p1d contracted to 3s1p1d pattern {311/2/1}

Atom   0C    basis set group =>   1
Atom   1C    basis set group =>   1
Atom   2C    basis set group =>   1
Atom   3C    basis set group =>   1
Atom   4C    basis set group =>   1
Atom   5C    basis set group =>   1
Atom   6C    basis set group =>   1
Atom   7C    basis set group =>   1
Atom   8C    basis set group =>   1
Atom   9H    basis set group =>   2
Atom  10H    basis set group =>   2
Atom  11H    basis set group =>   2
Atom  12H    basis set group =>   2
Atom  13H    basis set group =>   2
Atom  14H    basis set group =>   2
Atom  15H    basis set group =>   2
Atom  16H    basis set group =>   2
Atom  17H    basis set group =>   2
Atom  18H    basis set group =>   2
Atom  19H    basis set group =>   2
Atom  20H    basis set group =>   2

Checking for AutoStart:
The File: sp.gbw exists
Trying to determine its content:
     ... Fine, the file contains calculation information
     ... Fine, the calculation information was read
     ... Fine, the file contains a basis set
     ... Fine, the basis set was read
     ... Fine, the file contains a geometry
     ... Fine, the geometry was read
     ... Fine, the file contains a set of orbitals
     ... Fine, the orbitals can be read
     => possible old guess file was deleted
     => GBW file was renamed to GES file
     => GES file is set as startup file
     => Guess is set to MORead
     ... now leaving AutoStart

------------------------------------------------------------------------------
                             ORCA STARTUP CALCULATIONS
                           -- RI-GTO INTEGRALS CHOSEN --
------------------------------------------------------------------------------
------------------------------------------------------------------------------
                   ___                                                        
                  /   \      - P O W E R E D   B Y -                         
                 /     \                                                     
                 |  |  |   _    _      __       _____    __    __             
                 |  |  |  | |  | |    /  \     |  _  \  |  |  /  |          
                  \  \/   | |  | |   /    \    | | | |  |  | /  /          
                 / \  \   | |__| |  /  /\  \   | |_| |  |  |/  /          
                |  |  |   |  __  | /  /__\  \  |    /   |      \           
                |  |  |   | |  | | |   __   |  |    \   |  |\   \          
                \     /   | |  | | |  |  |  |  | |\  \  |  | \   \       
                 \___/    |_|  |_| |__|  |__|  |_| \__\ |__|  \__/        
                                                                              
                      - O R C A' S   B I G   F R I E N D -                    
                                      &                                       
                       - I N T E G R A L  F E E D E R -                       
                                                                              
 v1 FN, 2020, v2 2021, v3 2022-2024                                           
------------------------------------------------------------------------------


----------------------
SHARK INTEGRAL PACKAGE
----------------------

Number of atoms                             ...     21
Number of basis functions                   ...    351
Number of shells                            ...    147
Maximum angular momentum                    ...      3
Integral batch strategy                     ... SHARK/LIBINT Hybrid
RI-J (if used) integral strategy            ... SPLIT-RIJ (Revised 2003 algorithm where possible)
Printlevel                                  ...      1
Contraction scheme used                     ... SEGMENTED contraction
Prescreening option                         ... SCHWARTZ
   Thresh                                   ... 3.000e-11
   Tcut                                     ... 1.000e-12
   Tpresel                                  ... 1.000e-12 
Coulomb Range Separation                    ... NOT USED
Exchange Range Separation                   ... Long Range
   Mu parameter                             ... 3.000e-01
   Scaling (regular/separated)              ... 1.670e-01 8.330e-01
Multipole approximations                    ... NOT USED
Finite Nucleus Model                        ... NOT USED
CABS basis                                  ... NOT available
Auxiliary Coulomb fitting basis             ... AVAILABLE
   # of basis functions in Aux-J            ...    573
   # of shells in Aux-J                     ...    195
   Maximum angular momentum in Aux-J        ...      4
Auxiliary J/K fitting basis                 ... NOT available
Auxiliary Correlation fitting basis         ... NOT available
Auxiliary 'external' fitting basis          ... NOT available

Checking pre-screening integrals            ... done (  0.0 sec) Dimension = 147
Check shell pair data                       ... done (  0.0 sec)
Shell pair information
Shell pair cut-off parameter TPreSel        ...   1.0e-12
Total number of shell pairs                 ...     10878
Shell pairs after pre-screening             ...      9715
Total number of primitive shell pairs       ...     32112
Primitive shell pairs kept                  ...     21401
          la=0 lb=0:   2836 shell pairs
          la=1 lb=0:   2813 shell pairs
          la=1 lb=1:    711 shell pairs
          la=2 lb=0:   1350 shell pairs
          la=2 lb=1:    660 shell pairs
          la=2 lb=2:    165 shell pairs
          la=3 lb=0:    655 shell pairs
          la=3 lb=1:    324 shell pairs
          la=3 lb=2:    156 shell pairs
          la=3 lb=3:     45 shell pairs

Calculating one electron integrals          ... done (  0.0 sec)
Calculating RI/J V-Matrix + Cholesky decomp.... done (  0.0 sec)
Calculating Nuclear repulsion               ... done (  0.0 sec) ENN=    419.735169296126 Eh

Diagonalization of the overlap matrix:
Smallest eigenvalue                        ... 6.405e-06
Time for diagonalization                   ...    0.008 sec
Threshold for overlap eigenvalues          ... 1.000e-07
Number of eigenvalues below threshold      ... 0
Time for construction of square roots      ...    0.004 sec
Total time needed                          ...    0.013 sec

-------------------
DFT GRID GENERATION
-------------------

General Integration Accuracy     IntAcc      ... 4.388
Radial Grid Type                 RadialGrid  ... OptM3 with GC (2021)
Angular Grid (max. ang.)         AngularGrid ... 4 (Lebedev-302)
Angular grid pruning method      GridPruning ... 4 (adaptive)
Weight generation scheme         WeightScheme... mBecke (2022)
Basis function cutoff            BFCut       ... 1.0000e-11
Integration weight cutoff        WCut        ... 1.0000e-14
Partially contracted basis set               ... off
Rotationally invariant grid construction     ... off
Angular grids for H and He will be reduced by one unit

Total number of grid points                  ...    92512
Total number of batches                      ...     1457
Average number of points per batch           ...       63
Average number of grid points per atom       ...     4405

--------------------
COSX GRID GENERATION
--------------------

GRIDX 1
-------
General Integration Accuracy     IntAcc      ... 3.816
Radial Grid Type                 RadialGrid  ... OptM3 with GC (2021)
Angular Grid (max. ang.)         AngularGrid ... 1 (Lebedev-50)
Angular grid pruning method      GridPruning ... 4 (adaptive)
Weight generation scheme         WeightScheme... mBecke (2022)
Basis function cutoff            BFCut       ... 1.0000e-11
Integration weight cutoff        WCut        ... 1.0000e-14
Partially contracted basis set               ... on
Rotationally invariant grid construction     ... off
Angular grids for H and He will be reduced by one unit

Total number of grid points                  ...    11884
Total number of batches                      ...      106
Average number of points per batch           ...      112
Average number of grid points per atom       ...      566
UseSFitting                                  ... on

GRIDX 2
-------
General Integration Accuracy     IntAcc      ... 4.020
Radial Grid Type                 RadialGrid  ... OptM3 with GC (2021)
Angular Grid (max. ang.)         AngularGrid ... 2 (Lebedev-110)
Angular grid pruning method      GridPruning ... 4 (adaptive)
Weight generation scheme         WeightScheme... mBecke (2022)
Basis function cutoff            BFCut       ... 1.0000e-11
Integration weight cutoff        WCut        ... 1.0000e-14
Partially contracted basis set               ... on
Rotationally invariant grid construction     ... off
Angular grids for H and He will be reduced by one unit

Total number of grid points                  ...    25154
Total number of batches                      ...      209
Average number of points per batch           ...      120
Average number of grid points per atom       ...     1198
UseSFitting                                  ... on

GRIDX 3
-------
General Integration Accuracy     IntAcc      ... 4.338
Radial Grid Type                 RadialGrid  ... OptM3 with GC (2021)
Angular Grid (max. ang.)         AngularGrid ... 3 (Lebedev-194)
Angular grid pruning method      GridPruning ... 4 (adaptive)
Weight generation scheme         WeightScheme... mBecke (2022)
Basis function cutoff            BFCut       ... 1.0000e-11
Integration weight cutoff        WCut        ... 1.0000e-14
Partially contracted basis set               ... on
Rotationally invariant grid construction     ... off
Angular grids for H and He will be reduced by one unit

Total number of grid points                  ...    55026
Total number of batches                      ...      441
Average number of points per batch           ...      124
Average number of grid points per atom       ...     2620
UseSFitting                                  ... on
Initializing property integral containers    ... done (  0.0 sec)

SHARK setup successfully completed in   1.5 seconds

Maximum memory used throughout the entire STARTUP-calculation: 56.3 MB
-------------------------------------------------------------------------------
                                 ORCA GUESS
                   Start orbitals & Density for SCF / CASSCF
-------------------------------------------------------------------------------

------------
SCF SETTINGS
------------
Hamiltonian:
 Density Functional     Method          .... DFT(GTOs)
 Exchange Functional    Exchange        .... WB97X-V
 Correlation Functional Correlation     .... WB97X-V
 Gradients option       PostSCFGGA      .... off
 Hybrid DFT is turned on
   Fraction HF Exchange ScalHFX         ....  0.167000
   Scaling of DF-GGA-X  ScalDFX         ....  0.000000
   Scaling of DF-GGA-C  ScalDFC         ....  1.000000
   Scaling of DF-LDA-C  ScalLDAC        ....  1.000000
   Perturbative correction              ....  0.000000
 Long-range corrected/Screened/Range-Separated Hybrid DFT is turned on
   Amount of maximum screened exact exchange              ....  0.833000
   Range separation parameter mu (erf(mu*r12)/r12)        ....  0.300000
   NL short-range parameter             ....  6.000000
   NL long-range parameter              ....  0.010000
 RI-approximation to the Coulomb term is turned on
   Number of AuxJ basis functions       .... 573
   RIJ-COSX (HFX calculated with COS-X)).... on


General Settings:
 Integral files         IntName         .... sp
 Hartree-Fock type      HFTyp           .... RHF
 Total Charge           Charge          ....    0
 Multiplicity           Mult            ....    1
 Number of Electrons    NEL             ....   66
 Basis Dimension        Dim             ....  351
 Nuclear Repulsion      ENuc            ....    419.7351692961 Eh

Convergence Acceleration:
 AO-DIIS                CNVDIIS         .... on
   Start iteration      DIISMaxIt       ....    12
   Startup error        DIISStart       ....  0.200000
   # of expansion vecs  DIISMaxEq       ....     5
   Bias factor          DIISBfac        ....   1.050
   Max. coefficient     DIISMaxC        ....  10.000
 MO-DIIS                CNVKDIIS        .... off
 Trust-Rad. Augm. Hess. CNVTRAH         .... auto
   Auto Start mean grad. ratio tolernc. ....  1.125000
   Auto Start start iteration           ....     1
   Auto Start num. interpolation iter.  ....    10
   Max. Number of Micro iterations      ....    24
   Max. Number of Macro iterations      .... Maxiter - #DIIS iter
   Number of Davidson start vectors     ....     2
   Converg. threshold    (grad. norm)   ....   1.000e-04
   Grad. Scal. Fac. for Micro threshold ....   0.100
   Minimum threshold for Micro iter.    ....   1.000e-02
   NR start threshold (gradient norm)   ....   1.000e-04
   Initial trust radius                 ....   0.400
   Minimum AH scaling param. (alpha)    ....   1.000
   Maximum AH scaling param. (alpha)    .... 1000.000
   Quad. conv. algorithm                .... NR
   White noise on init. David. guess    .... on
   Maximum white noise                  ....   0.010
   Pseudo random numbers                .... off
   Inactive MOs                         .... canonical
   Orbital update algorithm             .... Taylor
   Preconditioner                       .... Diag
   Full preconditioner red. dimension   ....   250
 SOSCF                  CNVSOSCF        .... on
   Start iteration      SOSCFMaxIt      ....   150
   Startup grad/error   SOSCFStart      ....  0.003300
   Hessian update       SOSCFHessUp     .... L-BFGS
 Level Shifting         CNVShift        .... on
   Level shift para.    LevelShift      ....    0.2500
   Turn off err/grad.   ShiftErr        ....    0.0010
 Zerner damping         CNVZerner       .... off
 Static damping         CNVDamp         .... on
   Fraction old density DampFac         ....    0.7000
   Max. Damping (<1)    DampMax         ....    0.9800
   Min. Damping (>=0)   DampMin         ....    0.0000
   Turn off err/grad.   DampErr         ....    0.1000

SCF Procedure:
 Maximum # iterations   MaxIter         ....   125
 SCF integral mode      SCFMode         .... Direct
   Integral package                     .... SHARK and LIBINT hybrid scheme
 Reset frequency        DirectResetFreq ....    20
 Integral Threshold     Thresh          ....  3.000e-11 Eh
 Primitive CutOff       TCut            ....  1.000e-12 Eh

Convergence Tolerance:
 Convergence Check Mode ConvCheckMode   .... Total+1el-Energy
 Convergence forced     ConvForced      .... 0
 Energy Change          TolE            ....  1.000e-07 Eh
 1-El. energy change                    ....  1.000e-04 Eh
 Orbital Gradient       TolG            ....  1.000e-04
 Orbital Rotation angle TolX            ....  1.000e-04
 DIIS Error             TolErr          ....  1.000e-07

---------------------
INITIAL GUESS: MOREAD
---------------------
Guess MOs are being read from file: sp.ges
Input Geometry matches current geometry (good)
Atom 0: N(Shells)= 11 and 9 - projection required
Input basis set needs projection
NBasis(read)= 231
NBasis(calc)= 351
Basis set overlap was calculated
Using GuessMode=FMatrix for the initial guess
C*T matrix was formed
Effective Fockian was calculated
Effective Fockian was diagonalized
Initial density was built
                      ------------------
                      INITIAL GUESS DONE (   0.0 sec)
                      ------------------
             **** ENERGY FILE WAS UPDATED (sp.en.tmp) ****
Finished Guess after   0.1 sec
Maximum memory used throughout the entire GUESS-calculation: 36.2 MB

-------------------------------------------------------------------------------------------
                                      ORCA LEAN-SCF
                              memory conserving SCF solver
-------------------------------------------------------------------------------------------

----------------------------------------D-I-I-S--------------------------------------------
Iteration    Energy (Eh)           Delta-E    RMSDP     MaxDP     DIISErr   Damp  Time(sec)
-------------------------------------------------------------------------------------------
               ***  Starting incremental Fock matrix formation  ***
    1    -350.4514123202138194     0.00e+00  1.13e-03  3.72e-02  4.56e-02  0.700  15.6
    2    -350.4564756165729591    -5.06e-03  9.48e-04  2.85e-02  3.39e-02  0.700   7.4
                               ***Turning on AO-DIIS***
    3    -350.4602993959840092    -3.82e-03  7.62e-04  2.11e-02  2.47e-02  0.700   7.4
    4    -350.4631118055860384    -2.81e-03  1.88e-03  4.94e-02  1.74e-02  0.000   7.3
                              *** Initializing SOSCF ***
---------------------------------------S-O-S-C-F--------------------------------------
Iteration    Energy (Eh)           Delta-E    RMSDP     MaxDP     MaxGrad    Time(sec)
--------------------------------------------------------------------------------------
    5    -350.4702435570445118    -7.13e-03  7.81e-05  1.58e-03  7.29e-04     7.5
               *** Restarting incremental Fock matrix formation ***
    6    -350.4702459407727133    -2.38e-06  3.46e-05  7.65e-04  3.47e-04    15.7
    7    -350.4702487570722838    -2.82e-06  9.87e-06  2.07e-04  1.02e-04    11.5
    8    -350.4702490537673043    -2.97e-07  1.56e-06  5.22e-05  2.09e-05    10.7
                  *** Gradient check signals convergence ***

               *****************************************************
               *                     SUCCESS                       *
               *           SCF CONVERGED AFTER   8 CYCLES          *
               *****************************************************


------------------
NL GRID GENERATION
------------------

General Integration Accuracy     IntAcc      ... 4.004
Radial Grid Type                 RadialGrid  ... OptM3 with GC (2021)
Angular Grid (max. ang.)         AngularGrid ... 2 (Lebedev-110)
Angular grid pruning method      GridPruning ... 4 (adaptive)
Weight generation scheme         WeightScheme... mBecke (2022)
Basis function cutoff            BFCut       ... 1.0000e-10
Integration weight cutoff        WCut        ... 1.0000e-14
Partially contracted basis set               ... off
Rotationally invariant grid construction     ... off
Angular grids for H and He will be reduced by one unit

Total number of grid points                  ...    28321
Total number of batches                      ...      452
Average number of points per batch           ...       62
Average number of grid points per atom       ...     1349
Final grid set up in    0.1 sec

-------------------------------------------------------------------------------
                    post-SCF DFT-NL dispersion correction                      
-------------------------------------------------------------------------------

SCF Energy:     -350.470249054 
NL    Energy:      0.248889526 
SC+NL Energy:   -350.221359527 
NL done in  :              2.4 sec
-------------------------------------------------------------------------------
Recomputing exchange energy using gridx3       ... done (   29.763 sec)
Old exchange energy                            :    -17.065830984 Eh
New exchange energy                            :    -17.065847776 Eh
Exchange energy change after final integration :     -0.000016793 Eh
Total energy after final integration           :   -350.221376320 Eh
             **** ENERGY FILE WAS UPDATED (sp.en.tmp) ****

----------------
TOTAL SCF ENERGY
----------------

Total Energy       :       -350.22137632026801 Eh           -9530.00815 eV

Components:
Nuclear Repulsion  :        419.73516929612634 Eh           11421.57462 eV
Electronic Energy  :       -770.20541834989365 Eh          -20958.35494 eV
One Electron Energy:      -1302.33190017715287 Eh          -35438.25265 eV
Two Electron Energy:        532.12648182725923 Eh           14479.89771 eV

Virial components:
Potential Energy   :       -698.95192580950288 Eh          -19019.44883 eV
Kinetic Energy     :        348.73054948923487 Eh            9489.44069 eV
Virial Ratio       :          2.00427501070158

DFT components:
N(Alpha)           :       32.999899012279 electrons
N(Beta)            :       32.999899012279 electrons
N(Total)           :       65.999798024558 electrons
E(X)               :      -33.837586221052 Eh       
E(C)               :       -2.667509037483 Eh       
NL Energy, E(C,NL) :        0.248889526302 Eh       
E(XC)              :      -36.256205732232 Eh       

---------------
SCF CONVERGENCE
---------------

  Last Energy change         ...    2.9670e-07  Tolerance :   1.0000e-07
  Last MAX-Density change    ...    5.2182e-05  Tolerance :   1.0000e-05
  Last RMS-Density change    ...    1.5576e-06  Tolerance :   1.0000e-06
  Last DIIS Error            ...    7.2928e-04  Tolerance :   1.0000e-07
  Last Orbital Gradient      ...    2.0851e-05  Tolerance :   1.0000e-04
  Last Orbital Rotation      ...    5.9852e-05  Tolerance :   1.0000e-04


----------------
ORBITAL ENERGIES
----------------

  NO   OCC          E(Eh)            E(eV) 
   0   2.0000     -10.277909      -279.6761 
   1   2.0000     -10.277885      -279.6755 
   2   2.0000     -10.277872      -279.6751 
   3   2.0000     -10.264455      -279.3100 
   4   2.0000     -10.264454      -279.3100 
   5   2.0000     -10.264448      -279.3098 
   6   2.0000     -10.259982      -279.1883 
   7   2.0000     -10.259971      -279.1880 
   8   2.0000     -10.259937      -279.1871 
   9   2.0000      -0.996016       -27.1030 
  10   2.0000      -0.913491       -24.8574 
  11   2.0000      -0.913479       -24.8570 
  12   2.0000      -0.830373       -22.5956 
  13   2.0000      -0.805879       -21.9291 
  14   2.0000      -0.805865       -21.9287 
  15   2.0000      -0.691431       -18.8148 
  16   2.0000      -0.691392       -18.8137 
  17   2.0000      -0.610881       -16.6229 
  18   2.0000      -0.590630       -16.0719 
  19   2.0000      -0.542418       -14.7600 
  20   2.0000      -0.540197       -14.6995 
  21   2.0000      -0.522631       -14.2215 
  22   2.0000      -0.522615       -14.2211 
  23   2.0000      -0.510112       -13.8809 
  24   2.0000      -0.510083       -13.8801 
  25   2.0000      -0.500079       -13.6078 
  26   2.0000      -0.499914       -13.6034 
  27   2.0000      -0.467338       -12.7169 
  28   2.0000      -0.442896       -12.0518 
  29   2.0000      -0.432131       -11.7589 
  30   2.0000      -0.432068       -11.7572 
  31   2.0000      -0.326106        -8.8738 
  32   2.0000      -0.326035        -8.8719 
  33   0.0000       0.074768         2.0345 
  34   0.0000       0.075184         2.0458 
  35   0.0000       0.114842         3.1250 
  36   0.0000       0.133389         3.6297 
  37   0.0000       0.133588         3.6351 
  38   0.0000       0.161867         4.4046 
  39   0.0000       0.165996         4.5170 
  40   0.0000       0.166245         4.5238 
  41   0.0000       0.181019         4.9258 
  42   0.0000       0.205221         5.5843 
  43   0.0000       0.212682         5.7874 
*Only the first 10 virtual orbitals were printed.

                    ********************************
                    * MULLIKEN POPULATION ANALYSIS *
                    ********************************

-----------------------
MULLIKEN ATOMIC CHARGES
-----------------------
   0 C :   -0.368478
   1 C :    0.240068
   2 C :   -0.338548
   3 C :    0.241007
   4 C :   -0.336701
   5 C :    0.240339
   6 C :   -0.337231
   7 C :   -0.368585
   8 C :   -0.368582
   9 H :    0.122419
  10 H :    0.115372
  11 H :    0.121669
  12 H :    0.105653
  13 H :    0.106285
  14 H :    0.106291
  15 H :    0.122855
  16 H :    0.121203
  17 H :    0.115451
  18 H :    0.122011
  19 H :    0.115347
  20 H :    0.122153
Sum of atomic charges:    0.0000000

--------------------------------
MULLIKEN REDUCED ORBITAL CHARGES
--------------------------------
  0 C s       :     3.270213  s :     3.270213
      pz      :     1.057778  p :     3.039458
      px      :     0.913696
      py      :     1.067985
      dz2     :     0.005323  d :     0.055514
      dxz     :     0.021626
      dyz     :     0.004012
      dx2y2   :     0.010070
      dxy     :     0.014484
      f0      :     0.000313  f :     0.003292
      f+1     :     0.000518
      f-1     :     0.000483
      f+2     :     0.000358
      f-2     :     0.000026
      f+3     :     0.000607
      f-3     :     0.000988

  1 C s       :     3.102868  s :     3.102868
      pz      :     0.889421  p :     2.506558
      px      :     0.772666
      py      :     0.844472
      dz2     :     0.005370  d :     0.140329
      dxz     :     0.025137
      dyz     :     0.025884
      dx2y2   :     0.043496
      dxy     :     0.040442
      f0      :     0.001728  f :     0.010177
      f+1     :     0.000825
      f-1     :     0.000580
      f+2     :     0.001047
      f-2     :     0.001144
      f+3     :     0.001928
      f-3     :     0.002924

  2 C s       :     3.258933  s :     3.258933
      pz      :     1.028739  p :     2.984267
      px      :     0.961549
      py      :     0.993979
      dz2     :     0.003846  d :     0.087826
      dxz     :     0.014585
      dyz     :     0.011661
      dx2y2   :     0.021809
      dxy     :     0.035924
      f0      :     0.001543  f :     0.007523
      f+1     :     0.000651
      f-1     :     0.000643
      f+2     :     0.001017
      f-2     :     0.000271
      f+3     :     0.001371
      f-3     :     0.002026

  3 C s       :     3.103499  s :     3.103499
      pz      :     0.889334  p :     2.505101
      px      :     0.842992
      py      :     0.772775
      dz2     :     0.005370  d :     0.140218
      dxz     :     0.028299
      dyz     :     0.022691
      dx2y2   :     0.037571
      dxy     :     0.046288
      f0      :     0.001727  f :     0.010175
      f+1     :     0.000612
      f-1     :     0.000793
      f+2     :     0.000947
      f-2     :     0.001244
      f+3     :     0.001928
      f-3     :     0.002923

  4 C s       :     3.257706  s :     3.257706
      pz      :     1.028574  p :     2.983870
      px      :     1.010857
      py      :     0.944439
      dz2     :     0.003818  d :     0.087602
      dxz     :     0.004480
      dyz     :     0.021756
      dx2y2   :     0.032825
      dxy     :     0.024722
      f0      :     0.001542  f :     0.007523
      f+1     :     0.000662
      f-1     :     0.000634
      f+2     :     0.000353
      f-2     :     0.000935
      f+3     :     0.001373
      f-3     :     0.002024

  5 C s       :     3.104115  s :     3.104115
      pz      :     0.889238  p :     2.505110
      px      :     0.809125
      py      :     0.806747
      dz2     :     0.005405  d :     0.140258
      dxz     :     0.023290
      dyz     :     0.027737
      dx2y2   :     0.044495
      dxy     :     0.039332
      f0      :     0.001727  f :     0.010177
      f+1     :     0.000673
      f-1     :     0.000732
      f+2     :     0.001287
      f-2     :     0.000904
      f+3     :     0.001928
      f-3     :     0.002926

  6 C s       :     3.255426  s :     3.255426
      pz      :     1.028513  p :     2.986274
      px      :     0.961865
      py      :     0.995896
      dz2     :     0.003885  d :     0.088005
      dxz     :     0.020330
      dyz     :     0.005927
      dx2y2   :     0.031872
      dxy     :     0.025992
      f0      :     0.001543  f :     0.007526
      f+1     :     0.000629
      f-1     :     0.000664
      f+2     :     0.000561
      f-2     :     0.000728
      f+3     :     0.001375
      f-3     :     0.002026

  7 C s       :     3.270813  s :     3.270813
      pz      :     1.058404  p :     3.038915
      px      :     0.993502
      py      :     0.987010
      dz2     :     0.005427  d :     0.055563
      dxz     :     0.005703
      dyz     :     0.019764
      dx2y2   :     0.017607
      dxy     :     0.007062
      f0      :     0.000371  f :     0.003295
      f+1     :     0.000058
      f-1     :     0.000856
      f+2     :    -0.000036
      f-2     :     0.000451
      f+3     :     0.000620
      f-3     :     0.000974

  8 C s       :     3.269821  s :     3.269821
      pz      :     1.057561  p :     3.039961
      px      :     1.066394
      py      :     0.916006
      dz2     :     0.005296  d :     0.055507
      dxz     :     0.011580
      dyz     :     0.014085
      dx2y2   :     0.009098
      dxy     :     0.015448
      f0      :     0.000299  f :     0.003292
      f+1     :     0.000935
      f-1     :     0.000087
      f+2     :     0.000251
      f-2     :     0.000125
      f+3     :     0.000605
      f-3     :     0.000991

  9 H s       :     0.856574  s :     0.856574
      pz      :     0.009977  p :     0.021007
      px      :     0.005883
      py      :     0.005147

 10 H s       :     0.863361  s :     0.863361
      pz      :     0.004272  p :     0.021267
      px      :     0.004618
      py      :     0.012377

 11 H s       :     0.857362  s :     0.857362
      pz      :     0.009151  p :     0.020969
      px      :     0.006059
      py      :     0.005759

 12 H s       :     0.872474  s :     0.872474
      pz      :     0.004776  p :     0.021873
      px      :     0.007660
      py      :     0.009437

 13 H s       :     0.871843  s :     0.871843
      pz      :     0.004775  p :     0.021872
      px      :     0.013325
      py      :     0.003772

 14 H s       :     0.871839  s :     0.871839
      pz      :     0.004777  p :     0.021870
      px      :     0.004656
      py      :     0.012438

 15 H s       :     0.856105  s :     0.856105
      pz      :     0.010450  p :     0.021039
      px      :     0.004114
      py      :     0.006475

 16 H s       :     0.857845  s :     0.857845
      pz      :     0.008571  p :     0.020952
      px      :     0.004364
      py      :     0.008016

 17 H s       :     0.863305  s :     0.863305
      pz      :     0.004378  p :     0.021244
      px      :     0.012162
      py      :     0.004704

 18 H s       :     0.857004  s :     0.857004
      pz      :     0.009496  p :     0.020984
      px      :     0.007053
      py      :     0.004436

 19 H s       :     0.863386  s :     0.863386
      pz      :     0.004247  p :     0.021267
      px      :     0.008628
      py      :     0.008392

 20 H s       :     0.856851  s :     0.856851
      pz      :     0.009661  p :     0.020996
      px      :     0.006878
      py      :     0.004457


------------------------
MULLIKEN OVERLAP CHARGES
------------------------
B(  0-C ,  1-C ) :   0.6082 B(  0-C ,  2-C ) :  -0.1468 B(  0-C ,  6-C ) :  -0.1341 
B(  0-C ,  9-H ) :   0.8140 B(  0-C , 10-H ) :   0.8630 B(  0-C , 11-H ) :   0.8300 
B(  1-C ,  2-C ) :   0.9197 B(  1-C ,  3-C ) :  -0.0645 B(  1-C ,  4-C ) :  -0.1438 
B(  1-C ,  5-C ) :  -0.0643 B(  1-C ,  6-C ) :   1.0349 B(  1-C ,  9-H ) :  -0.0678 
B(  1-C , 10-H ) :  -0.1304 B(  1-C , 11-H ) :  -0.0813 B(  1-C , 12-H ) :  -0.0849 
B(  1-C , 14-H ) :  -0.0914 B(  2-C ,  3-C ) :   1.0343 B(  2-C ,  5-C ) :  -0.1442 
B(  2-C ,  8-C ) :  -0.1337 B(  2-C , 12-H ) :   0.8332 B(  3-C ,  4-C ) :   0.9171 
B(  3-C ,  5-C ) :  -0.0622 B(  3-C ,  6-C ) :  -0.1447 B(  3-C ,  8-C ) :   0.6097 
B(  3-C , 12-H ) :  -0.0945 B(  3-C , 13-H ) :  -0.0838 B(  3-C , 18-H ) :  -0.0755 
B(  3-C , 19-H ) :  -0.1309 B(  3-C , 20-H ) :  -0.0732 B(  4-C ,  5-C ) :   1.0283 
B(  4-C ,  7-C ) :  -0.1359 B(  4-C ,  8-C ) :  -0.1482 B(  4-C , 13-H ) :   0.8345 
B(  5-C ,  6-C ) :   0.9191 B(  5-C ,  7-C ) :   0.6093 B(  5-C , 13-H ) :  -0.0961 
B(  5-C , 14-H ) :  -0.0840 B(  5-C , 15-H ) :  -0.0611 B(  5-C , 16-H ) :  -0.0890 
B(  5-C , 17-H ) :  -0.1294 B(  6-C ,  7-C ) :  -0.1471 B(  6-C , 14-H ) :   0.8308 
B(  7-C , 15-H ) :   0.8072 B(  7-C , 16-H ) :   0.8379 B(  7-C , 17-H ) :   0.8625 
B(  8-C , 18-H ) :   0.8236 B(  8-C , 19-H ) :   0.8623 B(  8-C , 20-H ) :   0.8207 
B(  9-H , 11-H ) :  -0.0654 B( 15-H , 16-H ) :  -0.0647 B( 18-H , 20-H ) :  -0.0657 



                     *******************************
                     * LOEWDIN POPULATION ANALYSIS *
                     *******************************

----------------------
LOEWDIN ATOMIC CHARGES
----------------------
   0 C :   -0.251554
   1 C :   -0.165917
   2 C :   -0.102463
   3 C :   -0.165866
   4 C :   -0.102290
   5 C :   -0.165821
   6 C :   -0.102535
   7 C :   -0.251498
   8 C :   -0.251547
   9 H :    0.126760
  10 H :    0.122988
  11 H :    0.126286
  12 H :    0.143796
  13 H :    0.143861
  14 H :    0.143762
  15 H :    0.126993
  16 H :    0.125969
  17 H :    0.123025
  18 H :    0.126504
  19 H :    0.122954
  20 H :    0.126592

-------------------------------
LOEWDIN REDUCED ORBITAL CHARGES
-------------------------------
  0 C s       :     2.814571  s :     2.814571
      pz      :     1.069852  p :     3.158998
      px      :     1.026785
      py      :     1.062361
      dz2     :     0.034077  d :     0.253439
      dxz     :     0.078695
      dyz     :     0.019454
      dx2y2   :     0.061722
      dxy     :     0.059490
      f0      :     0.002016  f :     0.024546
      f+1     :     0.003676
      f-1     :     0.002904
      f+2     :     0.002292
      f-2     :     0.003557
      f+3     :     0.003730
      f-3     :     0.006370

  1 C s       :     2.712123  s :     2.712123
      pz      :     0.819059  p :     2.865179
      px      :     0.993166
      py      :     1.052954
      dz2     :     0.031977  d :     0.530371
      dxz     :     0.074569
      dyz     :     0.085227
      dx2y2   :     0.178032
      dxy     :     0.160566
      f0      :     0.004116  f :     0.058244
      f+1     :     0.003887
      f-1     :     0.004205
      f+2     :     0.006638
      f-2     :     0.007685
      f+3     :     0.012612
      f-3     :     0.019101

  2 C s       :     2.748169  s :     2.748169
      pz      :     0.919712  p :     2.934183
      px      :     1.012259
      py      :     1.002213
      dz2     :     0.026285  d :     0.378144
      dxz     :     0.045660
      dyz     :     0.036595
      dx2y2   :     0.104029
      dxy     :     0.165575
      f0      :     0.002859  f :     0.041967
      f+1     :     0.003769
      f-1     :     0.003555
      f+2     :     0.007069
      f-2     :     0.001474
      f+3     :     0.009829
      f-3     :     0.013412

  3 C s       :     2.712130  s :     2.712130
      pz      :     0.819030  p :     2.865096
      px      :     1.050008
      py      :     0.996059
      dz2     :     0.031968  d :     0.530395
      dxz     :     0.087466
      dyz     :     0.072375
      dx2y2   :     0.169916
      dxy     :     0.168670
      f0      :     0.004117  f :     0.058244
      f+1     :     0.004190
      f-1     :     0.003900
      f+2     :     0.006520
      f-2     :     0.007807
      f+3     :     0.012615
      f-3     :     0.019096

  4 C s       :     2.748145  s :     2.748145
      pz      :     0.919652  p :     2.934109
      px      :     0.980187
      py      :     1.034270
      dz2     :     0.026276  d :     0.378065
      dxz     :     0.013114
      dyz     :     0.069091
      dx2y2   :     0.158579
      dxy     :     0.111005
      f0      :     0.002859  f :     0.041971
      f+1     :     0.003170
      f-1     :     0.004154
      f+2     :     0.002056
      f-2     :     0.006488
      f+3     :     0.009831
      f-3     :     0.013414

  5 C s       :     2.712147  s :     2.712147
      pz      :     0.819037  p :     2.865072
      px      :     1.025949
      py      :     1.020086
      dz2     :     0.031997  d :     0.530362
      dxz     :     0.077872
      dyz     :     0.081929
      dx2y2   :     0.159918
      dxy     :     0.178645
      f0      :     0.004115  f :     0.058240
      f+1     :     0.004061
      f-1     :     0.004035
      f+2     :     0.008304
      f-2     :     0.006018
      f+3     :     0.012593
      f-3     :     0.019115

  6 C s       :     2.748194  s :     2.748194
      pz      :     0.919686  p :     2.934218
      px      :     1.029200
      py      :     0.985331
      dz2     :     0.026293  d :     0.378157
      dxz     :     0.064625
      dyz     :     0.017637
      dx2y2   :     0.141833
      dxy     :     0.127770
      f0      :     0.002860  f :     0.041965
      f+1     :     0.004046
      f-1     :     0.003277
      f+2     :     0.003687
      f-2     :     0.004855
      f+3     :     0.009829
      f-3     :     0.013411

  7 C s       :     2.814595  s :     2.814595
      pz      :     1.069894  p :     3.158966
      px      :     1.046238
      py      :     1.042834
      dz2     :     0.034485  d :     0.253391
      dxz     :     0.016908
      dyz     :     0.080677
      dx2y2   :     0.075506
      dxy     :     0.045816
      f0      :     0.002301  f :     0.024545
      f+1     :     0.002470
      f-1     :     0.003703
      f+2     :     0.002218
      f-2     :     0.003781
      f+3     :     0.003799
      f-3     :     0.006274

  8 C s       :     2.814567  s :     2.814567
      pz      :     1.069834  p :     3.159033
      px      :     1.060829
      py      :     1.028370
      dz2     :     0.033984  d :     0.253401
      dxz     :     0.054021
      dyz     :     0.044229
      dx2y2   :     0.044037
      dxy     :     0.077129
      f0      :     0.001949  f :     0.024547
      f+1     :     0.003629
      f-1     :     0.003049
      f+2     :     0.004311
      f-2     :     0.001505
      f+3     :     0.003714
      f-3     :     0.006391

  9 H s       :     0.813110  s :     0.813110
      pz      :     0.028478  p :     0.060131
      px      :     0.015688
      py      :     0.015965

 10 H s       :     0.817272  s :     0.817272
      pz      :     0.013282  p :     0.059741
      px      :     0.012425
      py      :     0.034034

 11 H s       :     0.813605  s :     0.813605
      pz      :     0.026368  p :     0.060108
      px      :     0.016057
      py      :     0.017684

 12 H s       :     0.798215  s :     0.798215
      pz      :     0.014233  p :     0.057989
      px      :     0.019912
      py      :     0.023844

 13 H s       :     0.798151  s :     0.798151
      pz      :     0.014228  p :     0.057988
      px      :     0.032761
      py      :     0.011000

 14 H s       :     0.798244  s :     0.798244
      pz      :     0.014234  p :     0.057994
      px      :     0.012958
      py      :     0.030802

 15 H s       :     0.812863  s :     0.812863
      pz      :     0.029682  p :     0.060144
      px      :     0.012802
      py      :     0.017660

 16 H s       :     0.813948  s :     0.813948
      pz      :     0.024871  p :     0.060084
      px      :     0.013742
      py      :     0.021471

 17 H s       :     0.817219  s :     0.817219
      pz      :     0.013578  p :     0.059756
      px      :     0.031764
      py      :     0.014414

 18 H s       :     0.813377  s :     0.813377
      pz      :     0.027248  p :     0.060119
      px      :     0.020214
      py      :     0.012656

 19 H s       :     0.817293  s :     0.817293
      pz      :     0.013217  p :     0.059753
      px      :     0.025346
      py      :     0.021190

 20 H s       :     0.813280  s :     0.813280
      pz      :     0.027665  p :     0.060128
      px      :     0.019754
      py      :     0.012709


---------------------------------
LOEWDIN BOND ORDERS (THRESH 0.050000)
---------------------------------
B(  0-C ,  1-C ) :   1.2092 B(  0-C ,  2-C ) :   0.1746 B(  0-C ,  6-C ) :   0.1795 
B(  0-C ,  9-H ) :   0.8949 B(  0-C , 10-H ) :   0.8966 B(  0-C , 11-H ) :   0.8953 
B(  1-C ,  2-C ) :   1.4617 B(  1-C ,  3-C ) :   0.2311 B(  1-C ,  4-C ) :   0.1002 
B(  1-C ,  5-C ) :   0.2311 B(  1-C ,  6-C ) :   1.5119 B(  1-C ,  9-H ) :   0.0812 
B(  1-C , 10-H ) :   0.0805 B(  1-C , 11-H ) :   0.0811 B(  1-C , 12-H ) :   0.0919 
B(  1-C , 14-H ) :   0.0936 B(  2-C ,  3-C ) :   1.5119 B(  2-C ,  4-C ) :   0.2330 
B(  2-C ,  5-C ) :   0.1002 B(  2-C ,  6-C ) :   0.2330 B(  2-C ,  8-C ) :   0.1795 
B(  2-C , 12-H ) :   0.8163 B(  3-C ,  4-C ) :   1.4616 B(  3-C ,  5-C ) :   0.2312 
B(  3-C ,  6-C ) :   0.1002 B(  3-C ,  8-C ) :   1.2092 B(  3-C , 12-H ) :   0.0936 
B(  3-C , 13-H ) :   0.0919 B(  3-C , 18-H ) :   0.0812 B(  3-C , 19-H ) :   0.0805 
B(  3-C , 20-H ) :   0.0812 B(  4-C ,  5-C ) :   1.5119 B(  4-C ,  6-C ) :   0.2330 
B(  4-C ,  7-C ) :   0.1794 B(  4-C ,  8-C ) :   0.1746 B(  4-C , 13-H ) :   0.8164 
B(  5-C ,  6-C ) :   1.4616 B(  5-C ,  7-C ) :   1.2091 B(  5-C , 13-H ) :   0.0937 
B(  5-C , 14-H ) :   0.0918 B(  5-C , 15-H ) :   0.0814 B(  5-C , 16-H ) :   0.0810 
B(  5-C , 17-H ) :   0.0805 B(  6-C ,  7-C ) :   0.1747 B(  6-C , 14-H ) :   0.8164 
B(  7-C , 15-H ) :   0.8946 B(  7-C , 16-H ) :   0.8955 B(  7-C , 17-H ) :   0.8966 
B(  8-C , 18-H ) :   0.8951 B(  8-C , 19-H ) :   0.8966 B(  8-C , 20-H ) :   0.8950 


------------------------------------------
LOEWDIN REDUCED ORBITAL POPULATIONS PER MO
-------------------------------------------
THRESHOLD FOR PRINTING IS 0.1%%
                      0         1         2         3         4         5   
                 -10.27791 -10.27788 -10.27787 -10.26446 -10.26445 -10.26445
                   2.00000   2.00000   2.00000   2.00000   2.00000   2.00000
                  --------  --------  --------  --------  --------  --------
 0 C  s               0.0       0.0       0.0      10.6      88.3       0.5
 1 C  s               1.0      15.4      82.2       0.0       0.0       0.0
 1 C  dx2y2           0.0       0.0       0.0       0.0       0.1       0.0
 2 C  px              0.1       0.0       0.0       0.0       0.0       0.0
 2 C  dx2y2           0.2       0.0       0.1       0.0       0.0       0.0
 3 C  s              95.6       0.8       2.1       0.0       0.0       0.0
 4 C  py              0.1       0.1       0.0       0.0       0.0       0.0
 4 C  dx2y2           0.0       0.1       0.0       0.0       0.0       0.0
 4 C  dxy             0.2       0.1       0.0       0.0       0.0       0.0
 5 C  s               2.0      82.3      14.2       0.0       0.0       0.0
 5 C  dxy             0.0       0.0       0.0       0.1       0.0       0.0
 6 C  px              0.0       0.2       0.0       0.0       0.0       0.0
 6 C  dz2             0.0       0.0       0.1       0.0       0.0       0.0
 6 C  dx2y2           0.0       0.2       0.0       0.0       0.0       0.0
 6 C  dxy             0.0       0.1       0.1       0.0       0.0       0.0
 7 C  s               0.0       0.0       0.0      88.6      10.4       0.4
 7 C  dxy             0.0       0.1       0.0       0.0       0.0       0.0
 8 C  s               0.0       0.0       0.0       0.1       0.8      98.5

                      6         7         8         9        10        11   
                 -10.25998 -10.25997 -10.25994  -0.99602  -0.91349  -0.91348
                   2.00000   2.00000   2.00000   2.00000   2.00000   2.00000
                  --------  --------  --------  --------  --------  --------
 0 C  s               0.0       0.0       0.0       2.1      10.4       2.5
 0 C  px              0.0       0.0       0.0       1.4       1.6       0.3
 0 C  py              0.0       0.0       0.0       0.0       0.0       0.1
 0 C  dz2             0.0       0.0       0.0       0.1       0.1       0.0
 0 C  dx2y2           0.0       0.0       0.0       0.2       0.3       0.0
 1 C  s               0.0       0.1       0.0      11.1      12.1       2.8
 1 C  px              0.0       0.0       0.0       1.6       1.3       0.8
 1 C  py              0.2       0.0       0.0       0.1       1.0       2.3
 1 C  dz2             0.0       0.1       0.1       0.6       0.4       0.1
 1 C  dxy             0.3       0.0       0.0       0.0       0.1       0.5
 2 C  s              64.5      16.3      17.9      10.2       0.0       7.3
 2 C  px              0.0       0.0       0.0       1.1       5.5       0.1
 2 C  py              0.0       0.0       0.0       1.5       4.0       0.1
 2 C  dz2             0.0       0.0       0.0       0.5       0.0       0.2
 2 C  dx2y2           0.0       0.0       0.0       0.0       1.0       0.0
 2 C  dxy             0.0       0.0       0.0       0.1       0.0       0.4
 3 C  s               0.0       0.0       0.1      11.1      10.2       4.7
 3 C  px              0.1       0.1       0.0       0.2       1.9       1.4
 3 C  py              0.0       0.0       0.1       1.4       0.6       1.6
 3 C  dz2             0.0       0.0       0.1       0.6       0.3       0.2
 3 C  dx2y2           0.1       0.1       0.0       0.0       0.2       0.2
 3 C  dxy             0.0       0.1       0.1       0.0       0.1       0.4
 3 C  f+3             0.0       0.0       0.1       0.1       0.1       0.0
 4 C  s               0.8      39.5      58.5      10.2       5.9       1.4
 4 C  px              0.0       0.0       0.0       2.4       0.1       0.2
 4 C  py              0.0       0.0       0.0       0.1       1.7       7.5
 4 C  dz2             0.0       0.0       0.0       0.5       0.2       0.0
 4 C  dx2y2           0.0       0.0       0.0       0.1       0.1       0.3
 4 C  dxy             0.0       0.0       0.0       0.0       0.4       0.6
 5 C  s               0.0       0.0       0.1      11.1       0.1      14.8
 5 C  px              0.0       0.1       0.0       0.7       2.2       0.7
 5 C  py              0.0       0.1       0.1       0.9       1.2       1.4
 5 C  dz2             0.0       0.0       0.1       0.6       0.0       0.5
 5 C  dx2y2           0.1       0.3       0.0       0.0       0.7       0.0
 5 C  f+3             0.0       0.0       0.1       0.1       0.0       0.1
 6 C  s              33.4      43.0      22.3      10.2       5.1       2.3
 6 C  px              0.0       0.0       0.0       0.3       2.6       5.8
 6 C  py              0.0       0.0       0.0       2.2       0.4       0.7
 6 C  dz2             0.0       0.0       0.0       0.5       0.1       0.1
 6 C  dx2y2           0.0       0.0       0.0       0.1       0.0       0.7
 6 C  dxy             0.0       0.0       0.0       0.0       0.6       0.2
 7 C  s               0.0       0.0       0.0       2.1       0.1      12.8
 7 C  px              0.0       0.0       0.0       0.6       0.0       0.8
 7 C  py              0.0       0.0       0.0       0.8       0.1       1.1
 7 C  dz2             0.0       0.0       0.0       0.1       0.0       0.1
 7 C  dxy             0.0       0.0       0.0       0.2       0.0       0.3
 8 C  s               0.0       0.0       0.0       2.1       8.9       4.1
 8 C  px              0.0       0.0       0.0       0.2       0.1       0.3
 8 C  py              0.0       0.0       0.0       1.3       1.3       0.4
 8 C  dx2y2           0.0       0.0       0.0       0.1       0.2       0.0
 8 C  dxy             0.0       0.0       0.0       0.1       0.1       0.1
 9 H  s               0.0       0.0       0.0       0.4       2.1       0.5
 9 H  pz              0.0       0.0       0.0       0.0       0.1       0.0
10 H  s               0.0       0.0       0.0       0.4       2.3       0.4
10 H  py              0.0       0.0       0.0       0.0       0.2       0.0
11 H  s               0.0       0.0       0.0       0.4       2.1       0.6
11 H  pz              0.0       0.0       0.0       0.0       0.1       0.0
12 H  s               0.0       0.0       0.0       1.4       0.0       1.7
13 H  s               0.0       0.0       0.0       1.4       1.3       0.3
13 H  px              0.0       0.0       0.0       0.1       0.1       0.0
14 H  s               0.0       0.0       0.0       1.4       1.1       0.5
14 H  py              0.0       0.0       0.0       0.1       0.1       0.0
15 H  s               0.0       0.0       0.0       0.4       0.0       2.6
15 H  pz              0.0       0.0       0.0       0.0       0.0       0.2
16 H  s               0.0       0.0       0.0       0.4       0.0       2.6
16 H  pz              0.0       0.0       0.0       0.0       0.0       0.1
16 H  py              0.0       0.0       0.0       0.0       0.0       0.1
17 H  s               0.0       0.0       0.0       0.4       0.0       2.6
17 H  px              0.0       0.0       0.0       0.0       0.0       0.2
18 H  s               0.0       0.0       0.0       0.4       1.9       0.8
18 H  pz              0.0       0.0       0.0       0.0       0.1       0.0
19 H  s               0.0       0.0       0.0       0.4       1.7       1.0
20 H  s               0.0       0.0       0.0       0.4       1.9       0.8
20 H  pz              0.0       0.0       0.0       0.0       0.1       0.0

                     12        13        14        15        16        17   
                  -0.83037  -0.80588  -0.80587  -0.69143  -0.69139  -0.61088
                   2.00000   2.00000   2.00000   2.00000   2.00000   2.00000
                  --------  --------  --------  --------  --------  --------
 0 C  s              11.4      11.0       0.0       1.3       1.7       0.2
 0 C  px              0.2       1.0       0.0       2.7       4.7       1.9
 0 C  py              0.0       0.0       0.6       1.6       0.2       0.0
 0 C  dz2             0.0       0.0       0.0       0.1       0.2       0.1
 0 C  dx2y2           0.0       0.0       0.0       0.2       0.4       0.0
 0 C  dxy             0.0       0.0       0.2       0.3       0.0       0.0
 1 C  s               0.0       0.5       0.0       3.5       4.6       0.1
 1 C  px              7.6       6.0       0.5       0.0       0.5       2.4
 1 C  py              0.2       0.3      11.7       5.0       3.2       0.3
 1 C  dx2y2           0.5       1.4       0.1       0.1       0.2       1.8
 1 C  dxy             0.1       0.1       1.4       0.0       0.0       0.2
 2 C  s               1.0       3.8       9.8       0.3       2.2       1.4
 2 C  px              0.4       0.0       0.2      10.7       0.1       5.1
 2 C  py              0.6       0.1       0.1       3.8       5.0       8.9
 2 C  dx2y2           0.0       0.4       0.2       1.2       0.1       0.0
 2 C  dxy             0.4       0.0       0.0       0.0       0.0       0.1
 2 C  f+3             0.0       0.0       0.1       0.0       0.0       0.0
 2 C  f-3             0.0       0.1       0.0       0.0       0.0       0.0
 3 C  s               0.0       0.1       0.4       7.8       0.3       0.1
 3 C  px              0.9       6.2       5.4       0.5       7.0       0.1
 3 C  py              6.9       4.5       2.4       0.1       1.1       2.6
 3 C  dx2y2           0.3       0.1       1.4       0.2       0.0       1.1
 3 C  dxy             0.2       1.4       0.1       0.1       0.0       0.9
 4 C  s               1.0      13.6       0.0       1.0       1.4       1.4
 4 C  px              1.0       0.4       0.0       3.2       1.1      13.7
 4 C  py              0.0       0.0       0.0       7.3       8.0       0.2
 4 C  dx2y2           0.3       0.0       0.1       0.0       0.1       0.1
 4 C  dxy             0.0       0.0       0.5       0.7       0.4       0.0
 5 C  s               0.0       0.2       0.3       0.8       7.3       0.1
 5 C  px              3.2       2.0       7.6       4.0       1.1       1.5
 5 C  py              4.6       8.7       0.2       3.6       0.1       1.2
 5 C  dx2y2           0.0       0.8       0.7       0.0       0.0       0.1
 5 C  dxy             0.5       0.7       0.8       0.0       0.3       1.9
 6 C  s               1.0       3.0      10.7       2.4       0.1       1.4
 6 C  px              0.1       0.0       0.1       0.0      14.2       2.1
 6 C  py              0.9       0.1       0.3       4.4       1.0      11.8
 6 C  dx2y2           0.2       0.1       0.1       0.0       0.5       0.0
 6 C  dxy             0.2       0.3       0.0       0.1       0.7       0.0
 7 C  s              11.4       3.2       7.9       0.3       2.7       0.2
 7 C  px              0.1       0.0       0.7       0.2       3.9       0.5
 7 C  py              0.1       0.7       0.1       2.0       3.0       1.5
 7 C  dz2             0.0       0.0       0.0       0.1       0.2       0.0
 7 C  dx2y2           0.0       0.2       0.0       0.2       0.0       0.0
 7 C  dxy             0.0       0.0       0.1       0.0       0.6       0.0
 8 C  s              11.5       2.3       8.7       2.9       0.1       0.2
 8 C  px              0.0       0.3       0.5       1.3       1.0       0.5
 8 C  py              0.1       0.5       0.5       5.9       0.9       1.4
 8 C  dz2             0.0       0.0       0.0       0.2       0.0       0.1
 8 C  dx2y2           0.0       0.1       0.0       0.3       0.2       0.0
 8 C  dxy             0.0       0.0       0.1       0.3       0.0       0.0
 9 H  s               3.3       3.6       0.0       0.7       1.7       0.4
 9 H  pz              0.2       0.3       0.0       0.0       0.1       0.0
10 H  s               3.3       3.5       0.0       2.2       0.6       0.1
10 H  py              0.3       0.3       0.0       0.1       0.1       0.0
11 H  s               3.3       3.6       0.1       0.6       1.8       0.4
11 H  pz              0.2       0.2       0.0       0.0       0.1       0.0
12 H  s               0.0       1.2       3.1       0.4       3.3       9.3
12 H  px              0.0       0.1       0.1       0.0       0.2       0.2
12 H  py              0.0       0.1       0.2       0.1       0.1       0.2
13 H  s               0.0       4.3       0.0       1.6       2.2       9.4
13 H  px              0.0       0.4       0.0       0.1       0.2       0.4
13 H  py              0.0       0.0       0.0       0.1       0.0       0.0
14 H  s               0.0       0.9       3.3       3.6       0.1       9.3
14 H  py              0.0       0.1       0.3       0.2       0.0       0.3
15 H  s               3.3       1.2       2.4       0.5       1.9       0.5
15 H  pz              0.2       0.1       0.2       0.0       0.1       0.0
16 H  s               3.3       1.3       2.3       0.7       1.8       0.4
16 H  pz              0.2       0.1       0.1       0.0       0.1       0.0
16 H  py              0.1       0.0       0.1       0.0       0.0       0.0
17 H  s               3.3       0.6       3.0       0.0       2.8       0.1
17 H  px              0.3       0.1       0.2       0.0       0.1       0.0
18 H  s               3.3       0.6       3.0       2.4       0.0       0.4
18 H  pz              0.2       0.0       0.2       0.2       0.0       0.0
18 H  px              0.1       0.0       0.1       0.0       0.0       0.0
19 H  s               3.3       1.2       2.4       2.0       0.8       0.1
19 H  px              0.2       0.1       0.2       0.2       0.0       0.0
19 H  py              0.1       0.0       0.1       0.0       0.0       0.0
20 H  s               3.3       0.6       3.0       2.4       0.0       0.4
20 H  pz              0.2       0.0       0.2       0.2       0.0       0.0

                     18        19        20        21        22        23   
                  -0.59063  -0.54242  -0.54020  -0.52263  -0.52262  -0.51011
                   2.00000   2.00000   2.00000   2.00000   2.00000   2.00000
                  --------  --------  --------  --------  --------  --------
 0 C  s               0.0       0.0       0.1       0.0       0.0       0.0
 0 C  pz              0.0      12.3       0.2       9.8      24.2       0.0
 0 C  px              0.1       0.1      12.7       0.0       0.0       8.0
 0 C  py              6.9       0.0       0.3       0.0       0.0       8.0
 0 C  dz2             0.1       0.0       0.1       0.0       0.0       0.4
 0 C  dxz             0.0       0.0       0.0       0.1       0.3       0.0
 0 C  dyz             0.0       0.2       0.0       0.2       0.4       0.0
 0 C  dx2y2           0.0       0.0       0.4       0.0       0.0       0.0
 0 C  dxy             0.2       0.0       0.0       0.0       0.0       0.3
 1 C  s               0.0       0.0       1.9       0.0       0.0       0.0
 1 C  pz              0.0       7.4       0.1       1.5       3.7       0.0
 1 C  px              0.6       0.0       5.7       0.0       0.0       5.5
 1 C  py             10.8       0.0       0.3       0.0       0.0       0.2
 1 C  dxz             0.0       0.0       0.0       0.3       0.9       0.0
 1 C  dx2y2           0.0       0.0       0.7       0.0       0.0       0.1
 1 C  dxy             0.2       0.0       0.1       0.0       0.0       1.8
 2 C  s               0.0       0.0       1.1       0.0       0.0       0.1
 2 C  pz              0.0       5.0       0.1       0.2       0.9       0.0
 2 C  px              6.9       0.0       0.4       0.0       0.0       0.1
 2 C  py              3.5       0.0       0.3       0.0       0.0       0.0
 2 C  dxz             0.0       0.1       0.0       0.3       0.0       0.0
 2 C  dyz             0.0       0.1       0.0       0.1       0.1       0.0
 2 C  dx2y2           0.1       0.0       0.1       0.0       0.0       0.5
 2 C  dxy             0.0       0.0       2.3       0.0       0.0       0.1
 2 C  f-3             0.1       0.0       0.0       0.0       0.0       0.2
 3 C  s               0.0       0.0       1.9       0.0       0.0       0.0
 3 C  pz              0.0       7.4       0.1       5.2       0.0       0.0
 3 C  px             10.4       0.0       0.5       0.0       0.0       0.4
 3 C  py              1.0       0.0       5.4       0.0       0.0       8.3
 3 C  dxz             0.0       0.0       0.0       0.2       0.1       0.0
 3 C  dyz             0.0       0.0       0.0       1.0       0.0       0.0
 3 C  dx2y2           0.1       0.0       0.5       0.0       0.0       0.0
 3 C  dxy             0.1       0.0       0.3       0.0       0.0       0.3
 4 C  s               0.0       0.0       1.1       0.0       0.0       0.5
 4 C  pz              0.0       5.0       0.0       0.4       0.7       0.0
 4 C  px              0.1       0.0       0.7       0.0       0.0       4.2
[...]
 5 C  f-1             0.1       0.1       0.6       1.5       0.3       0.1
 5 C  f+3            10.6       1.4       5.5       0.1       0.4       3.9
 5 C  f-3             6.7       4.0       2.4       0.2       0.2       9.6
 6 C  s               0.5       0.7       2.3       0.1       3.2       0.0
 6 C  px              0.6       0.9       0.3       7.2       1.8       1.2
 6 C  py              0.3       0.0       1.4       2.3       3.9       0.2
 6 C  dz2             0.1       0.2       0.8       0.0       1.8       0.0
 6 C  dx2y2           0.1       3.9       0.3       1.1       2.1       1.6
 6 C  dxy             5.9       0.4       0.4       2.4       0.9       1.8
 6 C  f+1             0.1       0.5       0.1       2.0       0.3       0.3
 6 C  f-1             0.0       0.0       0.5       0.5       0.4       0.1
 6 C  f+3             0.0       1.2       3.9       0.0       0.4       2.4
 6 C  f-3             3.4       2.6       1.1       0.0       0.1       7.3
 7 C  s               0.7       0.8       1.2       0.0       0.5       0.0
 7 C  px              0.1       0.1       0.3       0.5       0.1       0.0
 7 C  py              0.2       0.5       0.6       0.1       0.2       0.0
 7 C  dz2             0.4       0.2       0.7       0.0       0.1       0.0
 7 C  dx2y2           1.6       0.2       0.1       0.2       0.0       1.2
 7 C  dxy             0.7       0.8       1.6       0.0       0.1       0.0
 7 C  f+1             0.0       0.0       0.0       0.0       0.1       0.0
 7 C  f-1             0.0       0.2       0.2       0.0       0.4       0.0
 7 C  f+3             0.0       1.1       0.2       0.0       0.0       0.0
 7 C  f-3             2.2       0.0       0.1       0.1       0.0       0.5
 8 C  s               0.1       1.4       1.2       0.0       0.5       0.0
 8 C  px              0.1       0.2       0.1       0.4       0.1       0.0
 8 C  py              0.1       0.5       0.8       0.2       0.2       0.0
 8 C  dz2             0.0       0.6       0.8       0.0       0.1       0.0
 8 C  dx2y2           0.0       1.8       0.9       0.1       0.1       0.4
 8 C  dxy             1.2       0.2       0.8       0.1       0.1       0.8
 8 C  f+1             0.1       0.0       0.1       0.0       0.1       0.0
 8 C  f-1             0.1       0.0       0.1       0.0       0.3       0.0
 8 C  f+3             0.8       0.3       0.2       0.0       0.0       0.0
 8 C  f-3             0.5       1.8       0.1       0.1       0.0       0.6
10 H  s               0.3       0.4       0.0       0.0       0.0       0.2
12 H  s               0.0       0.4       1.2       0.0       0.0       0.0
12 H  px              0.1       0.1       0.1       0.0       0.0       0.1
12 H  py              0.0       0.1       0.1       0.0       0.0       0.0
13 H  s               0.3       0.1       1.2       0.0       0.0       0.0
13 H  px              0.2       0.1       0.1       0.0       0.0       0.0
14 H  s               0.3       0.1       1.2       0.0       0.0       0.0
14 H  py              0.1       0.1       0.1       0.0       0.0       0.0
17 H  s               0.6       0.0       0.0       0.0       0.0       0.2
19 H  s               0.1       0.6       0.0       0.0       0.0       0.2

                    342       343       344       345       346       347   
                  22.15239  22.52007  22.52135  22.54123  22.91910  22.92060
                   0.00000   0.00000   0.00000   0.00000   0.00000   0.00000
                  --------  --------  --------  --------  --------  --------
 0 C  s               0.7      19.9      39.9      34.8       0.5       2.0
 1 C  s              13.2       0.1       0.2       0.1       0.5       0.0
 1 C  px              0.1       0.1       0.2       0.1       0.0       0.0
 1 C  py              0.0       0.0       0.0       0.0       0.4       0.3
 1 C  dxy             0.0       0.0       0.0       0.0       0.2       0.1
 2 C  s              19.0       2.2       0.0       1.2       7.0      55.0
 3 C  s              13.2       0.0       0.3       0.1       0.2       0.3
 3 C  px              0.0       0.0       0.0       0.0       0.0       0.5
 3 C  py              0.1       0.0       0.2       0.1       0.0       0.1
 3 C  dx2y2           0.0       0.0       0.0       0.1       0.0       0.1
 3 C  dxy             0.0       0.0       0.1       0.0       0.0       0.2
 4 C  s              18.9       0.6       2.0       0.9      26.1      36.0
 5 C  s              13.3       0.3       0.0       0.0       0.1       0.5
 5 C  px              0.0       0.1       0.0       0.0       0.3       0.0
 5 C  py              0.0       0.1       0.0       0.0       0.2       0.0
 5 C  dx2y2           0.0       0.0       0.0       0.0       0.3       0.0
 5 C  dxy             0.0       0.1       0.0       0.1       0.0       0.0
 6 C  s              19.0       1.0       1.7       0.6      60.0       2.0
 6 C  px              0.0       0.1       0.0       0.0       0.0       0.1
 7 C  s               0.7      68.8       1.9      23.8       0.7       1.8
 8 C  s               0.7       5.4      52.3      36.8       2.5       0.0
12 H  s               0.1       0.0       0.0       0.0       0.0       0.1
13 H  s               0.1       0.0       0.0       0.0       0.1       0.1
14 H  s               0.1       0.0       0.0       0.0       0.1       0.0
15 H  s               0.0       0.1       0.0       0.0       0.0       0.0
16 H  s               0.0       0.1       0.0       0.0       0.0       0.0
17 H  s               0.0       0.1       0.0       0.0       0.0       0.0
20 H  s               0.0       0.0       0.1       0.1       0.0       0.0

                    348       349       350   
                  23.09455  23.09484  23.44284
                   0.00000   0.00000   0.00000
                  --------  --------  --------
 0 C  s               0.2       0.0       0.2
 1 C  s              52.6      12.0      19.8
 1 C  px              0.1       0.0       0.0
 2 C  s               0.1       0.6      12.9
 2 C  px              0.3       0.0       0.0
 2 C  py              0.2       0.0       0.0
 2 C  dx2y2           0.2       0.0       0.0
 3 C  s              43.8      20.8      19.8
 4 C  s               0.2       0.5      12.9
 4 C  py              0.1       0.5       0.0
 4 C  dxy             0.0       0.1       0.0
 5 C  s               0.4      64.1      19.8
 5 C  py              0.0       0.1       0.0
 6 C  s               0.7       0.0      12.9
 6 C  px              0.2       0.3       0.0
 7 C  s               0.0       0.2       0.2
 8 C  s               0.1       0.1       0.2


                      *****************************
                      * MAYER POPULATION ANALYSIS *
                      *****************************

  NA   - Mulliken gross atomic population
  ZA   - Total nuclear charge
  QA   - Mulliken gross atomic charge
  VA   - Mayer's total valence
  BVA  - Mayer's bonded valence
  FA   - Mayer's free valence

  ATOM       NA         ZA         QA         VA         BVA        FA
  0 C      6.3685     6.0000    -0.3685     3.8829     3.8829     0.0000
  1 C      5.7599     6.0000     0.2401     3.6478     3.6478     0.0000
  2 C      6.3385     6.0000    -0.3385     4.0012     4.0012     0.0000
  3 C      5.7590     6.0000     0.2410     3.6450     3.6450    -0.0000
  4 C      6.3367     6.0000    -0.3367     3.9971     3.9971     0.0000
  5 C      5.7597     6.0000     0.2403     3.6430     3.6430     0.0000
  6 C      6.3372     6.0000    -0.3372     4.0020     4.0020     0.0000
  7 C      6.3686     6.0000    -0.3686     3.8826     3.8826     0.0000
  8 C      6.3686     6.0000    -0.3686     3.8828     3.8828    -0.0000
  9 H      0.8776     1.0000     0.1224     0.9649     0.9649     0.0000
 10 H      0.8846     1.0000     0.1154     0.9779     0.9779     0.0000
 11 H      0.8783     1.0000     0.1217     0.9662     0.9662     0.0000
 12 H      0.8943     1.0000     0.1057     0.9757     0.9757    -0.0000
 13 H      0.8937     1.0000     0.1063     0.9754     0.9754     0.0000
 14 H      0.8937     1.0000     0.1063     0.9754     0.9754     0.0000
 15 H      0.8771     1.0000     0.1229     0.9643     0.9643     0.0000
 16 H      0.8788     1.0000     0.1212     0.9669     0.9669     0.0000
 17 H      0.8845     1.0000     0.1155     0.9775     0.9775    -0.0000
 18 H      0.8780     1.0000     0.1220     0.9657     0.9657     0.0000
 19 H      0.8847     1.0000     0.1153     0.9780     0.9780    -0.0000
 20 H      0.8778     1.0000     0.1222     0.9653     0.9653     0.0000

  Mayer bond orders larger than 0.100000
B(  0-C ,  1-C ) :   0.9051 B(  0-C ,  9-H ) :   0.9741 B(  0-C , 10-H ) :   0.9985 
B(  0-C , 11-H ) :   0.9797 B(  1-C ,  2-C ) :   1.3548 B(  1-C ,  6-C ) :   1.4319 
B(  2-C ,  3-C ) :   1.4299 B(  2-C , 12-H ) :   0.9701 B(  3-C ,  4-C ) :   1.3549 
B(  3-C ,  8-C ) :   0.9054 B(  4-C ,  5-C ) :   1.4280 B(  4-C , 13-H ) :   0.9705 
B(  5-C ,  6-C ) :   1.3551 B(  5-C ,  7-C ) :   0.9055 B(  6-C , 14-H ) :   0.9685 
B(  7-C , 15-H ) :   0.9715 B(  7-C , 16-H ) :   0.9828 B(  7-C , 17-H ) :   0.9982 
B(  8-C , 18-H ) :   0.9774 B(  8-C , 19-H ) :   0.9984 B(  8-C , 20-H ) :   0.9763 


-------
TIMINGS
-------

Total SCF time: 0 days 0 hours 1 min 55 sec 

Total time                  ....     115.649 sec
Sum of individual times     ....     113.277 sec  ( 97.9%)

SCF preparation             ....       0.059 sec  (  0.1%)
Fock matrix formation       ....     112.619 sec  ( 97.4%)
  Startup                   ....       0.005 sec  (  0.0% of F)
  Split-RI-J                ....       4.145 sec  (  3.7% of F)
  Chain of spheres X        ....     101.143 sec  ( 89.8% of F)
  XC integration            ....       9.653 sec  (  8.6% of F)
    Basis function eval.    ....       2.180 sec  ( 22.6% of XC)
    Density eval.           ....       2.173 sec  ( 22.5% of XC)
    XC-Functional eval.     ....       2.579 sec  ( 26.7% of XC)
    XC-Potential eval.      ....       2.622 sec  ( 27.2% of XC)
Diagonalization             ....       0.000 sec  (  0.0%)
Density matrix formation    ....       0.017 sec  (  0.0%)
Total Energy calculation    ....       0.004 sec  (  0.0%)
Population analysis         ....       0.226 sec  (  0.2%)
Orbital Transformation      ....       0.037 sec  (  0.0%)
Orbital Orthonormalization  ....       0.000 sec  (  0.0%)
DIIS solution               ....       0.120 sec  (  0.1%)
  MO trafo                  ....       0.000 sec  (  0.0 % of DIIS)
  Orb grad                  ....       0.000 sec  (  0.0 % of DIIS)
  Energy W gradient         ....       0.000 sec  (  0.0 % of DIIS)
  DIIS error                ....       0.017 sec  ( 14.6 % of DIIS)
  DIIS work                 ....       0.082 sec  ( 68.4 % of DIIS)
  Form Q                    ....       0.000 sec  (  0.0 % of DIIS)
  Form QpQm                 ....       0.000 sec  (  0.0 % of DIIS)
  Exp/Cayley                ....       0.000 sec  (  0.0 % of DIIS)
  Orb update                ....       0.000 sec  (  0.0 % of DIIS)
  Wake-sleep                ....       0.001 sec  (  0.7 % of DIIS)
SOSCF solution              ....       0.051 sec  (  0.0%)
  MO trafo                  ....       0.032 sec  ( 63.4 % of SOSCF)
  Orb grad                  ....       0.000 sec  (  0.5 % of SOSCF)
  Rot update                ....       0.001 sec  (  1.1 % of SOSCF)
  Step                      ....       0.018 sec  ( 34.8 % of SOSCF)
Grid generation             ....       0.145 sec  (  0.1%)
Finished LeanSCF after 115.7 sec

Maximum memory used throughout the entire LEANSCF-calculation: 51.8 MB
------------------   -----------------
gCP correction             0.012533968
------------------   -----------------

-------------------------   --------------------
FINAL SINGLE POINT ENERGY      -350.208842352268
-------------------------   --------------------


------------------------------------------------------------------------------
                              ORCA PROPERTY CALCULATIONS
------------------------------------------------------------------------------

GBWName                                 ... sp.gbw
Number of atoms                         ...     21
Number of basis functions               ...    351
Max core memory                         ...   1024 MB

Electric properties:
Dipole moment                           ... YES
Quadrupole moment                       ...  NO
Static polarizability (Dipole/Dipole)   ...  NO
Static polarizability (Dipole/Quad.)    ...  NO
Static polarizability (Quad./Quad.)     ...  NO
Static polarizability (Velocity)        ...  NO

Atomic electric properties:
Dipole moment                           ...  NO
Quadrupole moment                       ...  NO
Static polarizability                   ...  NO

Choice of electric origin               ... Center of mass
Position of electric origin             ...    -0.000275     0.000208     0.000264

General magnetic properties:
Magnetizability                         ...  NO

EPR properties:
g-Tensor (aka g-matrix)                 ...  NO
Zero-Field splitting spin-orbit         ...  NO
Zero-field splitting spin-spin          ...  NO
Hyperfine couplings                     ...  NO (   0 nuclei)
Quadrupole couplings                    ...  NO (   0 nuclei)
Contact density                         ...  NO (   0 nuclei)

NMR properties:
Chemical shifts                         ...  NO (   0 nuclei)
Spin-rotation constants                 ...  NO (   0 nuclei)
Spin-spin couplings                     ...  NO (   0 nuclei,    0 pairs)

Choice of magnetic origin               ... GIAO
Position of magnetic origin             ...     0.000000     0.000000     0.000000

Properties with geometric perturbations:
SCF Hessian                             ...  NO
IR spectrum                             ...  NO
VCD spectrum                            ...  NO
X-ray spectroscopy properties:
SCF XES/XAS/RIXS spectra                ...  NO


-------------
DIPOLE MOMENT
-------------

Method             : SCF
Type of density    : Electron Density
Multiplicity       :   1
Irrep              :   0
Energy             :  -350.2213763202680070 Eh
Relativity type    : 
Basis              : AO
                                X                 Y                 Z
Electronic contribution:     -0.000337771       0.000642548       0.011760231
Nuclear contribution   :     -0.000808319      -0.000186797      -0.015648440
                        -----------------------------------------
Total Dipole Moment    :     -0.001146089       0.000455752      -0.003888209
                        -----------------------------------------
Magnitude (a.u.)       :      0.004079142
Magnitude (Debye)      :      0.010368355



--------------------
Rotational spectrum 
--------------------
 
Rotational constants in cm-1:             0.058440             0.058429             0.029701 
Rotational constants in MHz :          1751.973068          1751.645390           890.417294 

Dipole components along the rotational axes: 
x,y,z [a.u.] :     0.001233     0.000003    -0.003888 
x,y,z [Debye]:     0.003135     0.000009    -0.009883 

 

Dipole moment calculation done in   0.0 sec 

Maximum memory used throughout the entire PROP-calculation: 32.9 MB

--------------------------------
SUGGESTED CITATIONS FOR THIS RUN
--------------------------------

Below you find a list of papers that are relevant to this ORCA run
We neither can nor want to force you to cite these papers, but we appreciate if you do
You receive ORCA, which is the product of decades of hard work by many enthusiastic individuals, for free
The only thing we kindly ask in return is that you cite our papers,
We deeply appreciate it, if you show your appreciation for ORCA by not just citing the generic ORCA reference.

Please note that relegating all ORCA citations to the supporting information does *not* help us.
SI sections are not indexed - citations you put there will not count into any citation statistics
But we need these citations in order to attract the funding resources that allow us to do what we are doing

Therefore, if you are a happy ORCA user, please consider citing a few of the papers listed below in the main body of your paper

In addition to the list printed below, the program has created the file sp.bibtex that contains the list in bibtex format
You can import this file easily into all common literature databanks and citation aid programs


List of essential papers. We consider these as the minimum necessary citations

  1. Neese,F.
     Software update: the ORCA program system, version 5.0
     WIRES Comput. Molec. Sci., 2022 12(1)e1606
     doi.org/10.1002/wcms.1606

List of papers to cite with high priority. The work reported in these papers was absolutely
necessary for this run to complete.
Our perspective: the developers of density functionals and basis sets usually get cited in chemistry papers
Good! But without the algorithms to do something with them, the functionals or basis sets would not do anything.
Hence, in our opinion, the algorithm design and method developments papers are equally worthy of getting cited

  1. Neese,F.
     An improvement of the resolution of the identity approximation for the formation of the Coulomb matrix
     J. Comp. Chem., 2003 24(14)1740-1747
     doi.org/10.1002/jcc.10318
  2. Neese,F.; Wennmohs,F.; Hansen,A.; Becker,U.
     Efficient, approximate and parallel Hartree-Fock and hybrid DFT calculations. A 'chain-of-spheres' algorithm for the Hartree-Fock exchange
     Chem. Phys., 2009 356(1-3)98-109
     doi.org/10.1016/j.chemphys.2008.10.036
  3. Helmich-Paris,B.; de Souza,B.; Neese,F.; Izsák,R.
     An improved chain of spheres for exchange algorithm
     J. Chem. Phys., 2021 155 104109
     doi.org/doi: 10.1063/5.0058766.
  4. Neese,F.
     The SHARK Integral Generation and Digestion System
     J. Comp. Chem., 2022  1-16
     doi.org/10.1002/jcc.26942

List of suggested additional citations. These are papers that are important in the 'surrounding' of 
of this run, or papers that preceded the highly important papers. If you like your results we are grateful for a citation.

  1. Izsak,R.; Neese,F.
     An overlap fitted chain of spheres exchange method
     J. Chem. Phys., 2011 135 144105
     doi.org/10.1063/1.3646921
  2. Izsak,R.; Hansen,A.; Neese,F.
     The resolution of identity and chain of spheres approximations for the LPNO-CCSD singles Fock term
     Molec. Phys., 2012 110 2413-2417
     doi.org/10.1080/00268976.2012.687466
  3. Neese,F.
     The ORCA program system
     WIRES Comput. Molec. Sci., 2012 2(1)73-78
     doi.org/10.1002/wcms.81
  4. Izsak,R.; Neese,F.; Klopper,W.
     Robust fitting techniques in the chain of spheres approximation to the Fock exchange: The role of the complementary space
     J. Chem. Phys., 2013 139 
     doi.org/10.1063/1.4819264
  5. Neese,F.
     Software update: the ORCA program system, version 4.0
     WIRES Comput. Molec. Sci., 2018 8(1)1-6
     doi.org/10.1002/wcms.1327
  6. Neese,F.; Wennmohs,F.; Becker,U.; Riplinger,C.
     The ORCA quantum chemistry program package
     J. Chem. Phys., 2020 152 Art. No. L224108
     doi.org/10.1063/5.0004608

List of optional additional citations

  1. Neese,F.
     Approximate second-order SCF convergence for spin unrestricted wavefunctions
     Chem. Phys. Lett., 2000 325(1-3)93-98
     doi.org/10.1016/s0009-2614(00)00662-x

Timings for individual modules:

Sum of individual times          ...      117.343 sec (=   1.956 min)
Startup calculation              ...        1.533 sec (=   0.026 min)   1.3 %
SCF iterations                   ...      115.761 sec (=   1.929 min)  98.7 %
Property calculations            ...        0.049 sec (=   0.001 min)   0.0 %
                             ****ORCA TERMINATED NORMALLY****
TOTAL RUN TIME: 0 days 0 hours 1 minutes 57 seconds 394 msec
