      -----------------------------------------------------------      
     |                   =====================                   |     
     |                           x T B                           |     
     |                   =====================                   |     
     |                         S. Grimme                         |     
     |          Mulliken Center for Theoretical Chemistry        |     
     |                    University of Bonn                     |     
      -----------------------------------------------------------      

   * xtb version 6.7.1 (41059b4) compiled by 'michael@archlinux' on 2025-03-24

   xtb is free software: you can redistribute it and/or modify it under
   the terms of the GNU Lesser General Public License as published by
   the Free Software Foundation, either version 3 of the License, or
   (at your option) any later version.
   
   xtb is distributed in the hope that it will be useful,
   but WITHOUT ANY WARRANTY; without even the implied warranty of
   MERCHANTABILITY or FITNESS FOR A PARTICULAR PURPOSE.  See the
   GNU Lesser General Public License for more details.
   
   Cite this work as:
   * C. Bannwarth, E. Caldeweyher, S. Ehlert, A. Hansen, P. Pracht,
     J. Seibert, S. Spicher, S. Grimme, WIREs Comput. Mol. Sci., 2020, 11,
     e01493. DOI: 10.1002/wcms.1493
   
   for GFN2-xTB:
   * C. Bannwarth, S. Ehlert and S. Grimme., J. Chem. Theory Comput., 2019,
     15, 1652-1671. DOI: 10.1021/acs.jctc.8b01176
   for GFN1-xTB:
   * S. Grimme, C. Bannwarth, P. Shushkov, J. Chem. Theory Comput., 2017,
     13, 1989-2009. DOI: 10.1021/acs.jctc.7b00118
   for GFN0-xTB:
   * P. Pracht, E. Caldeweyher, S. Ehlert, S. Grimme, ChemRxiv, 2019, preprint.
     DOI: 10.26434/chemrxiv.8326202.v1
   for GFN-FF:
   * S. Spicher and S. Grimme, Angew. Chem. Int. Ed., 2020, 59, 15665-15673.
     DOI: 10.1002/anie.202004239
   
   for ALPB and GBSA implicit solvation:
   * S. Ehlert, M. Stahn, S. Spicher, S. Grimme, J. Chem. Theory Comput.,
     2021, 17, 4250-4261. DOI: 10.1021/acs.jctc.1c00471
   
   for ddCOSMO and CPCM-X implicit solvation:
   * M. Stahn, S. Ehlert, S. Grimme, J. Phys. Chem. A,
     2023, XX, XXXX-XXXX. DOI: 10.1021/acs.jpca.3c04382
   
   for DFT-D4:
   * E. Caldeweyher, C. Bannwarth and S. Grimme, J. Chem. Phys., 2017,
     147, 034112. DOI: 10.1063/1.4993215
   * E. Caldeweyher, S. Ehlert, A. Hansen, H. Neugebauer, S. Spicher,
     C. Bannwarth and S. Grimme, J. Chem. Phys., 2019, 150, 154122.
     DOI: 10.1063/1.5090222
   * E. Caldeweyher, J.-M. Mewes, S. Ehlert and S. Grimme, Phys. Chem. Chem. Phys.
     2020, 22, 8499-8512. DOI: 10.1039/D0CP00502A
   
   for sTDA-xTB:
   * S. Grimme and C. Bannwarth, J. Chem. Phys., 2016, 145, 054103.
     DOI: 10.1063/1.4959605
   
   in the mass-spec context:
   * V. Asgeirsson, C. Bauer and S. Grimme, Chem. Sci., 2017, 8, 4879.
     DOI: 10.1039/c7sc00601b
   * J. Koopman and S. Grimme, ACS Omega 2019, 4, 12, 15120-15133.
     DOI: 10.1021/acsomega.9b02011
   
   for metadynamics refer to:
   * S. Grimme, J. Chem. Theory Comput., 2019, 155, 2847-2862
     DOI: 10.1021/acs.jctc.9b00143
   
   for SPH calculations refer to:
   * S. Spicher and S. Grimme, J. Chem. Theory Comput., 2021, 17, 1701-1714
     DOI: 10.1021/acs.jctc.0c01306
   
   for ONIOM refer to:
   * C. Plett, A. Katbashev, S. Ehlert, S. Grimme, M. Bursch,
     Phys. Chem. Chem. Phys., 2023, 25, 17860-17868. DOI: 10.1039/D3CP02178E
   
   for DIPRO refer to:
   * J. Kohn, N. Gildemeister, S. Grimme, D. Fazzi, A. Hansen,
     J. Chem. Phys., 2023, just accepted.
   
   for PTB refer to:
   * S. Grimme, M. Mueller, A. Hansen, J. Chem. Phys., 2023, 158, 124111.
     DOI: 10.1063/5.0137838
   
   with help from (in alphabetical order)
   P. Atkinson, C. Bannwarth, F. Bohle, G. Brandenburg, E. Caldeweyher
   M. Checinski, S. Dohm, S. Ehlert, S. Ehrlich, I. Gerasimov, C. Hölzer
   A. Katbashev, J. Kohn, J. Koopman, C. Lavigne, S. Lehtola, F. März, M. Müller,
   F. Musil, H. Neugebauer, J. Pisarek, C. Plett, P. Pracht, F. Pultar,
   J. Seibert, P. Shushkov, S. Spicher, M. Stahn, M. Steiner, T. Strunk,
   J. Stückrath, T. Rose, and J. Unsleber
   
 * started run on 2025/04/08 at 23:36:28.610     
   ID    Z sym.   atoms
    1    6 C      1, 5
    2   16 S      2
    3    8 O      3, 4
    4    1 H      6-11

           -------------------------------------------------
          |                Calculation Setup                |
           -------------------------------------------------

          program call               : /usr/bin/xtb xtb_rrho.coord --gfn2 --ohess vtight --chrg 0 --enso --norestart -I rrho-xcontrol-inp --parallel 1
          coordinate file            : xtb_rrho.coord
          omp threads                :                     1


           -------------------------------------------------
          |                 G F N 2 - x T B                 |
           -------------------------------------------------

        Reference                      10.1021/acs.jctc.8b01176
      * Hamiltonian:
        H0-scaling (s, p, d)           1.850000    2.230000    2.230000
        zeta-weighting                 0.500000
      * Dispersion:
        s8                             2.700000
        a1                             0.520000
        a2                             5.000000
        s9                             5.000000
      * Repulsion:
        kExp                           1.500000    1.000000
        rExp                           1.000000
      * Coulomb:
        alpha                          2.000000
        third order                    shell-resolved
        anisotropic                    true
        a3                             3.000000
        a5                             4.000000
        cn-shift                       1.200000
        cn-exp                         4.000000
        max-rad                        5.000000


          ...................................................
          :                      SETUP                      :
          :.................................................:
          :  # basis functions                  32          :
          :  # atomic orbitals                  31          :
          :  # shells                           17          :
          :  # electrons                        32          :
          :  max. iterations                   250          :
          :  Hamiltonian                  GFN2-xTB          :
          :  restarted?                      false          :
          :  GBSA solvation                  false          :
          :  PC potential                    false          :
          :  electronic temp.          300.0000000     K    :
          :  accuracy                    1.0000000          :
          :  -> integral cutoff          0.2500000E+02      :
          :  -> integral neglect         0.1000000E-07      :
          :  -> SCF convergence          0.1000000E-05 Eh   :
          :  -> wf. convergence          0.1000000E-03 e    :
          :  Broyden damping             0.4000000          :
          :  net charge                          0          :
          :  unpaired electrons                  0          :
          ...................................................

 iter      E             dE          RMSdq      gap      omega  full diag
   1    -18.7988948 -0.187989E+02  0.624E+00    7.72       0.0  T
   2    -18.8280515 -0.291567E-01  0.374E+00    7.50       1.0  T
   3    -18.8300199 -0.196837E-02  0.130E+00    7.41       1.0  T
   4    -18.8313632 -0.134328E-02  0.487E-01    7.37       1.0  T
   5    -18.8315145 -0.151325E-03  0.162E-01    7.37       1.0  T
   6    -18.8315359 -0.214651E-04  0.700E-02    7.36       1.0  T
   7    -18.8315431 -0.719666E-05  0.106E-02    7.36       2.8  T
   8    -18.8315432 -0.299744E-07  0.689E-03    7.36       4.4  T
   9    -18.8315433 -0.101730E-06  0.169E-03    7.36      17.8  T
  10    -18.8315433 -0.234733E-08  0.253E-04    7.36     119.2  T
  11    -18.8315433 -0.154028E-09  0.116E-04    7.36     259.3  T

   *** convergence criteria satisfied after 11 iterations ***

         #    Occupation            Energy/Eh            Energy/eV
      -------------------------------------------------------------
         1        2.0000           -0.7803221             -21.2336
       ...           ...                  ...                  ...
        10        2.0000           -0.5122601             -13.9393
        11        2.0000           -0.5020426             -13.6613
        12        2.0000           -0.5019015             -13.6574
        13        2.0000           -0.4501677             -12.2497
        14        2.0000           -0.4406540             -11.9908
        15        2.0000           -0.4359519             -11.8629
        16        2.0000           -0.4226456             -11.5008 (HOMO)
        17                         -0.1522330              -4.1425 (LUMO)
        18                         -0.1117694              -3.0414
        19                         -0.1080887              -2.9412
        20                         -0.0590511              -1.6069
        21                          0.0754633               2.0535
       ...                                ...                  ...
        31                          1.0323112              28.0906
      -------------------------------------------------------------
                  HL-Gap            0.2704126 Eh            7.3583 eV
             Fermi-level           -0.2874393 Eh           -7.8216 eV

 SCC (total)                   0 d,  0 h,  0 min,  0.004 sec
 SCC setup                      ...        0 min,  0.000 sec (  1.180%)
 Dispersion                     ...        0 min,  0.000 sec (  0.624%)
 classical contributions        ...        0 min,  0.000 sec (  0.222%)
 integral evaluation            ...        0 min,  0.001 sec ( 14.660%)
 iterations                     ...        0 min,  0.002 sec ( 50.028%)
 molecular gradient             ...        0 min,  0.001 sec ( 31.757%)
 printout                       ...        0 min,  0.000 sec (  1.361%)

         :::::::::::::::::::::::::::::::::::::::::::::::::::::
         ::                     SUMMARY                     ::
         :::::::::::::::::::::::::::::::::::::::::::::::::::::
         :: total energy             -18.683421455240 Eh    ::
         :: gradient norm              0.060003441216 Eh/a0 ::
         :: HOMO-LUMO gap              7.358301680404 eV    ::
         ::.................................................::
         :: SCC energy               -18.831538120111 Eh    ::
         :: -> isotropic ES            0.067783897302 Eh    ::
         :: -> anisotropic ES          0.000074853085 Eh    ::
         :: -> anisotropic XC          0.005038833938 Eh    ::
         :: -> dispersion             -0.006570437662 Eh    ::
         :: repulsion energy           0.148116664871 Eh    ::
         :: add. restraining           0.000000000000 Eh    ::
         :: total charge              -0.000000000000 e     ::
         :::::::::::::::::::::::::::::::::::::::::::::::::::::

      ----------------------------------------------------------- 
     |                   =====================                   |
     |                        A N C O P T                        |
     |                   =====================                   |
     |               Approximate Normal Coordinate               |
     |                Rational Function Optimizer                |
      ----------------------------------------------------------- 

          ...................................................
          :                      SETUP                      :
          :.................................................:
          :   optimization level         verytight          :
          :   max. optcycles                   220          :
          :   ANC micro-cycles                  20          :
          :   degrees of freedom                27          :
          :.................................................:
          :   RF solver                   davidson          :
          :   write xtbopt.log                true          :
          :   linear?                        false          :
          :   energy convergence         0.1000000E-06 Eh   :
          :   grad. convergence          0.2000000E-03 Eh/α :
          :   maximum RF displ.          1.0000000          :
          :   Hlow (freq-cutoff)         0.1000000E-01      :
          :   Hmax (freq-cutoff)         5.0000000          :
          :   S6 in model hess.         20.0000000          :
          ...................................................

generating ANC from exact Hessian ...
Using Lindh-Hessian (1995)
 Shifting diagonal of input Hessian by    1.0477825941235686E-003
 Lowest  eigenvalues of input Hessian
    0.000000    0.000000    0.000000    0.000000    0.000000    0.000000
    0.010000    0.015967    0.017798    0.042646    0.045403    0.047741
    0.048389    0.055664    0.080818    0.083336    0.117698    0.136759
 Highest eigenvalues
    1.121934    1.153950    1.154481    1.165992    2.192132    3.093492


........................................................................
.............................. CYCLE    1 ..............................
........................................................................

 iter      E             dE          RMSdq      gap      omega  full diag
   1    -18.8315433 -0.188315E+02  0.439E-05    7.36       0.0  T
   2    -18.8315433 -0.378009E-11  0.233E-05    7.36    1293.0  T
   3    -18.8315433 -0.458300E-12  0.112E-05    7.36    2681.2  T
     SCC iter.                  ...        0 min,  0.001 sec
     gradient                   ...        0 min,  0.001 sec
 * total energy  :   -18.6834215 Eh     change       -0.2805578E-10 Eh
   gradient norm :     0.0600054 Eh/α   predicted     0.0000000E+00 (-100.00%)
   displ. norm   :     0.1084352 α      lambda       -0.3552475E-02
   maximum displ.:     0.0684030 α      in ANC's #7, #19, #1, ...

........................................................................
.............................. CYCLE    2 ..............................
........................................................................

 iter      E             dE          RMSdq      gap      omega  full diag
   1    -18.8456286 -0.188456E+02  0.257E-01    7.72       0.0  T
   2    -18.8456409 -0.123054E-04  0.125E-01    7.72       1.0  T
   3    -18.8456429 -0.198550E-05  0.323E-02    7.72       1.0  T
   4    -18.8456433 -0.360649E-06  0.160E-02    7.72       1.9  T
   5    -18.8456433 -0.611510E-07  0.274E-03    7.72      11.0  T
   6    -18.8456433 -0.311568E-08  0.861E-04    7.72      35.0  T
   7    -18.8456433 -0.296527E-09  0.165E-04    7.72     182.2  T
     SCC iter.                  ...        0 min,  0.001 sec
     gradient                   ...        0 min,  0.001 sec
 * total energy  :   -18.6859604 Eh     change       -0.2538895E-02 Eh
   gradient norm :     0.0339810 Eh/α   predicted    -0.1797122E-02 ( -29.22%)
   displ. norm   :     0.1121564 α      lambda       -0.1970032E-02
   maximum displ.:     0.0886252 α      in ANC's #1, #19, #26, ...

........................................................................
.............................. CYCLE    3 ..............................
........................................................................

 iter      E             dE          RMSdq      gap      omega  full diag
   1    -18.8574694 -0.188575E+02  0.191E-01    7.99       0.0  T
   2    -18.8575268 -0.573506E-04  0.128E-01    8.00       1.0  T
   3    -18.8575313 -0.455585E-05  0.480E-02    8.00       1.0  T
   4    -18.8575322 -0.895615E-06  0.148E-02    8.00       2.0  T
   5    -18.8575322 -0.296131E-07  0.190E-03    8.00      15.9  T
   6    -18.8575322 -0.133740E-08  0.595E-04    8.00      50.7  T
   7    -18.8575322 -0.127468E-09  0.214E-04    8.00     140.8  T
     SCC iter.                  ...        0 min,  0.001 sec
     gradient                   ...        0 min,  0.001 sec
 * total energy  :   -18.6869569 Eh     change       -0.9965336E-03 Eh
   gradient norm :     0.0057322 Eh/α   predicted    -0.9974053E-03 (   0.09%)
   displ. norm   :     0.0267753 α      lambda       -0.6982646E-04
   maximum displ.:     0.0217682 α      in ANC's #1, #17, #10, ...

........................................................................
.............................. CYCLE    4 ..............................
........................................................................

 iter      E             dE          RMSdq      gap      omega  full diag
   1    -18.8559288 -0.188559E+02  0.369E-02    7.98       0.0  T
   2    -18.8559290 -0.259836E-06  0.172E-02    7.98       1.7  T
   3    -18.8559291 -0.662462E-07  0.299E-03    7.98      10.1  T
   4    -18.8559291 -0.177625E-08  0.807E-04    7.98      37.3  T
   5    -18.8559291 -0.812825E-10  0.272E-04    7.98     111.0  T
     SCC iter.                  ...        0 min,  0.001 sec
     gradient                   ...        0 min,  0.001 sec
 * total energy  :   -18.6870063 Eh     change       -0.4938086E-04 Eh
   gradient norm :     0.0035012 Eh/α   predicted    -0.3493745E-04 ( -29.25%)
   displ. norm   :     0.0223577 α      lambda       -0.3172730E-04
   maximum displ.:     0.0153860 α      in ANC's #1, #10, #17, ...

........................................................................
.............................. CYCLE    5 ..............................
........................................................................

 iter      E             dE          RMSdq      gap      omega  full diag
   1    -18.8549223 -0.188549E+02  0.405E-02    7.97       0.0  T
   2    -18.8549225 -0.226802E-06  0.175E-02    7.97       1.7  T
   3    -18.8549225 -0.501446E-07  0.301E-03    7.97      10.0  T
   4    -18.8549226 -0.222458E-08  0.165E-03    7.97      18.3  T
   5    -18.8549226 -0.883265E-09  0.239E-04    7.97     126.1  T
   6    -18.8549226 -0.161968E-10  0.427E-05    7.97     706.6  T
     SCC iter.                  ...        0 min,  0.001 sec
     gradient                   ...        0 min,  0.001 sec
 * total energy  :   -18.6870253 Eh     change       -0.1906066E-04 Eh
   gradient norm :     0.0022227 Eh/α   predicted    -0.1587315E-04 ( -16.72%)
   displ. norm   :     0.0056226 α      lambda       -0.5837098E-05
   maximum displ.:     0.0033040 α      in ANC's #19, #10, #1, ...

........................................................................
.............................. CYCLE    6 ..............................
........................................................................

 iter      E             dE          RMSdq      gap      omega  full diag
   1    -18.8548691 -0.188549E+02  0.157E-02    7.96       0.0  T
   2    -18.8548692 -0.888949E-07  0.713E-03    7.96       4.2  T
   3    -18.8548692 -0.927356E-08  0.254E-03    7.96      11.9  T
   4    -18.8548692 -0.170866E-08  0.126E-03    7.96      23.9  T
   5    -18.8548692 -0.492708E-09  0.119E-04    7.96     254.2  T
   6    -18.8548692 -0.120792E-10  0.354E-05    7.96     850.9  T
     SCC iter.                  ...        0 min,  0.001 sec
     gradient                   ...        0 min,  0.001 sec
 * total energy  :   -18.6870294 Eh     change       -0.4062997E-05 Eh
   gradient norm :     0.0011774 Eh/α   predicted    -0.2920238E-05 ( -28.13%)
   displ. norm   :     0.0041952 α      lambda       -0.2450675E-05
   maximum displ.:     0.0036785 α      in ANC's #19, #26, #7, ...

........................................................................
.............................. CYCLE    7 ..............................
........................................................................

 iter      E             dE          RMSdq      gap      omega  full diag
   1    -18.8551286 -0.188551E+02  0.132E-02    7.97       0.0  T
   2    -18.8551288 -0.142365E-06  0.778E-03    7.97       3.9  T
   3    -18.8551288 -0.145607E-07  0.372E-03    7.97       8.1  T
   4    -18.8551288 -0.220270E-08  0.136E-03    7.97      22.2  T
   5    -18.8551288 -0.729273E-09  0.215E-04    7.97     140.3  T
   6    -18.8551288 -0.260236E-10  0.482E-05    7.97     625.2  T
     SCC iter.                  ...        0 min,  0.001 sec
     gradient                   ...        0 min,  0.001 sec
 * total energy  :   -18.6870306 Eh     change       -0.1215749E-05 Eh
   gradient norm :     0.0003904 Eh/α   predicted    -0.1224456E-05 (   0.72%)
   displ. norm   :     0.0017926 α      lambda       -0.2733751E-06
   maximum displ.:     0.0011461 α      in ANC's #19, #10, #17, ...

........................................................................
.............................. CYCLE    8 ..............................
........................................................................

 iter      E             dE          RMSdq      gap      omega  full diag
   1    -18.8551273 -0.188551E+02  0.510E-03    7.97       0.0  T
   2    -18.8551273 -0.966855E-08  0.230E-03    7.97      13.1  T
   3    -18.8551273 -0.103172E-08  0.830E-04    7.97      36.3  T
   4    -18.8551273 -0.175572E-09  0.412E-04    7.97      73.1  T
     SCC iter.                  ...        0 min,  0.001 sec
     gradient                   ...        0 min,  0.001 sec
 * total energy  :   -18.6870308 Eh     change       -0.2044059E-06 Eh
   gradient norm :     0.0000632 Eh/α   predicted    -0.1386822E-06 ( -32.15%)
   displ. norm   :     0.0002258 α      lambda       -0.7567476E-08
   maximum displ.:     0.0001418 α      in ANC's #1, #10, #20, ...

........................................................................
.............................. CYCLE    9 ..............................
........................................................................

 iter      E             dE          RMSdq      gap      omega  full diag
   1    -18.8551113 -0.188551E+02  0.461E-04    7.97       0.0  T
   2    -18.8551113 -0.328733E-10  0.217E-04    7.97     139.2  T
   3    -18.8551113 -0.522249E-11  0.533E-05    7.97     565.2  T
     SCC iter.                  ...        0 min,  0.001 sec
     gradient                   ...        0 min,  0.001 sec
 * total energy  :   -18.6870308 Eh     change       -0.3953808E-08 Eh
   gradient norm :     0.0000128 Eh/α   predicted    -0.2506985E-08 ( -36.59%)
   displ. norm   :     0.0000799 α      lambda        0.1574283E-08
   maximum displ.:     0.0000498 α      in ANC's #7, #1, #17, ...

   *** GEOMETRY OPTIMIZATION CONVERGED AFTER 9 ITERATIONS ***

------------------------------------------------------------------------
 total energy gain   :        -0.0036094 Eh       -2.2649 kcal/mol
 total RMSD          :         0.0550121 a0        0.0291 Å
 total power (kW/mol):        -1.0529296 (step) -349.7687 (real)
------------------------------------------------------------------------

 ANCopt (total)                0 d,  0 h,  0 min,  0.027 sec
 optimizer setup                ...        0 min,  0.000 sec (  0.132%)
 model hessian                  ...        0 min,  0.001 sec (  2.488%)
 ANC generation                 ...        0 min,  0.000 sec (  0.372%)
 coordinate transformation      ...        0 min,  0.000 sec (  0.080%)
 single point calculation       ...        0 min,  0.025 sec ( 92.340%)
 optimization log               ...        0 min,  0.000 sec (  1.115%)
 hessian update                 ...        0 min,  0.000 sec (  0.104%)
 rational function              ...        0 min,  0.000 sec (  1.112%)

================
 final structure:
================
$coord
       -2.68837500431697       -1.89843641926904       -0.00053697353559      C
       -0.00000190066321        0.23004383566211        0.00011918697158      S
       -0.00021977209721        1.62512255240202        2.32688253586024      O
        0.00020808342902        1.62601155757467       -2.32611131192143      O
        2.68838323316335       -1.89842131931424       -0.00004242433738      C
       -4.38473558452148       -0.75381521955144       -0.00038903743416      H
       -2.60444700424794       -3.04165705500418       -1.69318859468431      H
       -2.60467129031063       -3.04242321304780        1.69160795538692      H
        4.38473733053545       -0.75379058782135        0.00039919416180      H
        2.60438444988386       -3.04239613309513        1.69209598458932      H
        2.60476324268321       -3.04165488036052       -1.69270055704625      H
$end

 Bond Distances (Angstroems)
 ---------------------------
C1-S2=1.8145         C1-H6=1.0829         C1-H7=1.0818         C1-H8=1.0818         S2-C1=1.8145         S2-O3=1.4356         
S2-O4=1.4356         S2-C5=1.8145         O3-S2=1.4356         O4-S2=1.4356         C5-S2=1.8145         C5-H9=1.0829         
C5-H10=1.0818        C5-H11=1.0818        H6-C1=1.0829         H7-C1=1.0818         H8-C1=1.0818         H9-C5=1.0829         
H10-C5=1.0818        H11-C5=1.0818        
 C  H  Rav=1.0822 sigma=0.0005  Rmin=1.0818  Rmax=1.0829     6
 S  C  Rav=1.8145 sigma=0.0000  Rmin=1.8145  Rmax=1.8145     2
 S  O  Rav=1.4356 sigma=0.0000  Rmin=1.4356  Rmax=1.4356     2

 selected bond angles (degree)
 --------------------
H6-C1-S2=107.62                H7-C1-S2=108.37                H7-C1-H6=110.30                H8-C1-S2=108.37                
H8-C1-H6=110.30                H8-C1-H7=111.76                O3-S2-C1=108.62                O4-S2-C1=108.62                
O4-S2-O3=118.09                C5-S2-C1=103.26                C5-S2-O3=108.62                C5-S2-O4=108.62                
H9-C5-S2=107.62                H10-C5-S2=108.37               H10-C5-H9=110.30               H11-C5-S2=108.37               
H11-C5-H9=110.30               H11-C5-H10=111.76              

 selected dihedral angles (degree)
 ---------------------------------
O3-S2-C1-H6= 64.81            O3-S2-C1-H7=184.08            O3-S2-C1-H8=305.54            O4-S2-C1-H6=295.18            
O4-S2-C1-H7= 54.46            O4-S2-C1-H8=175.91            C5-S2-C1-H6=180.00            C5-S2-C1-H7=299.27            
C5-S2-C1-H8= 60.73            H9-C5-S2-C1=180.00            H9-C5-S2-O3=295.19            H9-C5-S2-O4= 64.82            
H10-C5-S2-C1=299.27           H10-C5-S2-O3= 54.46           H10-C5-S2-O4=184.09           H11-C5-S2-C1= 60.73           
H11-C5-S2-O3=175.92           H11-C5-S2-O4=305.54           
           -------------------------------------------------
          |                Final Singlepoint                |
           -------------------------------------------------

          ...................................................
          :                      SETUP                      :
          :.................................................:
          :  # basis functions                  32          :
          :  # atomic orbitals                  31          :
          :  # shells                           17          :
          :  # electrons                        32          :
          :  max. iterations                   250          :
          :  Hamiltonian                  GFN2-xTB          :
          :  restarted?                      false          :
          :  GBSA solvation                  false          :
          :  PC potential                    false          :
          :  electronic temp.          300.0000000     K    :
          :  accuracy                    1.0000000          :
          :  -> integral cutoff          0.2500000E+02      :
          :  -> integral neglect         0.1000000E-07      :
          :  -> SCF convergence          0.1000000E-05 Eh   :
          :  -> wf. convergence          0.1000000E-03 e    :
          :  Broyden damping             0.4000000          :
          :  net charge                          0          :
          :  unpaired electrons                  0          :
          ...................................................

 iter      E             dE          RMSdq      gap      omega  full diag
   1    -18.8551113 -0.188551E+02  0.270E-05    7.97       0.0  T
   2    -18.8551113 -0.142109E-12  0.144E-05    7.97    2099.7  T
   3    -18.8551113 -0.710543E-14  0.535E-06    7.97    5635.8  T

   *** convergence criteria satisfied after 3 iterations ***

         #    Occupation            Energy/Eh            Energy/eV
      -------------------------------------------------------------
         1        2.0000           -0.7808148             -21.2471
       ...           ...                  ...                  ...
        10        2.0000           -0.5138944             -13.9838
        11        2.0000           -0.5040016             -13.7146
        12        2.0000           -0.5033253             -13.6962
        13        2.0000           -0.4542492             -12.3607
        14        2.0000           -0.4432501             -12.0615
        15        2.0000           -0.4361947             -11.8695
        16        2.0000           -0.4228113             -11.5053 (HOMO)
        17                         -0.1298907              -3.5345 (LUMO)
        18                         -0.1077237              -2.9313
        19                         -0.0864671              -2.3529
        20                         -0.0492265              -1.3395
        21                          0.1007946               2.7428
       ...                                ...                  ...
        31                          1.2182218              33.1495
      -------------------------------------------------------------
                  HL-Gap            0.2929205 Eh            7.9708 eV
             Fermi-level           -0.2763510 Eh           -7.5199 eV

 SCC (total)                   0 d,  0 h,  0 min,  0.002 sec
 SCC setup                      ...        0 min,  0.000 sec (  1.136%)
 Dispersion                     ...        0 min,  0.000 sec (  0.581%)
 classical contributions        ...        0 min,  0.000 sec (  0.269%)
 integral evaluation            ...        0 min,  0.001 sec ( 22.590%)
 iterations                     ...        0 min,  0.001 sec ( 25.297%)
 molecular gradient             ...        0 min,  0.001 sec ( 48.196%)
 printout                       ...        0 min,  0.000 sec (  1.657%)

         :::::::::::::::::::::::::::::::::::::::::::::::::::::
         ::                     SUMMARY                     ::
         :::::::::::::::::::::::::::::::::::::::::::::::::::::
         :: total energy             -18.687030812442 Eh    ::
         :: gradient norm              0.000012676659 Eh/a0 ::
         :: HOMO-LUMO gap              7.970773222073 eV    ::
         ::.................................................::
         :: SCC energy               -18.855106436488 Eh    ::
         :: -> isotropic ES            0.063967570956 Eh    ::
         :: -> anisotropic ES         -0.000368840433 Eh    ::
         :: -> anisotropic XC          0.003619767323 Eh    ::
         :: -> dispersion             -0.006604177474 Eh    ::
         :: repulsion energy           0.168075624047 Eh    ::
         :: add. restraining           0.000000000000 Eh    ::
         :: total charge               0.000000000000 e     ::
         :::::::::::::::::::::::::::::::::::::::::::::::::::::

           ------------------------------------------------- 
          |                Numerical Hessian                |
           ------------------------------------------------- 
step length          :   0.00500
SCC accuracy         :   0.30000
Hessian scale factor :   1.00000
frozen atoms in %    :   0.00000    0
RMS gradient         :   0.00001
estimated CPU  time      0.00 min
estimated wall time      0.00 min

writing file <hessian>, containing the non-mass-weighted Hessian matrix in atomic units (Eₕ/Bohr²).

 projected vibrational frequencies (cm⁻¹)
eigval :       -0.00    -0.00    -0.00     0.00     0.00     0.00
eigval :      103.16   145.02   237.87   268.88   308.74   400.57
eigval :      460.45   648.31   714.35   814.86   836.55   873.82
eigval :      889.02  1123.60  1264.81  1267.46  1273.00  1415.92
eigval :     1425.17  1433.11  1441.37  3067.43  3068.85  3081.98
eigval :     3086.34  3091.50  3094.05
           -------------------------------------------------
          |                Property Printout                |
           -------------------------------------------------

    * Orbital Energies and Occupations

         #    Occupation            Energy/Eh            Energy/eV
      -------------------------------------------------------------
         1        2.0000           -0.7808148             -21.2471
       ...           ...                  ...                  ...
         4        2.0000           -0.6322236             -17.2037
         5        2.0000           -0.6107183             -16.6185
         6        2.0000           -0.5418507             -14.7445
         7        2.0000           -0.5404386             -14.7061
         8        2.0000           -0.5403999             -14.7050
         9        2.0000           -0.5181769             -14.1003
        10        2.0000           -0.5138944             -13.9838
        11        2.0000           -0.5040016             -13.7146
        12        2.0000           -0.5033253             -13.6962
        13        2.0000           -0.4542492             -12.3607
        14        2.0000           -0.4432502             -12.0615
        15        2.0000           -0.4361947             -11.8695
        16        2.0000           -0.4228113             -11.5053 (HOMO)
        17                         -0.1298907              -3.5345 (LUMO)
        18                         -0.1077237              -2.9313
        19                         -0.0864671              -2.3529
        20                         -0.0492265              -1.3395
        21                          0.1007946               2.7428
        22                          0.1027346               2.7955
        23                          0.1241878               3.3793
        24                          0.1324966               3.6054
        25                          0.1961168               5.3366
        26                          0.1973295               5.3696
        27                          0.2388594               6.4997
       ...                                ...                  ...
        31                          1.2182218              33.1495
      -------------------------------------------------------------
                  HL-Gap            0.2929205 Eh            7.9708 eV
             Fermi-level           -0.2763510 Eh           -7.5199 eV

     #   Z          covCN         q      C6AA      α(0)
     1   6          3.746    -0.197    24.447     7.053
     2  16          3.659     0.968   107.579    17.457
     3   8          0.860    -0.540    24.682     6.661
     4   8          0.860    -0.540    24.682     6.661
     5   6          3.746    -0.197    24.447     7.053
     6   1          0.926     0.094     1.837     2.120
     7   1          0.926     0.079     1.988     2.205
     8   1          0.926     0.079     1.988     2.205
     9   1          0.926     0.094     1.837     2.120
    10   1          0.926     0.079     1.988     2.205
    11   1          0.926     0.079     1.988     2.205

 Mol. C6AA /au·bohr⁶  :       1472.353486
 Mol. C8AA /au·bohr⁸  :      39406.630587
 Mol. α(0) /au        :         57.942988


Wiberg/Mayer (AO) data.
largest (>0.10) Wiberg bond orders for each atom

 ---------------------------------------------------------------------------
     #   Z sym  total        # sym  WBO       # sym  WBO       # sym  WBO
 ---------------------------------------------------------------------------
     1   6      3.981 --     7      0.982     8      0.982     6      0.974
                             2      0.786
     2  16      4.937 --     3      1.662     4      1.662     5      0.786
                             1      0.786
     3   8      1.955 --     2      1.662     4      0.115
     4   8      1.955 --     2      1.662     3      0.115
     5   6      3.981 --    11      0.982    10      0.982     9      0.974
                             2      0.786
     6   1      0.991 --     1      0.974
     7   1      0.994 --     1      0.982
     8   1      0.994 --     1      0.982
     9   1      0.991 --     5      0.974
    10   1      0.994 --     5      0.982
    11   1      0.994 --     5      0.982
 ---------------------------------------------------------------------------

Topologies differ in total number of bonds
Writing topology from bond orders to xtbtopo.mol

molecular dipole:
                 x           y           z       tot (Debye)
 q only:       -0.000      -1.890      -0.000
   full:       -0.000      -2.085      -0.000       5.300
molecular quadrupole (traceless):
                xx          xy          yy          xz          yz          zz
 q only:        5.991      -0.000      -0.181       0.001       0.001      -5.810
  q+dip:        6.641      -0.000      -0.259       0.001       0.001      -6.383
   full:        7.077      -0.000      -0.196       0.001       0.001      -6.881

           -------------------------------------------------
          |                Geometry Summary                 |
           -------------------------------------------------

      molecular mass/u    :       94.1327136
   center of mass at/Å    :       -0.0000007       0.0000288       0.0000394
  moments of inertia/u·Å² :        0.1108987E+03   0.1188621E+03   0.1262935E+03
rotational constants/cm⁻¹ :        0.1520093E+00   0.1418251E+00   0.1334798E+00

 * 10 selected distances

     #   Z          #   Z                                           value/Å
     1   6          2  16                                         1.8145286 (max)
     2  16          3   8                                         1.4356290
     2  16          4   8                                         1.4356292
     2  16          5   6                                         1.8145286
     1   6          6   1                                         1.0829140
     1   6          7   1                                         1.0817847
     1   6          8   1                                         1.0817847 (min)
     5   6          9   1                                         1.0829140
     5   6         10   1                                         1.0817847
     5   6         11   1                                         1.0817847

 * 3 distinct bonds (by element types)

   Z      Z             #   av. dist./Å        max./Å        min./Å
   1 H    6 C           6     1.0821611     1.0829140     1.0817847
   6 C   16 S           2     1.8145286     1.8145286     1.8145286
   8 O   16 S           2     1.4356291     1.4356292     1.4356290

           -------------------------------------------------
          |               Frequency Printout                |
           -------------------------------------------------
 projected vibrational frequencies (cm⁻¹)
eigval :       -0.00    -0.00    -0.00     0.00     0.00     0.00
eigval :      103.16   145.02   237.87   268.88   308.74   400.57
eigval :      460.45   648.31   714.35   814.86   836.55   873.82
eigval :      889.02  1123.60  1264.81  1267.46  1273.00  1415.92
eigval :     1425.17  1433.11  1441.37  3067.43  3068.85  3081.98
eigval :     3086.34  3091.50  3094.05
 reduced masses (amu)
    1:      4.72    2:      8.85    3:      4.63    4:      6.40    5:      4.91    6:      6.05
    7:      1.02    8:      1.04    9:      2.57   10:      3.85   11:      3.17   12:      4.56
   13:      9.95   14:      4.37   15:      2.50   16:      1.75   17:      1.26   18:      1.37
   19:      1.35   20:     11.97   21:      1.26   22:     17.93   23:      1.24   24:      1.07
   25:      1.07   26:      1.07   27:      1.06   28:      1.02   29:      1.02   30:      1.10
   31:      1.10   32:      1.10   33:      1.10
 IR intensities (km·mol⁻¹)
    1:      2.91    2:      0.94    3:      6.75    4:      1.10    5:      1.98    6:      6.35
    7:      0.00    8:      0.51    9:      0.52   10:      0.00   11:      4.37   12:     80.21
   13:     69.69   14:     36.42   15:     77.75   16:    209.63   17:      0.00   18:     18.48
   19:     33.54   20:    316.43   21:     49.16   22:    531.51   23:     32.31   24:      8.71
   25:      3.47   26:      0.00   27:     23.78   28:      0.99   29:      0.83   30:      0.00
   31:      3.32   32:      0.00   33:     12.02
 Raman intensities (Ä⁴*amu⁻¹)
    1:      0.00    2:      0.00    3:      0.00    4:      0.00    5:      0.00    6:      0.00
    7:      0.00    8:      0.00    9:      0.00   10:      0.00   11:      0.00   12:      0.00
   13:      0.00   14:      0.00   15:      0.00   16:      0.00   17:      0.00   18:      0.00
Molecule has the following symmetry elements: (C2) 2*(sigma) 
It seems to be the C2v point group
   19:      0.00   20:      0.00   21:      0.00   22:      0.00   23:      0.00   24:      0.00
   25:      0.00   26:      0.00   27:      0.00   28:      0.00   29:      0.00   30:      0.00
   31:      0.00   32:      0.00   33:      0.00
 output can be read by thermo (or use thermo option).
 writing <g98.out> molden fake output.
 recommended (thermochemical) frequency scaling factor: 1.0
           -------------------------------------------------
          |             Thermodynamic Functions             |
           -------------------------------------------------

c2v symmetry found (for desy threshold:  0.10E+00) used in thermo

          ...................................................
          :                      SETUP                      :
          :.................................................:
          :  # frequencies                          27      :
          :  # imaginary freq.                       0      :
          :  linear?                             false      :
          :  only rotor calc.                    false      :
          :  symmetry                              c2v      :
          :  rotational number                       2      :
          :  scaling factor                  1.0000000      :
          :  rotor cutoff                    0.0000000 cm⁻¹ :
          :  imag. cutoff                 -100.0000000 cm⁻¹ :
          :.................................................:

    mode    ω/cm⁻¹     T·S(HO)/kcal·mol⁻¹    T·S(FR)/kcal·mol⁻¹   T·S(vib)
   ------------------------------------------------------------------------
       1    103.16    -1.01181 (100.00%)    -0.84157 (  0.00%)    -1.01181
       2    145.02    -0.81592 (100.00%)    -0.74082 (  0.00%)    -0.81592
       3    237.87    -0.54226 (100.00%)    -0.59433 (  0.00%)    -0.54226
       4    268.88    -0.47805 (100.00%)    -0.55804 (  0.00%)    -0.47805
   ------------------------------------------------------------------------

   temp. (K)  partition function   enthalpy   heat capacity  entropy
                                   cal/mol     cal/K/mol   cal/K/mol   J/K/mol
 298.15  VIB   20.3                 2451.205     16.973     14.200
         ROT  0.493E+05              888.727      2.981     24.453
         INT  0.998E+06             3339.933     19.954     38.653
         TR   0.279E+26             1481.212      4.968     39.538
         TOT                        4821.1451    24.9222    78.1905   327.1492

       T/K    H(0)-H(T)+PV         H(T)/Eh          T*S/Eh         G(T)/Eh
   ------------------------------------------------------------------------
    298.15    0.768298E-02    0.893239E-01    0.371508E-01    0.521730E-01
   ------------------------------------------------------------------------

         :::::::::::::::::::::::::::::::::::::::::::::::::::::
         ::                  THERMODYNAMIC                  ::
         :::::::::::::::::::::::::::::::::::::::::::::::::::::
         :: total free energy         -18.634857802064 Eh   ::
         ::.................................................::
         :: total energy              -18.687030812442 Eh   ::
         :: zero point energy           0.081640874215 Eh   ::
         :: G(RRHO) w/o ZPVE           -0.029467863838 Eh   ::
         :: G(RRHO) contrib.            0.052173010377 Eh   ::
         :::::::::::::::::::::::::::::::::::::::::::::::::::::

optimized geometry written to: xtbopt.coord


           -------------------------------------------------
          | TOTAL ENERGY              -18.687030812442 Eh   |
          | TOTAL ENTHALPY            -18.597706954536 Eh   |
          | TOTAL FREE ENERGY         -18.634857802064 Eh   |
          | GRADIENT NORM               0.000012701349 Eh/α |
          | HOMO-LUMO GAP               7.970773332507 eV   |
           -------------------------------------------------

------------------------------------------------------------------------
 * finished run on 2025/04/08 at 23:36:28.834     
------------------------------------------------------------------------
 total:
 * wall-time:     0 d,  0 h,  0 min,  0.224 sec
 *  cpu-time:     0 d,  0 h,  0 min,  0.221 sec
 * ratio c/w:     0.986 speedup
 SCF:
 * wall-time:     0 d,  0 h,  0 min,  0.004 sec
 *  cpu-time:     0 d,  0 h,  0 min,  0.004 sec
 * ratio c/w:     0.977 speedup
 ANC optimizer:
 * wall-time:     0 d,  0 h,  0 min,  0.030 sec
 *  cpu-time:     0 d,  0 h,  0 min,  0.029 sec
 * ratio c/w:     0.986 speedup
 analytical hessian:
 * wall-time:     0 d,  0 h,  0 min,  0.186 sec
 *  cpu-time:     0 d,  0 h,  0 min,  0.183 sec
 * ratio c/w:     0.987 speedup

