11
 energy: -18.683421455268 gnorm: 0.060005403640 xtb: 6.7.1 (41059b4)
C           -1.42137033838484       -1.00698744807296       -0.00028180647358
S           -0.00000102770646        0.12121027985778        0.00005603223619
O           -0.00011943199278        0.84815767184150        1.28007394736238
O            0.00011322512679        0.84861725914152       -1.27970621967438
C            1.42137464888741       -1.00697938524996       -0.00001959886692
H           -2.30708397893416       -0.36695676417728       -0.00016360950747
H           -1.39600090767986       -1.61829555495303       -0.90485946940974
H           -1.39608659174410       -1.61874061644451        0.90399744029108
H            2.30708472426458       -0.36694407525715        0.00024820524782
H            1.39593407688975       -1.61872130262179        0.90426262760723
H            1.39616924533409       -1.61829902619025       -0.90459395735348
11
 energy: -18.685960350204 gnorm: 0.033981021430 xtb: 6.7.1 (41059b4)
C           -1.43431266540190       -1.00057360089225       -0.00028165705966
S           -0.00000095487806        0.10928802738661        0.00005386220855
O           -0.00011809922598        0.83645067322393        1.26080809286847
O            0.00011205032010        0.83690544640306       -1.26044132116287
C            1.43431699702648       -1.00056552147249       -0.00001716302795
H           -2.32373446421345       -0.37843825138937       -0.00017132037799
H           -1.40258790757850       -1.60692997392955       -0.89764626690290
H           -1.40267486703110       -1.60736818507270        0.89678994862907
H            2.32373527973231       -0.37842522480661        0.00024382645288
H            1.40252355349500       -1.60734981922969        0.89705588620429
H            1.40275472181553       -1.60693253234707       -0.89738029637278
11
 energy: -18.686956883811 gnorm: 0.005732181690 xtb: 6.7.1 (41059b4)
C           -1.42532229822203       -1.00265979088384       -0.00028147007406
S           -0.00000098541394        0.11785326943207        0.00005570578698
O           -0.00011653054431        0.84617488781818        1.23644454195031
O            0.00011043334778        0.84662501777040       -1.23606834004913
C            1.42532665670614       -1.00265179301287       -0.00001871004692
H           -2.31728265347830       -0.39291316081780       -0.00017885024371
H           -1.38420268687851       -1.60565548772157       -0.89442359696079
H           -1.38429276076961       -1.60608592095595        0.89357444868487
H            2.31728355869620       -0.39290008754679        0.00023548791934
H            1.38414217955994       -1.60606890538181        0.89383624685401
H            1.38436873105707       -1.60565699082615       -0.89416187236179
11
 energy: -18.687006264671 gnorm: 0.003501158751 xtb: 6.7.1 (41059b4)
C           -1.42345522160583       -1.00342383552234       -0.00028181551515
S           -0.00000100277610        0.12118321700571        0.00005722038442
O           -0.00011653845698        0.85213332725528        1.23476719784824
O            0.00011040154510        0.85258577590134       -1.23438515579778
C            1.42345956978607       -1.00341584542288       -0.00001945574041
H           -2.31912499688240       -0.39566486452624       -0.00018278757002
H           -1.38035019331117       -1.60771155239458       -0.89571922888957
H           -1.38044387201354       -1.60813864773216        0.89487166771714
H            2.31912589333643       -0.39565182185238        0.00023220316438
H            1.38029308682775       -1.60812215083821        0.89513232385473
H            1.38051651761108       -1.60771256399968       -0.89545857799686
11
 energy: -18.687025325335 gnorm: 0.002222672756 xtb: 6.7.1 (41059b4)
C           -1.42242677769000       -1.00415185945235       -0.00028247377257
S           -0.00000101316317        0.12326580686699        0.00005910398206
O           -0.00011651572243        0.85812337215155        1.23270710737398
O            0.00011034822927        0.85858022933568       -1.23231670460866
C            1.42243112541794       -1.00414386965247       -0.00002042225902
H           -2.32072384189274       -0.39853059458295       -0.00018926759994
H           -1.37825055704663       -1.60943441256755       -0.89626054031007
H           -1.37835058266928       -1.60985557183030        0.89541574322407
H            2.32072475204549       -0.39851756211930        0.00022651411937
H            1.37819956647840       -1.60983978794582        0.89567539726412
H            1.37841714007357       -1.60943471232962       -0.89600086595423
11
 energy: -18.687029388332 gnorm: 0.001177412941 xtb: 6.7.1 (41059b4)
C           -1.42252275858541       -1.00445863029922       -0.00028299164937
S           -0.00000101051363        0.12287966522094        0.00006017168392
O           -0.00011647221485        0.85980631869341        1.23180721510479
O            0.00011029012068        0.86026680539201       -1.23141152900924
C            1.42252710993604       -1.00445064000005       -0.00002102041387
H           -2.32086204671776       -0.39911443740951       -0.00019389904206
H           -1.37809206294519       -1.60973715999008       -0.89620421064136
H           -1.37819706503897       -1.61015390087768        0.89536166012409
H            2.32086296603337       -0.39910140482511        0.00022227060450
H            1.37804587602011       -1.61013855043559        0.89562088986609
H            1.37825881796604       -1.60973702759525       -0.89594496516838
11
 energy: -18.687030604081 gnorm: 0.000390388290 xtb: 6.7.1 (41059b4)
C           -1.42277855071807       -1.00473258148221       -0.00028381100273
S           -0.00000100453220        0.12156953370251        0.00006191244666
O           -0.00011636283608        0.86045890981433        1.23106640868105
O            0.00011017259210        0.86092578737240       -1.23066249069602
C            1.42278290692230       -1.00472458996612       -0.00002196605801
H           -2.32032943711457       -0.39904335501660       -0.00020162594628
H           -1.37823782353946       -1.60963978273827       -0.89595108283068
H           -1.37835155781380       -1.61004913086620        0.89511249139615
H            2.32033036456657       -0.39903032048019        0.00021508051674
H            1.37820003580161       -1.61003443449184        0.89537112345382
H            1.37840490073203       -1.60963899797393       -0.89569244850157
11
 energy: -18.687030808487 gnorm: 0.000063232253 xtb: 6.7.1 (41059b4)
C           -1.42266592672482       -1.00461693870396       -0.00028386427657
S           -0.00000100559131        0.12172032824705        0.00006225083387
O           -0.00011633977056        0.85992729094283        1.23135474131817
O            0.00011015475414        0.86039507439974       -1.23094989601068
C            1.42267028137284       -1.00460894791441       -0.00002207130736
H           -2.32028969946698       -0.39887498917698       -0.00020269490066
H           -1.37822886321085       -1.60955437003486       -0.89598732617222
H           -1.37834394363953       -1.60996278307415        0.89514928694252
H            2.32029062313363       -0.39886195455625        0.00021412059019
H            1.37819233477197       -1.60994816749780        0.89540782655405
H            1.37839602843191       -1.60955350475734       -0.89572878211217
11
 energy: -18.687030812440 gnorm: 0.000012770600 xtb: 6.7.1 (41059b4)
C           -1.42262678664981       -1.00460928942830       -0.00028415415789
S           -0.00000100578766        0.12173395534145        0.00006307102920
O           -0.00011629838543        0.85997781965809        1.23133321042889
O            0.00011011300861        0.86044826093584       -1.23092509629597
C            1.42263114116778       -1.00460129887634       -0.00002244999253
H           -2.32030214717076       -0.39890183541959       -0.00020586974434
H           -1.37821400165649       -1.60957559689508       -0.89599681807034
H           -1.37833268872959       -1.60998103027172        0.89516037977550
H            2.32030307112156       -0.39888880086936        0.00021124445315
H            1.37818089931257       -1.60996670017789        0.89541863370767
H            1.37838134782964       -1.60957444612322       -0.89573855967421
