      -----------------------------------------------------------      
     |                   =====================                   |     
     |                           x T B                           |     
     |                   =====================                   |     
     |                         S. Grimme                         |     
     |          Mulliken Center for Theoretical Chemistry        |     
     |                    University of Bonn                     |     
      -----------------------------------------------------------      

   * xtb version 6.7.1 (41059b4) compiled by 'michael@archlinux' on 2025-03-24

   xtb is free software: you can redistribute it and/or modify it under
   the terms of the GNU Lesser General Public License as published by
   the Free Software Foundation, either version 3 of the License, or
   (at your option) any later version.
   
   xtb is distributed in the hope that it will be useful,
   but WITHOUT ANY WARRANTY; without even the implied warranty of
   MERCHANTABILITY or FITNESS FOR A PARTICULAR PURPOSE.  See the
   GNU Lesser General Public License for more details.
   
   Cite this work as:
   * C. Bannwarth, E. Caldeweyher, S. Ehlert, A. Hansen, P. Pracht,
     J. Seibert, S. Spicher, S. Grimme, WIREs Comput. Mol. Sci., 2020, 11,
     e01493. DOI: 10.1002/wcms.1493
   
   for GFN2-xTB:
   * C. Bannwarth, S. Ehlert and S. Grimme., J. Chem. Theory Comput., 2019,
     15, 1652-1671. DOI: 10.1021/acs.jctc.8b01176
   for GFN1-xTB:
   * S. Grimme, C. Bannwarth, P. Shushkov, J. Chem. Theory Comput., 2017,
     13, 1989-2009. DOI: 10.1021/acs.jctc.7b00118
   for GFN0-xTB:
   * P. Pracht, E. Caldeweyher, S. Ehlert, S. Grimme, ChemRxiv, 2019, preprint.
     DOI: 10.26434/chemrxiv.8326202.v1
   for GFN-FF:
   * S. Spicher and S. Grimme, Angew. Chem. Int. Ed., 2020, 59, 15665-15673.
     DOI: 10.1002/anie.202004239
   
   for ALPB and GBSA implicit solvation:
   * S. Ehlert, M. Stahn, S. Spicher, S. Grimme, J. Chem. Theory Comput.,
     2021, 17, 4250-4261. DOI: 10.1021/acs.jctc.1c00471
   
   for ddCOSMO and CPCM-X implicit solvation:
   * M. Stahn, S. Ehlert, S. Grimme, J. Phys. Chem. A,
     2023, XX, XXXX-XXXX. DOI: 10.1021/acs.jpca.3c04382
   
   for DFT-D4:
   * E. Caldeweyher, C. Bannwarth and S. Grimme, J. Chem. Phys., 2017,
     147, 034112. DOI: 10.1063/1.4993215
   * E. Caldeweyher, S. Ehlert, A. Hansen, H. Neugebauer, S. Spicher,
     C. Bannwarth and S. Grimme, J. Chem. Phys., 2019, 150, 154122.
     DOI: 10.1063/1.5090222
   * E. Caldeweyher, J.-M. Mewes, S. Ehlert and S. Grimme, Phys. Chem. Chem. Phys.
     2020, 22, 8499-8512. DOI: 10.1039/D0CP00502A
   
   for sTDA-xTB:
   * S. Grimme and C. Bannwarth, J. Chem. Phys., 2016, 145, 054103.
     DOI: 10.1063/1.4959605
   
   in the mass-spec context:
   * V. Asgeirsson, C. Bauer and S. Grimme, Chem. Sci., 2017, 8, 4879.
     DOI: 10.1039/c7sc00601b
   * J. Koopman and S. Grimme, ACS Omega 2019, 4, 12, 15120-15133.
     DOI: 10.1021/acsomega.9b02011
   
   for metadynamics refer to:
   * S. Grimme, J. Chem. Theory Comput., 2019, 155, 2847-2862
     DOI: 10.1021/acs.jctc.9b00143
   
   for SPH calculations refer to:
   * S. Spicher and S. Grimme, J. Chem. Theory Comput., 2021, 17, 1701-1714
     DOI: 10.1021/acs.jctc.0c01306
   
   for ONIOM refer to:
   * C. Plett, A. Katbashev, S. Ehlert, S. Grimme, M. Bursch,
     Phys. Chem. Chem. Phys., 2023, 25, 17860-17868. DOI: 10.1039/D3CP02178E
   
   for DIPRO refer to:
   * J. Kohn, N. Gildemeister, S. Grimme, D. Fazzi, A. Hansen,
     J. Chem. Phys., 2023, just accepted.
   
   for PTB refer to:
   * S. Grimme, M. Mueller, A. Hansen, J. Chem. Phys., 2023, 158, 124111.
     DOI: 10.1063/5.0137838
   
   with help from (in alphabetical order)
   P. Atkinson, C. Bannwarth, F. Bohle, G. Brandenburg, E. Caldeweyher
   M. Checinski, S. Dohm, S. Ehlert, S. Ehrlich, I. Gerasimov, C. Hölzer
   A. Katbashev, J. Kohn, J. Koopman, C. Lavigne, S. Lehtola, F. März, M. Müller,
   F. Musil, H. Neugebauer, J. Pisarek, C. Plett, P. Pracht, F. Pultar,
   J. Seibert, P. Shushkov, S. Spicher, M. Stahn, M. Steiner, T. Strunk,
   J. Stückrath, T. Rose, and J. Unsleber
   
 * started run on 2025/04/09 at 02:56:34.127     
   ID    Z sym.   atoms
    1    6 C      1-9
    2    1 H      10-21

           -------------------------------------------------
          |                Calculation Setup                |
           -------------------------------------------------

          program call               : /usr/bin/xtb xtb_opt.coord --opt normal --orca -I xtb_opt-xcontrol-inp
          coordinate file            : xtb_opt.coord
          omp threads                :                    16

           -------------------------------------------------
          |                   Orca driver                   |
           -------------------------------------------------
orca executable           : /home/michael/Documents/CHEM4561/orca_avx2/orca
orca input file           : xtb_opt.inp
orca input line           : 
orca parallel             : true
orca number of threads    : 16
                         * ORCA takes the control...
  ------------------------------------------------------------------------

                                 *****************
                                 * O   R   C   A *
                                 *****************

                                            #,                                       
                                            ###                                      
                                            ####                                     
                                            #####                                    
                                            ######                                   
                                           ########,                                 
                                     ,,################,,,,,                         
                               ,,#################################,,                 
                          ,,##########################################,,             
                       ,#########################################, ''#####,          
                    ,#############################################,,   '####,        
                  ,##################################################,,,,####,       
                ,###########''''           ''''###############################       
              ,#####''   ,,,,##########,,,,          '''####'''          '####       
            ,##' ,,,,###########################,,,                        '##       
           ' ,,###''''                  '''############,,,                           
         ,,##''                                '''############,,,,        ,,,,,,###''
      ,#''                                            '''#######################'''  
     '                                                          ''''####''''         
             ,#######,   #######,   ,#######,      ##                                
            ,#'     '#,  ##    ##  ,#'     '#,    #''#        ,####,   ,####,        
            ##       ##  ##   ,#'  ##            #'  '#       #'       #'  '#        
            ##       ##  #######   ##           ,######,      #####,   #    #        
            '#,     ,#'  ##    ##  '#,     ,#' ,#      #,     #,   #   #,  ,#        
             '#######'   ##     ##  '#######'  #'      '#     '####' # '####'        



                #########################################################
                #                        -***-                          #
                #          Department of theory and spectroscopy        #
                #                                                       #
                #                      Frank Neese                      #
                #                                                       #
                #     Directorship, Architecture, Infrastructure        #
                #                    SHARK, DRIVERS                     #
                #        Core code/Algorithms in most modules           #
                #                                                       #
                #        Max Planck Institute fuer Kohlenforschung      #
                #                Kaiser Wilhelm Platz 1                 #
                #                 D-45470 Muelheim/Ruhr                 #
                #                      Germany                          #
                #                                                       #
                #                  All rights reserved                  #
                #                        -***-                          #
                #########################################################


                         Program Version 6.0.1  -  RELEASE   -


 With contributions from (in alphabetic order):
[Max-Planck-Institut fuer Kohlenforschung]                               
  Daniel Aravena         : Magnetic Suceptibility                        
  Michael Atanasov       : Ab Initio Ligand Field Theory (pilot matlab implementation)
  Alexander A. Auer      : GIAO ZORA, VPT2 properties, NMR spectrum      
  Ute Becker             : All parallelization in ORCA, NUMFREQ, NUMCALC 
  Giovanni Bistoni       : ED, misc. LED, open-shell LED, HFLD           
  Martin Brehm           : Molecular dynamics                            
  Dmytro Bykov           : pre 5.0 version of the SCF Hessian            
  Marcos Casanova-Páez   : Triplet and SCS-CIS(D). UHF-(DLPNO)-IP/EA/STEOM-CCSD. UHF-CVS-IP/STEOM-CCSD   
  Vijay G. Chilkuri      : MRCI spin determinant printing, contributions to CSF-ICE 
  Pauline Colinet        : FMM embedding                                 
  Dipayan Datta          : RHF DLPNO-CCSD density                        
  Achintya Kumar Dutta   : EOM-CC, STEOM-CC                              
  Nicolas Foglia         : Exact transition moments, OPA infrastructure, MCD improvements    
  Dmitry Ganyushin       : Spin-Orbit,Spin-Spin,Magnetic field MRCI      
  Miquel Garcia-Rates    : C-PCM and meta-GGA Hessian, CCSD/C-PCM, Gaussian charge scheme 
  Tiago L. C. Gouveia    : GS-ROHF, GS-ROCIS                             
  Yang Guo               : DLPNO-NEVPT2, F12-NEVPT2, CIM, IAO-localization        
  Andreas Hansen         : Spin unrestricted coupled pair/coupled cluster methods 
  Ingolf Harden          : AUTO-CI MPn and infrastructure                
  Benjamin Helmich-Paris : MC-RPA, TRAH-(SCF,CASSCF), AVAS, COSX integrals, SCF dyn. polar. 
  Lee Huntington         : MR-EOM, pCC                                   
  Robert Izsak           : Overlap fitted RIJCOSX, COSX-SCS-MP3, EOM     
  Riya Kayal             : Wick's Theorem for AUTO-CI, AUTO-CI UHF-CCSDT 
  Emily Kempfer          : AUTO-CI, RHF CISDT and CCSDT                  
  Christian Kollmar      : KDIIS, OOCD, Brueckner-CCSD(T), CCSD density, CASPT2, CASPT2-K, improved NEVPT2 
  Axel Koslowski         : Symmetry handling                             
  Simone Kossmann        : meta-GGA functionals, TD-DFT gradient, OOMP2, (MP2 Hessian; deprecated post 5.0) 
  Lucas Lang             : DCDCAS                                        
  Marvin Lechner         : AUTO-CI (C++ implementation), FIC-MRCC        
  Spencer Leger          : CASSCF response                               
  Dagmar Lenk            : GEPOL surface, SMD, ORCA-2-JSON               
  Dimitrios Liakos       : Extrapolation schemes; Compound Job, initial MDCI parallelization 
  Dimitrios Manganas     : Further ROCIS development; embedding schemes. LFT, Crystal Embedding 
  Dimitrios Pantazis     : SARC Basis sets                               
  Anastasios Papadopoulos: AUTO-CI, single reference methods and gradients 
  Taras Petrenko         : pre 6.0 DFT Hessian and TD-DFT gradient, (ASA, deprecated), ECA, 1-Electron XAS/XES, NRVS 
  Peter Pinski           : DLPNO-MP2, DLPNO-MP2 Gradient                 
  Christoph Reimann      : Effective Core Potentials                     
  Marius Retegan         : Local ZFS, SOC                                
  Christoph Riplinger    : Optimizer, TS searches, QM/MM, DLPNO-CCSD(T), (RO)-DLPNO pert. Triples 
  Michael Roemelt        : Original ROCIS implementation                 
  Masaaki Saitow         : Open-shell DLPNO-CCSD energy and density      
  Barbara Sandhoefer     : DKH picture change effects                    
  Kantharuban Sivalingam : CASSCF convergence/infrastructure, NEVPT2 and variants, FIC-MRCI 
  Bernardo de Souza      : ESD, SOC TD-DFT                               
  Georgi L. Stoychev     : AutoAux, RI-MP2 NMR, DLPNO-MP2 response, X2C  
  Van Anh Tran           : RI-MP2 g-tensors                              
  Willem Van den Heuvel  : Paramagnetic NMR                              
  Zikuan Wang            : NOTCH, Electric field optimization            
  Frank Wennmohs         : Technical directorship and infrastructure     
  Hang Xu                : AUTO-CI-Response properties                   
                                                                         
[FACCTs GmbH]                                                            
  Markus Bursch, Miquel Garcia-Rates, Christoph Riplinger, Bernardo de Souza, Georgi L. Stoychev 
                                                                 
  APM, Basis sets (HGBS, AHGBS, def-TZVP (Ac-Lr), def2-XVPD (La-Lu)), CI-OPT, improved COSX, DLPNO-Multilevel,           
  DOCKER, DRACO, updates on ESD, GOAT, IRC, LR-CPCM, MBIS, meta-GGA TD-DFT gradient, ML-optimized integration grids, 
  MM, NACMEs, nearIR, NEB, NEB-TS, NL-DFT gradient (VV10), 2- and 3-layer-ONIOM, interface openCOSMO-RS, QMMM,   
  Crystal-QMMM, SF, symmetry and pop. for TD-DFT, r2SCAN hybrids, SOLVATOR                                   
                                                                         
[Other institutions]                                                     
  V. Asgeirsson          : NEB                                           
  Christoph Bannwarth    : sTDA-DFT, sTD-DFT, PBEh-3c, B97-3c, D3        
  Sebastian Ehlert       : rSCAN, r2SCAN, r2SCAN-3c, D4, dhf basis sets  
  Marvin Friede          : D4 for Fr, Ra, Ac-Lr                          
  Lars Goerigk           : TD-DFT with DH, B97 family of functionals     
  Stefan Grimme          : VdW corrections, initial TS optimization, DFT functionals, gCP, sTDA/sTD-DF 
  Waldemar Hujo          : DFT-NL                                        
  H. Jonsson             : NEB                                           
  Holger Kruse           : gCP                                           
  Marcel Mueller         : wB97X-3c, vDZP basis set                      
  Hagen Neugebauer       : wr2SCAN                                       
  Tobias Risthaus        : range-separated hybrid DFT                    
  Lukas Wittmann         : regularized MP2, r2SCAN double-hybrids, wr2SCAN        
                                                                         
We gratefully acknowledge several colleagues who have allowed us to      
interface, adapt or use parts of their codes:                            
  Ed Valeev, F. Pavosevic, A. Kumar             : LibInt (2-el integral package), F12 methods 
  Garnet Chan, S. Sharma, J. Yang, R. Olivares  : DMRG                   
  Ulf Ekstrom                                   : XCFun DFT Library      
  Mihaly Kallay                                 : mrcc  (arbitrary order and MRCC methods)
  Frank Weinhold                                : gennbo (NPA and NBO analysis)           
  Simon Mueller                                 : openCOSMO-RS                            
  Christopher J. Cramer and Donald G. Truhlar   : smd solvation model                     
  S Lehtola, MJT Oliveira, MAL Marques          : LibXC Library                           
  Liviu Ungur et al                             : ANISO software                          


 Your calculation uses the libint2 library for the computation of 2-el integrals
 For citations please refer to: http://libint.valeyev.net

 Your ORCA version has been built with support for libXC version: 6.2.2
 For citations please refer to: https://libxc.gitlab.io

 This ORCA versions uses:
   CBLAS   interface :  Fast vector & matrix operations
   LAPACKE interface :  Fast linear algebra routines
   SCALAPACK package :  Parallel linear algebra routines
   Shared memory     :  Shared parallel matrices
   BLAS/LAPACK       :  OpenBLAS 0.3.27  USE64BITINT DYNAMIC_ARCH NO_AFFINITY Zen SINGLE_THREADED
        Core in use  :  Zen
   Copyright (c) 2011-2014, The OpenBLAS Project




***************************************
The coordinates will be read from file: xtb_opt.xyz
***************************************


Your calculation utilizes the geometrical counterpoise correction gCP
Please cite in your paper:
H.Kruse, S. Grimme J.Chem.Phys., 136, (2012), 154101 
   

Your calculation utilizes the atom-pairwise dispersion correction
based on EEQ partial charges (D4)


================================================================================

----- Orbital basis set information -----
Your calculation utilizes the basis: def2-mTZVPP
   Stefan Grimme, Andreas Hansen, Sebastian Ehlert, and Jan-Michael Mewes 
   J. Chem. Phys. 154, 064103 (2021). DOI: 10.1063/5.0040021

----- AuxJ basis set information -----
Your calculation utilizes the auxiliary basis: def2/J
   F. Weigend, Phys. Chem. Chem. Phys. 8, 1057 (2006).

================================================================================
                                        WARNINGS
                       Please study these warnings very carefully!
================================================================================

WARNING: Old DensityContainer found on disk!
         Will remove this file - 
         If you want to keep old densities, please start your calculation with a different basename. 



WARNING: SCAN, rSCAN, or r2SCAN functional requested.
  ===> : libXC variant has now been activated.



================================================================================
                                       INPUT FILE
================================================================================
NAME = xtb_opt.inp
|  1> ! r2scan-3c def2/J RI DEFGRID2 scfconv7 ENGRAD tightSCF miniprint
|  2> * xyzfile 0 1 xtb_opt.xyz
|  3> 
|  4>                          ****END OF INPUT****
================================================================================

                     *******************************
                     * Energy+Gradient Calculation *
                     *******************************

---------------------------------
CARTESIAN COORDINATES (ANGSTROEM)
---------------------------------
  C      2.851536   -0.501790    0.000842
  C      1.372966   -0.250804   -0.002082
  C      0.890664    1.053744   -0.002390
  C     -0.469060    1.314176    0.000044
  C     -1.357606    0.244214    0.002960
  C     -0.903317   -1.063664    0.003725
  C      0.467541   -1.298169    0.000918
  C     -1.860989   -2.217819   -0.002465
  C     -0.991383    2.719919   -0.000422
  H      3.299530   -0.108452    0.913022
  H      3.066995   -1.565657   -0.059004
  H      3.324292   -0.001902   -0.843614
  H      1.593429    1.875616   -0.003831
  H     -2.420798    0.441659    0.005072
  H      0.828145   -2.317658    0.001258
  H     -1.801229   -2.751405   -0.951113
  H     -1.615621   -2.922130    0.790890
  H     -2.883841   -1.876835    0.136486
  H     -1.620353    2.891314    0.872441
  H     -0.176332    3.439250    0.012363
  H     -1.598414    2.898524   -0.887443

----------------------------
CARTESIAN COORDINATES (A.U.)
----------------------------
  NO LB      ZA    FRAG     MASS         X           Y           Z
   0 C     6.0000    0    12.011    5.388621   -0.948247    0.001592
   1 C     6.0000    0    12.011    2.594530   -0.473951   -0.003934
   2 C     6.0000    0    12.011    1.683112    1.991287   -0.004516
   3 C     6.0000    0    12.011   -0.886394    2.483432    0.000082
   4 C     6.0000    0    12.011   -2.565503    0.461498    0.005594
   5 C     6.0000    0    12.011   -1.707022   -2.010034    0.007039
   6 C     6.0000    0    12.011    0.883525   -2.453185    0.001736
   7 C     6.0000    0    12.011   -3.516760   -4.191071   -0.004657
   8 C     6.0000    0    12.011   -1.873443    5.139901   -0.000798
   9 H     1.0000    0     1.008    6.235208   -0.204946    1.725361
  10 H     1.0000    0     1.008    5.795781   -2.958662   -0.111501
  11 H     1.0000    0     1.008    6.282002   -0.003595   -1.594199
  12 H     1.0000    0     1.008    3.011144    3.544401   -0.007240
  13 H     1.0000    0     1.008   -4.574645    0.834615    0.009584
  14 H     1.0000    0     1.008    1.564966   -4.379738    0.002378
  15 H     1.0000    0     1.008   -3.403829   -5.199403   -1.797343
  16 H     1.0000    0     1.008   -3.053080   -5.522026    1.494565
  17 H     1.0000    0     1.008   -5.449670   -3.546704    0.257922
  18 H     1.0000    0     1.008   -3.062024    5.463791    1.648675
  19 H     1.0000    0     1.008   -0.333219    6.499240    0.023363
  20 H     1.0000    0     1.008   -3.020564    5.477417   -1.677024

------------------------------------------------------------------------------
                   ___                                                        
                  /   \      - P O W E R E D   B Y -                         
                 /     \                                                     
                 |  |  |   _    _      __       _____    __    __             
                 |  |  |  | |  | |    /  \     |  _  \  |  |  /  |          
                  \  \/   | |  | |   /    \    | | | |  |  | /  /          
                 / \  \   | |__| |  /  /\  \   | |_| |  |  |/  /          
                |  |  |   |  __  | /  /__\  \  |    /   |      \           
                |  |  |   | |  | | |   __   |  |    \   |  |\   \          
                \     /   | |  | | |  |  |  |  | |\  \  |  | \   \       
                 \___/    |_|  |_| |__|  |__|  |_| \__\ |__|  \__/        
                                                                              
                      - O R C A' S   B I G   F R I E N D -                    
                                      &                                       
                       - I N T E G R A L  F E E D E R -                       
                                                                              
 v1 FN, 2020, v2 2021, v3 2022-2024                                           
------------------------------------------------------------------------------


----------------------
SHARK INTEGRAL PACKAGE
----------------------

Number of atoms                             ...     21
Number of basis functions                   ...    231
Number of shells                            ...    117
Maximum angular momentum                    ...      2
Integral batch strategy                     ... SHARK/LIBINT Hybrid
RI-J (if used) integral strategy            ... SPLIT-RIJ (Revised 2003 algorithm where possible)
Printlevel                                  ...      1
Contraction scheme used                     ... SEGMENTED contraction
Prescreening option                         ... SCHWARTZ
   Thresh                                   ... 3.000e-11
   Tcut                                     ... 1.000e-12
   Tpresel                                  ... 1.000e-12 
Coulomb Range Separation                    ... NOT USED
Exchange Range Separation                   ... NOT USED
Multipole approximations                    ... NOT USED
Finite Nucleus Model                        ... NOT USED
CABS basis                                  ... NOT available
Auxiliary Coulomb fitting basis             ... AVAILABLE
   # of basis functions in Aux-J            ...    573
   # of shells in Aux-J                     ...    195
   Maximum angular momentum in Aux-J        ...      4
Auxiliary J/K fitting basis                 ... NOT available
Auxiliary Correlation fitting basis         ... NOT available
Auxiliary 'external' fitting basis          ... NOT available

Checking pre-screening integrals            ... done (  0.0 sec) Dimension = 117
Check shell pair data                       ... done (  0.0 sec)
Shell pair information
Shell pair cut-off parameter TPreSel        ...   1.0e-12
Total number of shell pairs                 ...      6903
Shell pairs after pre-screening             ...      6094
Total number of primitive shell pairs       ...     24987
Primitive shell pairs kept                  ...     15640
          la=0 lb=0:   2106 shell pairs
          la=1 lb=0:   2380 shell pairs
          la=1 lb=1:    701 shell pairs
          la=2 lb=0:    552 shell pairs
          la=2 lb=1:    313 shell pairs
          la=2 lb=2:     42 shell pairs

Calculating one electron integrals          ... done (  0.0 sec)
Calculating RI/J V-Matrix + Cholesky decomp.... done (  0.0 sec)
Calculating Nuclear repulsion               ... done (  0.0 sec) ENN=    422.005916560318 Eh

Diagonalization of the overlap matrix:
Smallest eigenvalue                        ... 2.418e-05
Time for diagonalization                   ...    0.003 sec
Threshold for overlap eigenvalues          ... 1.000e-07
Number of eigenvalues below threshold      ... 0
Time for construction of square roots      ...    0.001 sec
Total time needed                          ...    0.006 sec

-------------------
DFT GRID GENERATION
-------------------

General Integration Accuracy     IntAcc      ... 4.388
Radial Grid Type                 RadialGrid  ... OptM3 with GC (2021)
Angular Grid (max. ang.)         AngularGrid ... 4 (Lebedev-302)
Angular grid pruning method      GridPruning ... 4 (adaptive)
Weight generation scheme         WeightScheme... mBecke (2022)
Basis function cutoff            BFCut       ... 1.0000e-11
Integration weight cutoff        WCut        ... 1.0000e-14
Partially contracted basis set               ... off
Rotationally invariant grid construction     ... off
Angular grids for H and He will be reduced by one unit

Total number of grid points                  ...    92468
Total number of batches                      ...     1454
Average number of points per batch           ...       63
Average number of grid points per atom       ...     4403
Initializing property integral containers    ... done (  0.0 sec)

SHARK setup successfully completed in   0.6 seconds

Maximum memory used throughout the entire STARTUP-calculation: 41.5 MB
Occupation numbers will be reassigned to an Aufbau configuration
             **** ENERGY FILE WAS UPDATED (xtb_opt.en.tmp) ****
Finished Guess after   0.0 sec
Maximum memory used throughout the entire GUESS-calculation: 17.2 MB
----------------------------------------D-I-I-S--------------------------------------------
Iteration    Energy (Eh)           Delta-E    RMSDP     MaxDP     DIISErr   Damp  Time(sec)
-------------------------------------------------------------------------------------------
               ***  Starting incremental Fock matrix formation  ***
                              *** Initializing SOSCF ***
---------------------------------------S-O-S-C-F--------------------------------------
Iteration    Energy (Eh)           Delta-E    RMSDP     MaxDP     MaxGrad    Time(sec)
--------------------------------------------------------------------------------------
    1    -350.0873624283189542     0.00e+00  8.51e-06  1.33e-04  3.97e-05     1.5
               *** Restarting incremental Fock matrix formation ***
    2    -350.0873625100958293    -8.18e-08  9.35e-06  1.48e-04  6.01e-05     1.5
    3    -350.0873623148615366     1.95e-07  5.75e-06  1.03e-04  9.57e-05     1.1
    4    -350.0873626586285923    -3.44e-07  9.20e-07  1.38e-05  5.25e-06     1.1
                  *** Gradient check signals convergence ***

               *****************************************************
               *                     SUCCESS                       *
               *           SCF CONVERGED AFTER   4 CYCLES          *
               *****************************************************

             **** ENERGY FILE WAS UPDATED (xtb_opt.en.tmp) ****

----------------
TOTAL SCF ENERGY
----------------

Total Energy       :       -350.08736265862859 Eh           -9526.36145 eV

Components:
Nuclear Repulsion  :        422.00591656031821 Eh           11483.36479 eV
Electronic Energy  :       -772.09327921894680 Eh          -21009.72624 eV
One Electron Energy:      -1307.01851052651682 Eh          -35565.78180 eV
Two Electron Energy:        534.92523130757002 Eh           14556.05556 eV

Virial components:
Potential Energy   :       -698.71389875062255 Eh          -19012.97179 eV
Kinetic Energy     :        348.62653609199396 Eh            9486.61034 eV
Virial Ratio       :          2.00419023343148

DFT components:
N(Alpha)           :       32.999907857333 electrons
N(Beta)            :       32.999907857333 electrons
N(Total)           :       65.999815714666 electrons
E(X)               :      -51.163437990576 Eh       
E(C)               :       -2.085140600056 Eh       
E(XC)              :      -53.248578590632 Eh       

---------------
SCF CONVERGENCE
---------------

  Last Energy change         ...    3.4377e-07  Tolerance :   1.0000e-07
  Last MAX-Density change    ...    1.3840e-05  Tolerance :   1.0000e-07
  Last RMS-Density change    ...    9.2044e-07  Tolerance :   5.0000e-09
  Last DIIS Error            ...    1.6095e-04  Tolerance :   1.0000e-07
  Last Orbital Gradient      ...    5.2476e-06  Tolerance :   1.0000e-04
  Last Orbital Rotation      ...    2.4696e-05  Tolerance :   1.0000e-04


----------------
ORBITAL ENERGIES
----------------

  NO   OCC          E(Eh)            E(eV) 
   0   2.0000     -10.035847      -273.0893 
   1   2.0000     -10.035842      -273.0891 
   2   2.0000     -10.035829      -273.0888 
   3   2.0000     -10.023422      -272.7512 
   4   2.0000     -10.023418      -272.7511 
   5   2.0000     -10.023416      -272.7510 
   6   2.0000     -10.018442      -272.6157 
   7   2.0000     -10.018427      -272.6153 
   8   2.0000     -10.018388      -272.6142 
   9   2.0000      -0.826604       -22.4930 
  10   2.0000      -0.746793       -20.3213 
  11   2.0000      -0.746783       -20.3210 
  12   2.0000      -0.666727       -18.1426 
  13   2.0000      -0.644309       -17.5326 
  14   2.0000      -0.644256       -17.5311 
  15   2.0000      -0.537152       -14.6166 
  16   2.0000      -0.537146       -14.6165 
  17   2.0000      -0.462798       -12.5934 
  18   2.0000      -0.444628       -12.0989 
  19   2.0000      -0.397994       -10.8300 
  20   2.0000      -0.396149       -10.7798 
  21   2.0000      -0.382366       -10.4047 
  22   2.0000      -0.382329       -10.4037 
  23   2.0000      -0.369974       -10.0675 
  24   2.0000      -0.369916       -10.0659 
  25   2.0000      -0.360945        -9.8218 
  26   2.0000      -0.360861        -9.8195 
  27   2.0000      -0.330020        -8.9803 
  28   2.0000      -0.305705        -8.3187 
  29   2.0000      -0.298095        -8.1116 
  30   2.0000      -0.298082        -8.1112 
  31   2.0000      -0.214652        -5.8410 
  32   2.0000      -0.214507        -5.8370 
  33   0.0000      -0.020802        -0.5661 
  34   0.0000      -0.020456        -0.5566 
  35   0.0000       0.072412         1.9704 
  36   0.0000       0.106906         2.9091 
  37   0.0000       0.107578         2.9273 
  38   0.0000       0.108090         2.9413 
  39   0.0000       0.111890         3.0447 
  40   0.0000       0.128785         3.5044 
  41   0.0000       0.128900         3.5075 
  42   0.0000       0.149661         4.0725 
  43   0.0000       0.157403         4.2832 
*Only the first 10 virtual orbitals were printed.
Total SCF time: 0 days 0 hours 0 min 5 sec 
Finished LeanSCF after   5.2 sec

Maximum memory used throughout the entire LEANSCF-calculation: 26.9 MB


-------------------------------------------------------------------------------
                          DFT DISPERSION CORRECTION                            
                                                                               
                                DFTD4 V3.4.0                                   
-------------------------------------------------------------------------------
-------------------------   ----------------
Dispersion correction           -0.006775633
-------------------------   ----------------

------------------   -----------------
gCP correction             0.007603391
------------------   -----------------

-------------------------   --------------------
FINAL SINGLE POINT ENERGY      -350.086534900566
-------------------------   --------------------

------------------------------------------------------------------------------
                         ORCA SCF GRADIENT CALCULATION
------------------------------------------------------------------------------

Nuc. rep. gradient        (SHARK) ... done (  0.0 sec)
HCore & Overlap gradient  (SHARK) ... done (  0.2 sec)
Split-RIJ-J gradient      (SHARK) ... done (  1.2 sec)
XC gradient                       ... done (  4.7 sec)
Dispersion correction             ... done (  0.0 sec)

-------------------
DISPERSION GRADIENT
-------------------

   1   C   :    0.000117403   -0.000020032    0.000000114
   2   C   :    0.000090679   -0.000016027   -0.000000030
   3   C   :    0.000051215    0.000059426   -0.000000138
   4   C   :   -0.000031446    0.000086533    0.000000033
   5   C   :   -0.000077049    0.000014589    0.000000269
   6   C   :   -0.000059196   -0.000070525    0.000000146
   7   C   :    0.000025922   -0.000074055    0.000000106
   8   C   :   -0.000076118   -0.000091623   -0.000000324
   9   C   :   -0.000041382    0.000111709   -0.000000054
  10   H   :    0.000044263   -0.000004302    0.000009668
  11   H   :    0.000042329   -0.000014583   -0.000000643
  12   H   :    0.000044305   -0.000003551   -0.000008925
  13   H   :    0.000028173    0.000031915   -0.000000131
  14   H   :   -0.000041690    0.000008403    0.000000231
  15   H   :    0.000013605   -0.000040360    0.000000082
  16   H   :   -0.000026317   -0.000035862   -0.000010106
  17   H   :   -0.000024875   -0.000036852    0.000008340
  18   H   :   -0.000033771   -0.000029396    0.000001425
  19   H   :   -0.000018823    0.000040288    0.000009216
  20   H   :   -0.000008535    0.000043959    0.000000125
  21   H   :   -0.000018692    0.000040347   -0.000009406

Difference to translation invariance:
           :    0.0000000000   -0.0000000000    0.0000000000

Difference to rotation invariance:
           :   -0.0000000000   -0.0000000000   -0.0000000000

Norm of the Dispersion gradient    ...    0.0003321039
RMS gradient                       ...    0.0000418412
MAX gradient                       ...    0.0001174034
gCP correction                   ... done

------------------
CARTESIAN GRADIENT
------------------

   1   C   :    0.002892823   -0.000357840   -0.000157407
   2   C   :   -0.004392474    0.002093415    0.000318539
   3   C   :   -0.000135374   -0.001300478    0.000035637
   4   C   :    0.000381756   -0.004877196    0.000017983
   5   C   :    0.001232607    0.000658073   -0.000061662
   6   C   :    0.004173670    0.002582593   -0.000349111
   7   C   :   -0.001226357    0.000858901   -0.000008130
   8   C   :   -0.001743097   -0.002212725    0.000361729
   9   C   :   -0.001180573    0.002488399    0.000051829
  10   H   :   -0.002930321   -0.000847688   -0.002659714
  11   H   :   -0.001883236    0.003184125    0.000185977
  12   H   :   -0.002852775   -0.001170146    0.002446145
  13   H   :   -0.002617131   -0.003654735   -0.000005817
  14   H   :    0.004474622   -0.000438919   -0.000082028
  15   H   :   -0.001825605    0.004074754   -0.000059068
  16   H   :    0.000860057    0.002783687    0.002718738
  17   H   :    0.000209073    0.003166175   -0.002340445
  18   H   :    0.003700851    0.000042701   -0.000398503
  19   H   :    0.002359619   -0.001943869   -0.002535671
  20   H   :   -0.001790730   -0.003167215   -0.000031240
  21   H   :    0.002292593   -0.001962014    0.002552219

Difference to translation invariance:
           :    0.0000000000    0.0000000000   -0.0000000000

Difference to rotation invariance:
           :   -0.0000226063   -0.0001046443    0.0000376586

Norm of the Cartesian gradient     ...    0.0172592544
RMS gradient                       ...    0.0021744617
MAX gradient                       ...    0.0048771956

-------
TIMINGS
-------

Total SCF gradient time     ....        6.089 sec

Densities                   ....       0.000 sec  (  0.0%)
One electron gradient       ....       0.216 sec  (  3.5%)
RI-J Coulomb gradient       ....       1.185 sec  ( 19.5%)
XC gradient                 ....       4.670 sec  ( 76.7%)

Maximum memory used throughout the entire SCFGRAD-calculation: 37.4 MB

------------------------------------------------------------------------------
                              ORCA PROPERTY CALCULATIONS
------------------------------------------------------------------------------

GBWName                                 ... xtb_opt.gbw
Number of atoms                         ...     21
Number of basis functions               ...    231
Max core memory                         ...   1024 MB

Electric properties:
Dipole moment                           ... YES
Quadrupole moment                       ...  NO
Static polarizability (Dipole/Dipole)   ...  NO
Static polarizability (Dipole/Quad.)    ...  NO
Static polarizability (Quad./Quad.)     ...  NO
Static polarizability (Velocity)        ...  NO

Atomic electric properties:
Dipole moment                           ...  NO
Quadrupole moment                       ...  NO
Static polarizability                   ...  NO

Choice of electric origin               ... Center of mass
Position of electric origin             ...    -0.000000     0.000000    -0.000000

General magnetic properties:
Magnetizability                         ...  NO

EPR properties:
g-Tensor (aka g-matrix)                 ...  NO
Zero-Field splitting spin-orbit         ...  NO
Zero-field splitting spin-spin          ...  NO
Hyperfine couplings                     ...  NO (   0 nuclei)
Quadrupole couplings                    ...  NO (   0 nuclei)
Contact density                         ...  NO (   0 nuclei)

NMR properties:
Chemical shifts                         ...  NO (   0 nuclei)
Spin-rotation constants                 ...  NO (   0 nuclei)
Spin-spin couplings                     ...  NO (   0 nuclei,    0 pairs)

Choice of magnetic origin               ... GIAO
Position of magnetic origin             ...     0.000000     0.000000     0.000000

Properties with geometric perturbations:
SCF Hessian                             ...  NO
IR spectrum                             ...  NO
VCD spectrum                            ...  NO
X-ray spectroscopy properties:
SCF XES/XAS/RIXS spectra                ...  NO


-------------
DIPOLE MOMENT
-------------

Method             : SCF
Type of density    : Electron Density
Multiplicity       :   1
Irrep              :   0
Energy             :  -350.0873626586285923 Eh
Relativity type    : 
Basis              : AO
                                X                 Y                 Z
Electronic contribution:      0.002434277      -0.001332977       0.007741300
Nuclear contribution   :     -0.003936846       0.002179256      -0.012638999
                        -----------------------------------------
Total Dipole Moment    :     -0.001502568       0.000846278      -0.004897699
                        -----------------------------------------
Magnitude (a.u.)       :      0.005192432
Magnitude (Debye)      :      0.013198114



--------------------
Rotational spectrum 
--------------------
 
Rotational constants in cm-1:             0.059093             0.059063             0.030032 
Rotational constants in MHz :          1771.560231          1770.669170           900.336768 

Dipole components along the rotational axes: 
x,y,z [a.u.] :    -0.001503    -0.000846    -0.004898 
x,y,z [Debye]:    -0.003819    -0.002151    -0.012449 

 

Dipole moment calculation done in   0.0 sec 

Maximum memory used throughout the entire PROP-calculation: 16.0 MB

--------------------------------
SUGGESTED CITATIONS FOR THIS RUN
--------------------------------

Below you find a list of papers that are relevant to this ORCA run
We neither can nor want to force you to cite these papers, but we appreciate if you do
You receive ORCA, which is the product of decades of hard work by many enthusiastic individuals, for free
The only thing we kindly ask in return is that you cite our papers,
We deeply appreciate it, if you show your appreciation for ORCA by not just citing the generic ORCA reference.

Please note that relegating all ORCA citations to the supporting information does *not* help us.
SI sections are not indexed - citations you put there will not count into any citation statistics
But we need these citations in order to attract the funding resources that allow us to do what we are doing

Therefore, if you are a happy ORCA user, please consider citing a few of the papers listed below in the main body of your paper

In addition to the list printed below, the program has created the file xtb_opt.bibtex that contains the list in bibtex format
You can import this file easily into all common literature databanks and citation aid programs


List of essential papers. We consider these as the minimum necessary citations

  1. Neese,F.
     Software update: the ORCA program system, version 5.0
     WIRES Comput. Molec. Sci., 2022 12(1)e1606
     doi.org/10.1002/wcms.1606
  2. Grimme,S.; Hansen,A.; Ehlert,S.; Mewes,J.
     r2SCAN-3c: A 'Swiss army knife' composite electronic-structure method
     J. Chem. Phys., 2021 154 064103
     doi.org/10.1063/5.0040021

List of papers to cite with high priority. The work reported in these papers was absolutely
necessary for this run to complete.
Our perspective: the developers of density functionals and basis sets usually get cited in chemistry papers
Good! But without the algorithms to do something with them, the functionals or basis sets would not do anything.
Hence, in our opinion, the algorithm design and method developments papers are equally worthy of getting cited

  1. Neese,F.
     An improvement of the resolution of the identity approximation for the formation of the Coulomb matrix
     J. Comp. Chem., 2003 24(14)1740-1747
     doi.org/10.1002/jcc.10318
  2. Neese,F.
     The SHARK Integral Generation and Digestion System
     J. Comp. Chem., 2022  1-16
     doi.org/10.1002/jcc.26942
  3. Lehtola,S.; Steigemann,C.; Oliveira,M.; Marques,M.
     Recent developments in Libxc - A comprehensive library of functionals for density functional theory
     Software X, 2018 7 
     doi.org/10.1016/j.softx.2017.11.002
  4. Caldeweyher,E.; Bannwarth,C.; Grimme,S.
     Extension of the D3 dispersion coefficient model
     J. Chem. Phys., 2017 147 034112
     doi.org/10.1063/1.4993215
  5. Caldeweyher,E.; Ehlert,S.; Hansen,A.; Neugebauer,H.; Spicher,S.; Bannwarth,C.; Grimme,S.
     A generally applicable atomic-charge dependent London dispersion correction
     J. Chem. Phys., 2019 150 154122
     doi.org/10.1063/1.5090222
  6. Caldeweyher,E.; Mewes,J.; Ehlert,S.; Grimme,S.
     Extension and evaluation of the D4 London-dispersion model for periodic systems
     Phys. Chem. Chem. Phys., 2020 22(16)8499-8512
     doi.org/10.1039/D0CP00502A
  7. Wittmann,L.; Gordiy,I.; Friede,M.; Helmich-Paris,B.; Grimme,S.; Hansen,A.; Bursch,M.
     Extension of the D3 and D4 London Dispersion Corrections to the full Actinides Series
     Phys. Chem. Chem. Phys., 2024 26(32)21379-21394
     doi.org/https://doi.org/10.1039/D4CP01514B 

List of suggested additional citations. These are papers that are important in the 'surrounding' of 
of this run, or papers that preceded the highly important papers. If you like your results we are grateful for a citation.

  1. Neese,F.
     The ORCA program system
     WIRES Comput. Molec. Sci., 2012 2(1)73-78
     doi.org/10.1002/wcms.81
  2. Neese,F.
     Software update: the ORCA program system, version 4.0
     WIRES Comput. Molec. Sci., 2018 8(1)1-6
     doi.org/10.1002/wcms.1327
  3. Neese,F.; Wennmohs,F.; Becker,U.; Riplinger,C.
     The ORCA quantum chemistry program package
     J. Chem. Phys., 2020 152 Art. No. L224108
     doi.org/10.1063/5.0004608

List of optional additional citations

  1. Neese,F.
     Approximate second-order SCF convergence for spin unrestricted wavefunctions
     Chem. Phys. Lett., 2000 325(1-3)93-98
     doi.org/10.1016/s0009-2614(00)00662-x

Timings for individual modules:

Sum of individual times          ...       12.105 sec (=   0.202 min)
Startup calculation              ...        0.635 sec (=   0.011 min)   5.2 %
SCF iterations                   ...        5.297 sec (=   0.088 min)  43.8 %
Property calculations            ...        0.039 sec (=   0.001 min)   0.3 %
SCF Gradient evaluation          ...        6.133 sec (=   0.102 min)  50.7 %
                             ****ORCA TERMINATED NORMALLY****
TOTAL RUN TIME: 0 days 0 hours 0 minutes 12 seconds 169 msec
  ------------------------------------------------------------------------
          * successful ORCA run, taking over control again...

         :::::::::::::::::::::::::::::::::::::::::::::::::::::
         ::                  ORCA SUMMARY                   ::
         :::::::::::::::::::::::::::::::::::::::::::::::::::::
         :: total energy            -350.086534900566 Eh    ::
         :: gradient norm              0.017259254446 Eh/a0 ::
         :: HOMO-LUMO gap              0.000000000000 eV    ::
         :::::::::::::::::::::::::::::::::::::::::::::::::::::

      ----------------------------------------------------------- 
     |                       L-ANC optimizer                     |
      ----------------------------------------------------------- 
          low memory version by Sebastian Ehlert

          ...................................................
          :                      SETUP                      :
          :.................................................:
          :   energy convergence        0.5000000E-05 Eh    :
          :   grad. convergence         0.1000000E-02 Eh/a0 :
          :   optimization log               true           :
          :   writing optlog all                1     steps :
          :   Hessian reset                    20     steps :
          :   maximium step len.        1.0000000     a0    :
          :   LBFGS images                     20           :
          ...................................................
 * calculating model hessian...
Using Lindh-Hessian (1995)
 Shifting diagonal of input Hessian by    1.0000000000000000E-002
 Lowest  eigenvalues of input Hessian
    0.000000    0.000000    0.000000    0.000000    0.000000    0.000000
    0.014512    0.015219    0.015224    0.019507    0.020763    0.020771
    0.021726    0.021737    0.035165    0.041217    0.046137    0.046165
 Highest eigenvalues
    1.451527    1.595815    1.596055    1.889212    1.997665    1.997877


........................................................................
.............................. CYCLE    1 ..............................
........................................................................
                         * ORCA takes the control...
  ------------------------------------------------------------------------

                                 *****************
                                 * O   R   C   A *
                                 *****************

                                            #,                                       
                                            ###                                      
                                            ####                                     
                                            #####                                    
                                            ######                                   
                                           ########,                                 
                                     ,,################,,,,,                         
                               ,,#################################,,                 
                          ,,##########################################,,             
                       ,#########################################, ''#####,          
                    ,#############################################,,   '####,        
                  ,##################################################,,,,####,       
                ,###########''''           ''''###############################       
              ,#####''   ,,,,##########,,,,          '''####'''          '####       
            ,##' ,,,,###########################,,,                        '##       
           ' ,,###''''                  '''############,,,                           
         ,,##''                                '''############,,,,        ,,,,,,###''
      ,#''                                            '''#######################'''  
     '                                                          ''''####''''         
             ,#######,   #######,   ,#######,      ##                                
            ,#'     '#,  ##    ##  ,#'     '#,    #''#        ,####,   ,####,        
            ##       ##  ##   ,#'  ##            #'  '#       #'       #'  '#        
            ##       ##  #######   ##           ,######,      #####,   #    #        
            '#,     ,#'  ##    ##  '#,     ,#' ,#      #,     #,   #   #,  ,#        
             '#######'   ##     ##  '#######'  #'      '#     '####' # '####'        



                #########################################################
                #                        -***-                          #
                #          Department of theory and spectroscopy        #
                #                                                       #
                #                      Frank Neese                      #
                #                                                       #
                #     Directorship, Architecture, Infrastructure        #
                #                    SHARK, DRIVERS                     #
                #        Core code/Algorithms in most modules           #
                #                                                       #
                #        Max Planck Institute fuer Kohlenforschung      #
                #                Kaiser Wilhelm Platz 1                 #
                #                 D-45470 Muelheim/Ruhr                 #
                #                      Germany                          #
                #                                                       #
                #                  All rights reserved                  #
                #                        -***-                          #
                #########################################################


                         Program Version 6.0.1  -  RELEASE   -


 With contributions from (in alphabetic order):
[Max-Planck-Institut fuer Kohlenforschung]                               
  Daniel Aravena         : Magnetic Suceptibility                        
  Michael Atanasov       : Ab Initio Ligand Field Theory (pilot matlab implementation)
  Alexander A. Auer      : GIAO ZORA, VPT2 properties, NMR spectrum      
  Ute Becker             : All parallelization in ORCA, NUMFREQ, NUMCALC 
  Giovanni Bistoni       : ED, misc. LED, open-shell LED, HFLD           
  Martin Brehm           : Molecular dynamics                            
  Dmytro Bykov           : pre 5.0 version of the SCF Hessian            
  Marcos Casanova-Páez   : Triplet and SCS-CIS(D). UHF-(DLPNO)-IP/EA/STEOM-CCSD. UHF-CVS-IP/STEOM-CCSD   
  Vijay G. Chilkuri      : MRCI spin determinant printing, contributions to CSF-ICE 
  Pauline Colinet        : FMM embedding                                 
  Dipayan Datta          : RHF DLPNO-CCSD density                        
  Achintya Kumar Dutta   : EOM-CC, STEOM-CC                              
  Nicolas Foglia         : Exact transition moments, OPA infrastructure, MCD improvements    
  Dmitry Ganyushin       : Spin-Orbit,Spin-Spin,Magnetic field MRCI      
  Miquel Garcia-Rates    : C-PCM and meta-GGA Hessian, CCSD/C-PCM, Gaussian charge scheme 
  Tiago L. C. Gouveia    : GS-ROHF, GS-ROCIS                             
  Yang Guo               : DLPNO-NEVPT2, F12-NEVPT2, CIM, IAO-localization        
  Andreas Hansen         : Spin unrestricted coupled pair/coupled cluster methods 
  Ingolf Harden          : AUTO-CI MPn and infrastructure                
  Benjamin Helmich-Paris : MC-RPA, TRAH-(SCF,CASSCF), AVAS, COSX integrals, SCF dyn. polar. 
  Lee Huntington         : MR-EOM, pCC                                   
  Robert Izsak           : Overlap fitted RIJCOSX, COSX-SCS-MP3, EOM     
  Riya Kayal             : Wick's Theorem for AUTO-CI, AUTO-CI UHF-CCSDT 
  Emily Kempfer          : AUTO-CI, RHF CISDT and CCSDT                  
  Christian Kollmar      : KDIIS, OOCD, Brueckner-CCSD(T), CCSD density, CASPT2, CASPT2-K, improved NEVPT2 
  Axel Koslowski         : Symmetry handling                             
  Simone Kossmann        : meta-GGA functionals, TD-DFT gradient, OOMP2, (MP2 Hessian; deprecated post 5.0) 
  Lucas Lang             : DCDCAS                                        
  Marvin Lechner         : AUTO-CI (C++ implementation), FIC-MRCC        
  Spencer Leger          : CASSCF response                               
  Dagmar Lenk            : GEPOL surface, SMD, ORCA-2-JSON               
  Dimitrios Liakos       : Extrapolation schemes; Compound Job, initial MDCI parallelization 
  Dimitrios Manganas     : Further ROCIS development; embedding schemes. LFT, Crystal Embedding 
  Dimitrios Pantazis     : SARC Basis sets                               
  Anastasios Papadopoulos: AUTO-CI, single reference methods and gradients 
  Taras Petrenko         : pre 6.0 DFT Hessian and TD-DFT gradient, (ASA, deprecated), ECA, 1-Electron XAS/XES, NRVS 
  Peter Pinski           : DLPNO-MP2, DLPNO-MP2 Gradient                 
  Christoph Reimann      : Effective Core Potentials                     
  Marius Retegan         : Local ZFS, SOC                                
  Christoph Riplinger    : Optimizer, TS searches, QM/MM, DLPNO-CCSD(T), (RO)-DLPNO pert. Triples 
  Michael Roemelt        : Original ROCIS implementation                 
  Masaaki Saitow         : Open-shell DLPNO-CCSD energy and density      
  Barbara Sandhoefer     : DKH picture change effects                    
  Kantharuban Sivalingam : CASSCF convergence/infrastructure, NEVPT2 and variants, FIC-MRCI 
  Bernardo de Souza      : ESD, SOC TD-DFT                               
  Georgi L. Stoychev     : AutoAux, RI-MP2 NMR, DLPNO-MP2 response, X2C  
  Van Anh Tran           : RI-MP2 g-tensors                              
  Willem Van den Heuvel  : Paramagnetic NMR                              
  Zikuan Wang            : NOTCH, Electric field optimization            
  Frank Wennmohs         : Technical directorship and infrastructure     
  Hang Xu                : AUTO-CI-Response properties                   
                                                                         
[FACCTs GmbH]                                                            
  Markus Bursch, Miquel Garcia-Rates, Christoph Riplinger, Bernardo de Souza, Georgi L. Stoychev 
                                                                 
  APM, Basis sets (HGBS, AHGBS, def-TZVP (Ac-Lr), def2-XVPD (La-Lu)), CI-OPT, improved COSX, DLPNO-Multilevel,           
  DOCKER, DRACO, updates on ESD, GOAT, IRC, LR-CPCM, MBIS, meta-GGA TD-DFT gradient, ML-optimized integration grids, 
  MM, NACMEs, nearIR, NEB, NEB-TS, NL-DFT gradient (VV10), 2- and 3-layer-ONIOM, interface openCOSMO-RS, QMMM,   
  Crystal-QMMM, SF, symmetry and pop. for TD-DFT, r2SCAN hybrids, SOLVATOR                                   
                                                                         
[Other institutions]                                                     
  V. Asgeirsson          : NEB                                           
  Christoph Bannwarth    : sTDA-DFT, sTD-DFT, PBEh-3c, B97-3c, D3        
  Sebastian Ehlert       : rSCAN, r2SCAN, r2SCAN-3c, D4, dhf basis sets  
  Marvin Friede          : D4 for Fr, Ra, Ac-Lr                          
  Lars Goerigk           : TD-DFT with DH, B97 family of functionals     
  Stefan Grimme          : VdW corrections, initial TS optimization, DFT functionals, gCP, sTDA/sTD-DF 
  Waldemar Hujo          : DFT-NL                                        
  H. Jonsson             : NEB                                           
  Holger Kruse           : gCP                                           
  Marcel Mueller         : wB97X-3c, vDZP basis set                      
  Hagen Neugebauer       : wr2SCAN                                       
  Tobias Risthaus        : range-separated hybrid DFT                    
  Lukas Wittmann         : regularized MP2, r2SCAN double-hybrids, wr2SCAN        
                                                                         
We gratefully acknowledge several colleagues who have allowed us to      
interface, adapt or use parts of their codes:                            
  Ed Valeev, F. Pavosevic, A. Kumar             : LibInt (2-el integral package), F12 methods 
  Garnet Chan, S. Sharma, J. Yang, R. Olivares  : DMRG                   
  Ulf Ekstrom                                   : XCFun DFT Library      
  Mihaly Kallay                                 : mrcc  (arbitrary order and MRCC methods)
  Frank Weinhold                                : gennbo (NPA and NBO analysis)           
  Simon Mueller                                 : openCOSMO-RS                            
  Christopher J. Cramer and Donald G. Truhlar   : smd solvation model                     
  S Lehtola, MJT Oliveira, MAL Marques          : LibXC Library                           
  Liviu Ungur et al                             : ANISO software                          


 Your calculation uses the libint2 library for the computation of 2-el integrals
 For citations please refer to: http://libint.valeyev.net

 Your ORCA version has been built with support for libXC version: 6.2.2
 For citations please refer to: https://libxc.gitlab.io

 This ORCA versions uses:
   CBLAS   interface :  Fast vector & matrix operations
   LAPACKE interface :  Fast linear algebra routines
   SCALAPACK package :  Parallel linear algebra routines
   Shared memory     :  Shared parallel matrices
   BLAS/LAPACK       :  OpenBLAS 0.3.27  USE64BITINT DYNAMIC_ARCH NO_AFFINITY Zen SINGLE_THREADED
        Core in use  :  Zen
   Copyright (c) 2011-2014, The OpenBLAS Project




***************************************
The coordinates will be read from file: xtb_opt.xyz
***************************************


Your calculation utilizes the geometrical counterpoise correction gCP
Please cite in your paper:
H.Kruse, S. Grimme J.Chem.Phys., 136, (2012), 154101 
   

Your calculation utilizes the atom-pairwise dispersion correction
based on EEQ partial charges (D4)


================================================================================

----- Orbital basis set information -----
Your calculation utilizes the basis: def2-mTZVPP
   Stefan Grimme, Andreas Hansen, Sebastian Ehlert, and Jan-Michael Mewes 
   J. Chem. Phys. 154, 064103 (2021). DOI: 10.1063/5.0040021

----- AuxJ basis set information -----
Your calculation utilizes the auxiliary basis: def2/J
   F. Weigend, Phys. Chem. Chem. Phys. 8, 1057 (2006).

================================================================================
                                        WARNINGS
                       Please study these warnings very carefully!
================================================================================

WARNING: Old DensityContainer found on disk!
         Will remove this file - 
         If you want to keep old densities, please start your calculation with a different basename. 



WARNING: SCAN, rSCAN, or r2SCAN functional requested.
  ===> : libXC variant has now been activated.



================================================================================
                                       INPUT FILE
================================================================================
NAME = xtb_opt.inp
|  1> ! r2scan-3c def2/J RI DEFGRID2 scfconv7 ENGRAD tightSCF miniprint
|  2> * xyzfile 0 1 xtb_opt.xyz
|  3> 
|  4>                          ****END OF INPUT****
================================================================================

                     *******************************
                     * Energy+Gradient Calculation *
                     *******************************

---------------------------------
CARTESIAN COORDINATES (ANGSTROEM)
---------------------------------
  C      2.861278   -0.503661    0.001225
  C      1.379085   -0.251870   -0.003060
  C      0.892947    1.057724   -0.003292
  C     -0.471359    1.320209    0.000089
  C     -1.362452    0.244413    0.004300
  C     -0.907560   -1.068329    0.004899
  C      0.469667   -1.302187    0.001235
  C     -1.867321   -2.225578   -0.003566
  C     -0.994667    2.729588   -0.000648
  H      3.318271   -0.111531    0.914716
  H      3.082339   -1.570556   -0.058834
  H      3.342698   -0.004927   -0.844611
  H      1.597596    1.884615   -0.004600
  H     -2.430931    0.440943    0.007356
  H      0.833570   -2.325817    0.002429
  H     -1.812615   -2.765989   -0.953609
  H     -1.626652   -2.936687    0.791180
  H     -2.895765   -1.888394    0.135780
  H     -1.626773    2.909123    0.873760
  H     -0.179725    3.455112    0.011712
  H     -1.605473    2.915926   -0.888803

----------------------------
CARTESIAN COORDINATES (A.U.)
----------------------------
  NO LB      ZA    FRAG     MASS         X           Y           Z
   0 C     6.0000    0    12.011    5.407032   -0.951780    0.002315
   1 C     6.0000    0    12.011    2.606093   -0.475965   -0.005782
   2 C     6.0000    0    12.011    1.687425    1.998809   -0.006221
   3 C     6.0000    0    12.011   -0.890740    2.494833    0.000169
   4 C     6.0000    0    12.011   -2.574661    0.461874    0.008126
   5 C     6.0000    0    12.011   -1.715040   -2.018849    0.009258
   6 C     6.0000    0    12.011    0.887541   -2.460776    0.002333
   7 C     6.0000    0    12.011   -3.528726   -4.205733   -0.006738
   8 C     6.0000    0    12.011   -1.879649    5.158173   -0.001225
   9 H     1.0000    0     1.008    6.270623   -0.210763    1.728563
  10 H     1.0000    0     1.008    5.824777   -2.967922   -0.111180
  11 H     1.0000    0     1.008    6.316784   -0.009311   -1.596083
  12 H     1.0000    0     1.008    3.019018    3.561406   -0.008692
  13 H     1.0000    0     1.008   -4.593793    0.833262    0.013900
  14 H     1.0000    0     1.008    1.575218   -4.395158    0.004591
  15 H     1.0000    0     1.008   -3.425346   -5.226961   -1.802060
  16 H     1.0000    0     1.008   -3.073926   -5.549534    1.495114
  17 H     1.0000    0     1.008   -5.472203   -3.568548    0.256586
  18 H     1.0000    0     1.008   -3.074156    5.497446    1.651166
  19 H     1.0000    0     1.008   -0.339630    6.529216    0.022132
  20 H     1.0000    0     1.008   -3.033905    5.510302   -1.679595

------------------------------------------------------------------------------
                   ___                                                        
                  /   \      - P O W E R E D   B Y -                         
                 /     \                                                     
                 |  |  |   _    _      __       _____    __    __             
                 |  |  |  | |  | |    /  \     |  _  \  |  |  /  |          
                  \  \/   | |  | |   /    \    | | | |  |  | /  /          
                 / \  \   | |__| |  /  /\  \   | |_| |  |  |/  /          
                |  |  |   |  __  | /  /__\  \  |    /   |      \           
                |  |  |   | |  | | |   __   |  |    \   |  |\   \          
                \     /   | |  | | |  |  |  |  | |\  \  |  | \   \       
                 \___/    |_|  |_| |__|  |__|  |_| \__\ |__|  \__/        
                                                                              
                      - O R C A' S   B I G   F R I E N D -                    
                                      &                                       
                       - I N T E G R A L  F E E D E R -                       
                                                                              
 v1 FN, 2020, v2 2021, v3 2022-2024                                           
------------------------------------------------------------------------------


----------------------
SHARK INTEGRAL PACKAGE
----------------------

Number of atoms                             ...     21
Number of basis functions                   ...    231
Number of shells                            ...    117
Maximum angular momentum                    ...      2
Integral batch strategy                     ... SHARK/LIBINT Hybrid
RI-J (if used) integral strategy            ... SPLIT-RIJ (Revised 2003 algorithm where possible)
Printlevel                                  ...      1
Contraction scheme used                     ... SEGMENTED contraction
Prescreening option                         ... SCHWARTZ
   Thresh                                   ... 3.000e-11
   Tcut                                     ... 1.000e-12
   Tpresel                                  ... 1.000e-12 
Coulomb Range Separation                    ... NOT USED
Exchange Range Separation                   ... NOT USED
Multipole approximations                    ... NOT USED
Finite Nucleus Model                        ... NOT USED
CABS basis                                  ... NOT available
Auxiliary Coulomb fitting basis             ... AVAILABLE
   # of basis functions in Aux-J            ...    573
   # of shells in Aux-J                     ...    195
   Maximum angular momentum in Aux-J        ...      4
Auxiliary J/K fitting basis                 ... NOT available
Auxiliary Correlation fitting basis         ... NOT available
Auxiliary 'external' fitting basis          ... NOT available

Checking pre-screening integrals            ... done (  0.0 sec) Dimension = 117
Check shell pair data                       ... done (  0.0 sec)
Shell pair information
Shell pair cut-off parameter TPreSel        ...   1.0e-12
Total number of shell pairs                 ...      6903
Shell pairs after pre-screening             ...      6091
Total number of primitive shell pairs       ...     24987
Primitive shell pairs kept                  ...     15623
          la=0 lb=0:   2106 shell pairs
          la=1 lb=0:   2379 shell pairs
          la=1 lb=1:    700 shell pairs
          la=2 lb=0:    552 shell pairs
          la=2 lb=1:    312 shell pairs
          la=2 lb=2:     42 shell pairs

Calculating one electron integrals          ... done (  0.0 sec)
Calculating RI/J V-Matrix + Cholesky decomp.... done (  0.0 sec)
Calculating Nuclear repulsion               ... done (  0.0 sec) ENN=    420.375663596704 Eh

Diagonalization of the overlap matrix:
Smallest eigenvalue                        ... 2.484e-05
Time for diagonalization                   ...    0.003 sec
Threshold for overlap eigenvalues          ... 1.000e-07
Number of eigenvalues below threshold      ... 0
Time for construction of square roots      ...    0.001 sec
Total time needed                          ...    0.006 sec

-------------------
DFT GRID GENERATION
-------------------

General Integration Accuracy     IntAcc      ... 4.388
Radial Grid Type                 RadialGrid  ... OptM3 with GC (2021)
Angular Grid (max. ang.)         AngularGrid ... 4 (Lebedev-302)
Angular grid pruning method      GridPruning ... 4 (adaptive)
Weight generation scheme         WeightScheme... mBecke (2022)
Basis function cutoff            BFCut       ... 1.0000e-11
Integration weight cutoff        WCut        ... 1.0000e-14
Partially contracted basis set               ... off
Rotationally invariant grid construction     ... off
Angular grids for H and He will be reduced by one unit

Total number of grid points                  ...    92495
Total number of batches                      ...     1455
Average number of points per batch           ...       63
Average number of grid points per atom       ...     4405
Initializing property integral containers    ... done (  0.0 sec)

SHARK setup successfully completed in   0.6 seconds

Maximum memory used throughout the entire STARTUP-calculation: 41.5 MB
Occupation numbers will be reassigned to an Aufbau configuration
             **** ENERGY FILE WAS UPDATED (xtb_opt.en.tmp) ****
Finished Guess after   0.0 sec
Maximum memory used throughout the entire GUESS-calculation: 17.1 MB
----------------------------------------D-I-I-S--------------------------------------------
Iteration    Energy (Eh)           Delta-E    RMSDP     MaxDP     DIISErr   Damp  Time(sec)
-------------------------------------------------------------------------------------------
               ***  Starting incremental Fock matrix formation  ***
                              *** Initializing SOSCF ***
---------------------------------------S-O-S-C-F--------------------------------------
Iteration    Energy (Eh)           Delta-E    RMSDP     MaxDP     MaxGrad    Time(sec)
--------------------------------------------------------------------------------------
    1    -350.0879696097475176     0.00e+00  2.20e-04  4.15e-03  2.55e-04     1.5
               *** Restarting incremental Fock matrix formation ***
    2    -350.0880532911781415    -8.37e-05  9.47e-05  1.72e-03  2.93e-04     1.5
    3    -350.0880525390954858     7.52e-07  4.64e-05  7.33e-04  4.03e-04     1.2
    4    -350.0880618369401986    -9.30e-06  8.26e-06  1.43e-04  3.05e-05     1.1
    5    -350.0880618026472462     3.43e-08  2.44e-06  4.75e-05  5.27e-05     1.1
                 **** Energy Check signals convergence ****

               *****************************************************
               *                     SUCCESS                       *
               *           SCF CONVERGED AFTER   5 CYCLES          *
               *****************************************************

             **** ENERGY FILE WAS UPDATED (xtb_opt.en.tmp) ****

----------------
TOTAL SCF ENERGY
----------------

Total Energy       :       -350.08806180264725 Eh           -9526.38047 eV

Components:
Nuclear Repulsion  :        420.37566359670399 Eh           11439.00335 eV
Electronic Energy  :       -770.46372539935123 Eh          -20965.38383 eV
One Electron Energy:      -1303.78547544200273 Eh          -35477.80644 eV
Two Electron Energy:        533.32175004265150 Eh           14512.42262 eV

Virial components:
Potential Energy   :       -698.53379733273596 Eh          -19008.07098 eV
Kinetic Energy     :        348.44573553008871 Eh            9481.69050 eV
Virial Ratio       :          2.00471329135385

DFT components:
N(Alpha)           :       32.999906779565 electrons
N(Beta)            :       32.999906779565 electrons
N(Total)           :       65.999813559130 electrons
E(X)               :      -51.120165787964 Eh       
E(C)               :       -2.082964247869 Eh       
E(XC)              :      -53.203130035833 Eh       

---------------
SCF CONVERGENCE
---------------

  Last Energy change         ...   -3.4293e-08  Tolerance :   1.0000e-07
  Last MAX-Density change    ...    4.7451e-05  Tolerance :   1.0000e-07
  Last RMS-Density change    ...    2.4401e-06  Tolerance :   5.0000e-09
  Last DIIS Error            ...    2.1433e-03  Tolerance :   1.0000e-07
  Last Orbital Gradient      ...    5.2657e-05  Tolerance :   1.0000e-04
  Last Orbital Rotation      ...    1.1016e-04  Tolerance :   1.0000e-04


----------------
ORBITAL ENERGIES
----------------

  NO   OCC          E(Eh)            E(eV) 
   0   2.0000     -10.038092      -273.1504 
   1   2.0000     -10.038029      -273.1487 
   2   2.0000     -10.038020      -273.1484 
   3   2.0000     -10.025579      -272.8099 
   4   2.0000     -10.025559      -272.8093 
   5   2.0000     -10.025552      -272.8091 
   6   2.0000     -10.021008      -272.6855 
   7   2.0000     -10.020990      -272.6850 
   8   2.0000     -10.020963      -272.6843 
   9   2.0000      -0.824162       -22.4266 
  10   2.0000      -0.745145       -20.2764 
  11   2.0000      -0.745127       -20.2759 
  12   2.0000      -0.665500       -18.1092 
  13   2.0000      -0.643323       -17.5057 
  14   2.0000      -0.643306       -17.5052 
  15   2.0000      -0.536702       -14.6044 
  16   2.0000      -0.536680       -14.6038 
  17   2.0000      -0.461419       -12.5558 
  18   2.0000      -0.442931       -12.0528 
  19   2.0000      -0.397120       -10.8062 
  20   2.0000      -0.396166       -10.7802 
  21   2.0000      -0.380888       -10.3645 
  22   2.0000      -0.380861       -10.3638 
  23   2.0000      -0.369570       -10.0565 
  24   2.0000      -0.369537       -10.0556 
  25   2.0000      -0.360263        -9.8033 
  26   2.0000      -0.360140        -9.7999 
  27   2.0000      -0.329516        -8.9666 
  28   2.0000      -0.304750        -8.2927 
  29   2.0000      -0.298573        -8.1246 
  30   2.0000      -0.298533        -8.1235 
  31   2.0000      -0.214464        -5.8359 
  32   2.0000      -0.214355        -5.8329 
  33   0.0000      -0.022226        -0.6048 
  34   0.0000      -0.021905        -0.5961 
  35   0.0000       0.071881         1.9560 
  36   0.0000       0.105059         2.8588 
  37   0.0000       0.107411         2.9228 
  38   0.0000       0.107674         2.9300 
  39   0.0000       0.110982         3.0200 
  40   0.0000       0.127657         3.4737 
  41   0.0000       0.127781         3.4771 
  42   0.0000       0.149152         4.0586 
  43   0.0000       0.155792         4.2393 
*Only the first 10 virtual orbitals were printed.
Total SCF time: 0 days 0 hours 0 min 6 sec 
Finished LeanSCF after   6.4 sec

Maximum memory used throughout the entire LEANSCF-calculation: 26.9 MB


-------------------------------------------------------------------------------
                          DFT DISPERSION CORRECTION                            
                                                                               
                                DFTD4 V3.4.0                                   
-------------------------------------------------------------------------------
-------------------------   ----------------
Dispersion correction           -0.006747566
-------------------------   ----------------

------------------   -----------------
gCP correction             0.007538312
------------------   -----------------

-------------------------   --------------------
FINAL SINGLE POINT ENERGY      -350.087271056479
-------------------------   --------------------

------------------------------------------------------------------------------
                         ORCA SCF GRADIENT CALCULATION
------------------------------------------------------------------------------

Nuc. rep. gradient        (SHARK) ... done (  0.0 sec)
HCore & Overlap gradient  (SHARK) ... done (  0.2 sec)
Split-RIJ-J gradient      (SHARK) ... done (  1.2 sec)
XC gradient                       ... done (  4.6 sec)
Dispersion correction             ... done (  0.0 sec)

-------------------
DISPERSION GRADIENT
-------------------

   1   C   :    0.000117202   -0.000020053    0.000000118
   2   C   :    0.000090745   -0.000016052   -0.000000075
   3   C   :    0.000051019    0.000059350   -0.000000195
   4   C   :   -0.000031460    0.000086611    0.000000036
   5   C   :   -0.000076888    0.000014470    0.000000356
   6   C   :   -0.000059259   -0.000070565    0.000000205
   7   C   :    0.000025935   -0.000073853    0.000000129
   8   C   :   -0.000076015   -0.000091442   -0.000000353
   9   C   :   -0.000041257    0.000111533   -0.000000063
  10   H   :    0.000043892   -0.000004340    0.000009494
  11   H   :    0.000041964   -0.000014338   -0.000000625
  12   H   :    0.000043913   -0.000003605   -0.000008752
  13   H   :    0.000028092    0.000032002   -0.000000160
  14   H   :   -0.000041730    0.000008294    0.000000286
  15   H   :    0.000013710   -0.000040334    0.000000107
  16   H   :   -0.000026153   -0.000035539   -0.000009948
  17   H   :   -0.000024731   -0.000036480    0.000008156
  18   H   :   -0.000033369   -0.000029198    0.000001375
  19   H   :   -0.000018587    0.000039978    0.000009037
  20   H   :   -0.000008560    0.000043520    0.000000110
  21   H   :   -0.000018464    0.000040042   -0.000009235

Difference to translation invariance:
           :    0.0000000000   -0.0000000000    0.0000000000

Difference to rotation invariance:
           :    0.0000000000   -0.0000000000    0.0000000000

Norm of the Dispersion gradient    ...    0.0003313190
RMS gradient                       ...    0.0000417423
MAX gradient                       ...    0.0001172020
gCP correction                   ... done

------------------
CARTESIAN GRADIENT
------------------

   1   C   :    0.000917011   -0.000168444   -0.000007529
   2   C   :   -0.001366571    0.000816431   -0.000039901
   3   C   :    0.000125876   -0.000463781    0.000046532
   4   C   :   -0.000023904   -0.001589169   -0.000016452
   5   C   :    0.000360053    0.000389887   -0.000048210
   6   C   :    0.001419965    0.000711933    0.000048846
   7   C   :   -0.000533101    0.000146262   -0.000018827
   8   C   :   -0.000582161   -0.000668369    0.000058838
   9   C   :   -0.000326021    0.000798736    0.000003960
  10   H   :   -0.000853682   -0.000137661   -0.000648203
  11   H   :   -0.000558436    0.000800360    0.000053685
  12   H   :   -0.000882232   -0.000216531    0.000601873
  13   H   :   -0.000491778   -0.000875812    0.000030402
  14   H   :    0.001009255    0.000007552   -0.000044038
  15   H   :   -0.000483818    0.000854240   -0.000015108
  16   H   :    0.000312336    0.000757679    0.000658516
  17   H   :    0.000201963    0.000902530   -0.000574331
  18   H   :    0.000973152    0.000104334   -0.000097149
  19   H   :    0.000602821   -0.000655687   -0.000619952
  20   H   :   -0.000407132   -0.000862026    0.000000993
  21   H   :    0.000586405   -0.000652464    0.000626054

Difference to translation invariance:
           :   -0.0000000000    0.0000000000   -0.0000000000

Difference to rotation invariance:
           :   -0.0000201565   -0.0000955740   -0.0000130548

Norm of the Cartesian gradient     ...    0.0048604746
RMS gradient                       ...    0.0006123622
MAX gradient                       ...    0.0015891692

-------
TIMINGS
-------

Total SCF gradient time     ....        6.059 sec

Densities                   ....       0.000 sec  (  0.0%)
One electron gradient       ....       0.216 sec  (  3.6%)
RI-J Coulomb gradient       ....       1.189 sec  ( 19.6%)
[...]
SCF CONVERGENCE
---------------

  Last Energy change         ...    1.4338e-07  Tolerance :   1.0000e-07
  Last MAX-Density change    ...    1.8571e-05  Tolerance :   1.0000e-07
  Last RMS-Density change    ...    1.2026e-06  Tolerance :   5.0000e-09
  Last DIIS Error            ...    8.0896e-05  Tolerance :   1.0000e-07
  Last Orbital Gradient      ...    9.4998e-06  Tolerance :   1.0000e-04
  Last Orbital Rotation      ...    4.3431e-05  Tolerance :   1.0000e-04


----------------
ORBITAL ENERGIES
----------------

  NO   OCC          E(Eh)            E(eV) 
   0   2.0000     -10.039157      -273.1794 
   1   2.0000     -10.039153      -273.1792 
   2   2.0000     -10.039138      -273.1788 
   3   2.0000     -10.026244      -272.8280 
   4   2.0000     -10.026239      -272.8278 
   5   2.0000     -10.026233      -272.8277 
   6   2.0000     -10.021845      -272.7083 
   7   2.0000     -10.021823      -272.7077 
   8   2.0000     -10.021802      -272.7071 
   9   2.0000      -0.823294       -22.4030 
  10   2.0000      -0.744518       -20.2594 
  11   2.0000      -0.744504       -20.2590 
  12   2.0000      -0.665071       -18.0975 
  13   2.0000      -0.642993       -17.4967 
  14   2.0000      -0.642982       -17.4964 
  15   2.0000      -0.536671       -14.6036 
  16   2.0000      -0.536640       -14.6027 
  17   2.0000      -0.460969       -12.5436 
  18   2.0000      -0.442225       -12.0335 
  19   2.0000      -0.397641       -10.8204 
  20   2.0000      -0.395432       -10.7603 
  21   2.0000      -0.380222       -10.3464 
  22   2.0000      -0.380217       -10.3462 
  23   2.0000      -0.369468       -10.0537 
  24   2.0000      -0.369432       -10.0528 
  25   2.0000      -0.359903        -9.7935 
  26   2.0000      -0.359762        -9.7896 
  27   2.0000      -0.329260        -8.9596 
  28   2.0000      -0.304455        -8.2846 
  29   2.0000      -0.298832        -8.1316 
  30   2.0000      -0.298773        -8.1300 
  31   2.0000      -0.214460        -5.8358 
  32   2.0000      -0.214368        -5.8333 
  33   0.0000      -0.022808        -0.6206 
  34   0.0000      -0.022502        -0.6123 
  35   0.0000       0.071750         1.9524 
  36   0.0000       0.104301         2.8382 
  37   0.0000       0.107391         2.9222 
  38   0.0000       0.107640         2.9290 
  39   0.0000       0.110582         3.0091 
  40   0.0000       0.127265         3.4631 
  41   0.0000       0.127393         3.4665 
  42   0.0000       0.148932         4.0526 
  43   0.0000       0.155142         4.2216 
*Only the first 10 virtual orbitals were printed.
Total SCF time: 0 days 0 hours 0 min 5 sec 
Finished LeanSCF after   5.2 sec

Maximum memory used throughout the entire LEANSCF-calculation: 27.0 MB


-------------------------------------------------------------------------------
                          DFT DISPERSION CORRECTION                            
                                                                               
                                DFTD4 V3.4.0                                   
-------------------------------------------------------------------------------
-------------------------   ----------------
Dispersion correction           -0.006735821
-------------------------   ----------------

------------------   -----------------
gCP correction             0.007518653
------------------   -----------------

-------------------------   --------------------
FINAL SINGLE POINT ENERGY      -350.087339493009
-------------------------   --------------------

------------------------------------------------------------------------------
                         ORCA SCF GRADIENT CALCULATION
------------------------------------------------------------------------------

Nuc. rep. gradient        (SHARK) ... done (  0.0 sec)
HCore & Overlap gradient  (SHARK) ... done (  0.2 sec)
Split-RIJ-J gradient      (SHARK) ... done (  1.2 sec)
XC gradient                       ... done (  4.6 sec)
Dispersion correction             ... done (  0.0 sec)

-------------------
DISPERSION GRADIENT
-------------------

   1   C   :    0.000117118   -0.000020129    0.000000122
   2   C   :    0.000090733   -0.000016046   -0.000000064
   3   C   :    0.000050797    0.000059348   -0.000000243
   4   C   :   -0.000031462    0.000086606    0.000000051
   5   C   :   -0.000076778    0.000014302    0.000000431
   6   C   :   -0.000059259   -0.000070550    0.000000219
   7   C   :    0.000026017   -0.000073663    0.000000156
   8   C   :   -0.000076007   -0.000091343   -0.000000388
   9   C   :   -0.000041142    0.000111484   -0.000000077
  10   H   :    0.000043734   -0.000004366    0.000009430
  11   H   :    0.000041821   -0.000014242   -0.000000617
  12   H   :    0.000043748   -0.000003632   -0.000008680
  13   H   :    0.000027979    0.000032077   -0.000000207
  14   H   :   -0.000041746    0.000008164    0.000000339
  15   H   :    0.000013815   -0.000040274    0.000000123
  16   H   :   -0.000026087   -0.000035405   -0.000009901
  17   H   :   -0.000024668   -0.000036322    0.000008071
  18   H   :   -0.000033206   -0.000029115    0.000001343
  19   H   :   -0.000018478    0.000039843    0.000008967
  20   H   :   -0.000008564    0.000043347    0.000000096
  21   H   :   -0.000018364    0.000039915   -0.000009170

Difference to translation invariance:
           :    0.0000000000   -0.0000000000    0.0000000000

Difference to rotation invariance:
           :    0.0000000000   -0.0000000000    0.0000000000

Norm of the Dispersion gradient    ...    0.0003309100
RMS gradient                       ...    0.0000416907
MAX gradient                       ...    0.0001171185
gCP correction                   ... done

------------------
CARTESIAN GRADIENT
------------------

   1   C   :   -0.000031883    0.000006256    0.000011273
   2   C   :   -0.000098989    0.000015913   -0.000006707
   3   C   :   -0.000103306   -0.000044849    0.000009209
   4   C   :    0.000049046   -0.000098713   -0.000006528
   5   C   :    0.000099117   -0.000046371   -0.000002358
   6   C   :    0.000050134    0.000087764    0.000011010
   7   C   :   -0.000000968    0.000096667   -0.000002727
   8   C   :    0.000021495    0.000024583   -0.000023382
   9   C   :    0.000011649   -0.000036497   -0.000002473
  10   H   :    0.000027237    0.000003620    0.000003052
  11   H   :    0.000032966   -0.000012025    0.000004817
  12   H   :    0.000016379   -0.000004048   -0.000007743
  13   H   :    0.000018634   -0.000013505    0.000004314
  14   H   :    0.000003442    0.000019903   -0.000007557
  15   H   :   -0.000012408   -0.000012600    0.000000018
  16   H   :   -0.000024362   -0.000024176   -0.000000027
  17   H   :   -0.000007821   -0.000014032    0.000008537
  18   H   :   -0.000021524   -0.000015519    0.000004564
  19   H   :   -0.000011642    0.000017055    0.000001021
  20   H   :   -0.000011490    0.000030388    0.000003618
  21   H   :   -0.000005706    0.000020186   -0.000001930

Difference to translation invariance:
           :   -0.0000000000   -0.0000000000    0.0000000000

Difference to rotation invariance:
           :   -0.0000160290   -0.0000966516   -0.0000198569

Norm of the Cartesian gradient     ...    0.0002808214
RMS gradient                       ...    0.0000353802
MAX gradient                       ...    0.0001033058

-------
TIMINGS
-------

Total SCF gradient time     ....        6.040 sec

Densities                   ....       0.000 sec  (  0.0%)
One electron gradient       ....       0.217 sec  (  3.6%)
RI-J Coulomb gradient       ....       1.186 sec  ( 19.6%)
XC gradient                 ....       4.618 sec  ( 76.4%)

Maximum memory used throughout the entire SCFGRAD-calculation: 37.4 MB

------------------------------------------------------------------------------
                              ORCA PROPERTY CALCULATIONS
------------------------------------------------------------------------------

GBWName                                 ... xtb_opt.gbw
Number of atoms                         ...     21
Number of basis functions               ...    231
Max core memory                         ...   1024 MB

Electric properties:
Dipole moment                           ... YES
Quadrupole moment                       ...  NO
Static polarizability (Dipole/Dipole)   ...  NO
Static polarizability (Dipole/Quad.)    ...  NO
Static polarizability (Quad./Quad.)     ...  NO
Static polarizability (Velocity)        ...  NO

Atomic electric properties:
Dipole moment                           ...  NO
Quadrupole moment                       ...  NO
Static polarizability                   ...  NO

Choice of electric origin               ... Center of mass
Position of electric origin             ...    -0.000275     0.000208     0.000264

General magnetic properties:
Magnetizability                         ...  NO

EPR properties:
g-Tensor (aka g-matrix)                 ...  NO
Zero-Field splitting spin-orbit         ...  NO
Zero-field splitting spin-spin          ...  NO
Hyperfine couplings                     ...  NO (   0 nuclei)
Quadrupole couplings                    ...  NO (   0 nuclei)
Contact density                         ...  NO (   0 nuclei)

NMR properties:
Chemical shifts                         ...  NO (   0 nuclei)
Spin-rotation constants                 ...  NO (   0 nuclei)
Spin-spin couplings                     ...  NO (   0 nuclei,    0 pairs)

Choice of magnetic origin               ... GIAO
Position of magnetic origin             ...     0.000000     0.000000     0.000000

Properties with geometric perturbations:
SCF Hessian                             ...  NO
IR spectrum                             ...  NO
VCD spectrum                            ...  NO
X-ray spectroscopy properties:
SCF XES/XAS/RIXS spectra                ...  NO


-------------
DIPOLE MOMENT
-------------

Method             : SCF
Type of density    : Electron Density
Multiplicity       :   1
Irrep              :   0
Energy             :  -350.0881223246329910 Eh
Relativity type    : 
Basis              : AO
                                X                 Y                 Z
Electronic contribution:     -0.000573671       0.001113669       0.010839896
Nuclear contribution   :     -0.000808319      -0.000186797      -0.015648440
                        -----------------------------------------
Total Dipole Moment    :     -0.001381990       0.000926873      -0.004808544
                        -----------------------------------------
Magnitude (a.u.)       :      0.005088328
Magnitude (Debye)      :      0.012933503



--------------------
Rotational spectrum 
--------------------
 
Rotational constants in cm-1:             0.058440             0.058429             0.029701 
Rotational constants in MHz :          1751.973066          1751.645388           890.417293 

Dipole components along the rotational axes: 
x,y,z [a.u.] :     0.001626     0.000355    -0.004809 
x,y,z [Debye]:     0.004132     0.000903    -0.012222 

 

Dipole moment calculation done in   0.0 sec 

Maximum memory used throughout the entire PROP-calculation: 16.0 MB

--------------------------------
SUGGESTED CITATIONS FOR THIS RUN
--------------------------------

Below you find a list of papers that are relevant to this ORCA run
We neither can nor want to force you to cite these papers, but we appreciate if you do
You receive ORCA, which is the product of decades of hard work by many enthusiastic individuals, for free
The only thing we kindly ask in return is that you cite our papers,
We deeply appreciate it, if you show your appreciation for ORCA by not just citing the generic ORCA reference.

Please note that relegating all ORCA citations to the supporting information does *not* help us.
SI sections are not indexed - citations you put there will not count into any citation statistics
But we need these citations in order to attract the funding resources that allow us to do what we are doing

Therefore, if you are a happy ORCA user, please consider citing a few of the papers listed below in the main body of your paper

In addition to the list printed below, the program has created the file xtb_opt.bibtex that contains the list in bibtex format
You can import this file easily into all common literature databanks and citation aid programs


List of essential papers. We consider these as the minimum necessary citations

  1. Neese,F.
     Software update: the ORCA program system, version 5.0
     WIRES Comput. Molec. Sci., 2022 12(1)e1606
     doi.org/10.1002/wcms.1606
  2. Grimme,S.; Hansen,A.; Ehlert,S.; Mewes,J.
     r2SCAN-3c: A 'Swiss army knife' composite electronic-structure method
     J. Chem. Phys., 2021 154 064103
     doi.org/10.1063/5.0040021

List of papers to cite with high priority. The work reported in these papers was absolutely
necessary for this run to complete.
Our perspective: the developers of density functionals and basis sets usually get cited in chemistry papers
Good! But without the algorithms to do something with them, the functionals or basis sets would not do anything.
Hence, in our opinion, the algorithm design and method developments papers are equally worthy of getting cited

  1. Neese,F.
     An improvement of the resolution of the identity approximation for the formation of the Coulomb matrix
     J. Comp. Chem., 2003 24(14)1740-1747
     doi.org/10.1002/jcc.10318
  2. Neese,F.
     The SHARK Integral Generation and Digestion System
     J. Comp. Chem., 2022  1-16
     doi.org/10.1002/jcc.26942
  3. Lehtola,S.; Steigemann,C.; Oliveira,M.; Marques,M.
     Recent developments in Libxc - A comprehensive library of functionals for density functional theory
     Software X, 2018 7 
     doi.org/10.1016/j.softx.2017.11.002
  4. Caldeweyher,E.; Bannwarth,C.; Grimme,S.
     Extension of the D3 dispersion coefficient model
     J. Chem. Phys., 2017 147 034112
     doi.org/10.1063/1.4993215
  5. Caldeweyher,E.; Ehlert,S.; Hansen,A.; Neugebauer,H.; Spicher,S.; Bannwarth,C.; Grimme,S.
     A generally applicable atomic-charge dependent London dispersion correction
     J. Chem. Phys., 2019 150 154122
     doi.org/10.1063/1.5090222
  6. Caldeweyher,E.; Mewes,J.; Ehlert,S.; Grimme,S.
     Extension and evaluation of the D4 London-dispersion model for periodic systems
     Phys. Chem. Chem. Phys., 2020 22(16)8499-8512
     doi.org/10.1039/D0CP00502A
  7. Wittmann,L.; Gordiy,I.; Friede,M.; Helmich-Paris,B.; Grimme,S.; Hansen,A.; Bursch,M.
     Extension of the D3 and D4 London Dispersion Corrections to the full Actinides Series
     Phys. Chem. Chem. Phys., 2024 26(32)21379-21394
     doi.org/https://doi.org/10.1039/D4CP01514B 

List of suggested additional citations. These are papers that are important in the 'surrounding' of 
of this run, or papers that preceded the highly important papers. If you like your results we are grateful for a citation.

  1. Neese,F.
     The ORCA program system
     WIRES Comput. Molec. Sci., 2012 2(1)73-78
     doi.org/10.1002/wcms.81
  2. Neese,F.
     Software update: the ORCA program system, version 4.0
     WIRES Comput. Molec. Sci., 2018 8(1)1-6
     doi.org/10.1002/wcms.1327
  3. Neese,F.; Wennmohs,F.; Becker,U.; Riplinger,C.
     The ORCA quantum chemistry program package
     J. Chem. Phys., 2020 152 Art. No. L224108
     doi.org/10.1063/5.0004608

List of optional additional citations

  1. Neese,F.
     Approximate second-order SCF convergence for spin unrestricted wavefunctions
     Chem. Phys. Lett., 2000 325(1-3)93-98
     doi.org/10.1016/s0009-2614(00)00662-x

Timings for individual modules:

Sum of individual times          ...       11.968 sec (=   0.199 min)
Startup calculation              ...        0.623 sec (=   0.010 min)   5.2 %
SCF iterations                   ...        5.222 sec (=   0.087 min)  43.6 %
Property calculations            ...        0.040 sec (=   0.001 min)   0.3 %
SCF Gradient evaluation          ...        6.083 sec (=   0.101 min)  50.8 %
                             ****ORCA TERMINATED NORMALLY****
TOTAL RUN TIME: 0 days 0 hours 0 minutes 12 seconds 32 msec
  ------------------------------------------------------------------------
          * successful ORCA run, taking over control again...

         :::::::::::::::::::::::::::::::::::::::::::::::::::::
         ::                  ORCA SUMMARY                   ::
         :::::::::::::::::::::::::::::::::::::::::::::::::::::
         :: total energy            -350.087339493009 Eh    ::
         :: gradient norm              0.000280821407 Eh/a0 ::
         :: HOMO-LUMO gap              0.000000000000 eV    ::
         :::::::::::::::::::::::::::::::::::::::::::::::::::::

           -------------------------------------------------
          |                Property Printout                |
           -------------------------------------------------
           -------------------------------------------------
          |                Geometry Summary                 |
           -------------------------------------------------

      molecular mass/u    :      120.1919121
   center of mass at/Å    :       -0.0001455       0.0001100       0.0001399
  moments of inertia/u·Å² :        0.2884543E+03   0.2885083E+03   0.5675591E+03
rotational constants/cm⁻¹ :        0.5844125E-01   0.5843032E-01   0.2970198E-01

 * 18 selected distances

     #   Z          #   Z                                           value/Å
     2   6          3   6                                         1.3995043
     3   6          4   6                                         1.3908774
     4   6          5   6                                         1.3995369
     5   6          6   6                                         1.3908329
     2   6          7   6                                         1.3908600
     6   6          7   6                                         1.3995876 (max)
     1   6         10   1                                         1.0956878
     1   6         11   1                                         1.0927468
     1   6         12   1                                         1.0951734
     3   6         13   1                                         1.0878728
     5   6         14   1                                         1.0878742
     7   6         15   1                                         1.0878459 (min)
     8   6         16   1                                         1.0958977
     8   6         17   1                                         1.0948681
     8   6         18   1                                         1.0927609
     9   6         19   1                                         1.0953644
     9   6         20   1                                         1.0926519
     9   6         21   1                                         1.0954659

 * 2 distinct bonds (by element types)

   Z      Z             #   av. dist./Å        max./Å        min./Å
   1 H    6 C          12     1.0928508     1.0958977     1.0878459
   6 C    6 C           6     1.3951999     1.3995876     1.3908329


optimized geometry written to: xtbopt.coord


           -------------------------------------------------
          | TOTAL ENERGY             -350.087339493009 Eh   |
          | GRADIENT NORM               0.000280821407 Eh/α |
           -------------------------------------------------

------------------------------------------------------------------------
 * finished run on 2025/04/09 at 02:57:32.682     
------------------------------------------------------------------------
 total:
 * wall-time:     0 d,  0 h,  0 min, 58.554 sec
 *  cpu-time:     0 d,  0 h,  0 min,  0.085 sec
 * ratio c/w:     0.001 speedup
 SCF:
 * wall-time:     0 d,  0 h,  0 min, 12.182 sec
 *  cpu-time:     0 d,  0 h,  0 min,  0.071 sec
 * ratio c/w:     0.006 speedup
 ANC optimizer:
 * wall-time:     0 d,  0 h,  0 min, 46.371 sec
 *  cpu-time:     0 d,  0 h,  0 min,  0.005 sec
 * ratio c/w:     0.000 speedup

