12
 energy: -517.256234086593 gnorm: 0.016279776975 xtb: 6.7.1 (41059b4)
C           -2.50410253470963        0.03824048371695       -0.02046675760907
C           -1.08460231638062       -0.51201421302689        0.04106726401820
C           -0.05922185092624        0.60516303066816       -0.05536824652454
S            1.63330410562376       -0.10448760794630        0.01973996270875
H           -2.66984030238308        0.56591912745077       -0.95736765812423
H           -3.22501893282909       -0.77211894214215        0.05013643502222
H           -2.68241935318865        0.73029069592361        0.79990971255446
H           -0.92380964350936       -1.21620080623893       -0.77815504164482
H           -0.93656783241502       -1.05296607576660        0.97826173683349
H           -0.15313221446786        1.14075262540550       -1.00051190924335
H           -0.16375195647256        1.30364278527768        0.77540161344360
H            2.27306190690725        1.05854924126907       -0.08125547863601
12
 energy: -517.256773777802 gnorm: 0.004520823828 xtb: 6.7.1 (41059b4)
C           -2.50641836826277        0.03624732329146       -0.02026664474537
C           -1.08094834598564       -0.51055062025209        0.04106115400041
C           -0.05251765916382        0.60780708677052       -0.05565987129487
S            1.64821545046627       -0.10796430031549        0.02057690617286
H           -2.68036102717798        0.56848979430121       -0.95923459887889
H           -3.23726837968887       -0.77220087360521        0.04962949279339
H           -2.69350643578177        0.73236944917178        0.80173673213959
H           -0.91896314138795       -1.22197022417507       -0.77595493443286
H           -0.93154177319574       -1.05912604481640        0.97730565022326
H           -0.17152049984374        1.14815660301741       -0.99922933898645
H           -0.18166199471593        1.31119648480081        0.77201987506015
H            2.31039087329828        1.05231491289206       -0.08059334358188
12
 energy: -517.256803598915 gnorm: 0.000770443253 xtb: 6.7.1 (41059b4)
C           -2.50557276990363        0.03559335720987       -0.02012561863028
C           -1.07945911998433       -0.51162695060622        0.04123071101665
C           -0.05371528005677        0.61178311948824       -0.05607257376873
S            1.64680621811228       -0.11011500245239        0.02109867217277
H           -2.68299487335975        0.56932706612651       -0.95964245825515
H           -3.23857677241619       -0.77307013083960        0.04923426308649
H           -2.69656980636978        0.73246499050366        0.80269500121675
H           -0.91767263534857       -1.22544367034898       -0.77527566645338
H           -0.93020239421462       -1.06264406020148        0.97739228514338
H           -0.17286624610041        1.15279038841176       -1.00026138321599
H           -0.18333986662558        1.31643586597264        0.77163550271780
H            2.31806217547327        1.04927430977949       -0.08051790426435
12
 energy: -517.256805096985 gnorm: 0.000524460563 xtb: 6.7.1 (41059b4)
C           -2.50720856046072        0.03474047863052       -0.01998416503887
C           -1.08069185115696       -0.51031682742200        0.04113003877538
C           -0.05307793033952        0.61167457580196       -0.05611763241103
S            1.64814359224843       -0.10992318569446        0.02151631372926
H           -2.68463943049689        0.56885827745443       -0.95933170007475
H           -3.23992459694539       -0.77434973248300        0.04887038193233
H           -2.69852310512825        0.73112211274420        0.80323296868659
H           -0.91801711894467       -1.22397263011950       -0.77539501077267
H           -0.93049383404915       -1.06110691250684        0.97732266937550
H           -0.17070226981060        1.15222207825302       -1.00063060096064
H           -0.18153632507867        1.31637703298574        0.77158146340553
H            2.32056999799699        1.04944387889846       -0.08080399779701
12
 energy: -517.256805096985 gnorm: 0.000524460563 xtb: 6.7.1 (41059b4)
C           -2.50720856046072        0.03474047863052       -0.01998416503887
C           -1.08069185115696       -0.51031682742200        0.04113003877538
C           -0.05307793033952        0.61167457580196       -0.05611763241103
S            1.64814359224843       -0.10992318569446        0.02151631372926
H           -2.68463943049689        0.56885827745443       -0.95933170007475
H           -3.23992459694539       -0.77434973248300        0.04887038193233
H           -2.69852310512825        0.73112211274420        0.80323296868659
H           -0.91801711894467       -1.22397263011950       -0.77539501077267
H           -0.93049383404915       -1.06110691250684        0.97732266937550
H           -0.17070226981060        1.15222207825302       -1.00063060096064
H           -0.18153632507867        1.31637703298574        0.77158146340553
H            2.32056999799699        1.04944387889846       -0.08080399779701
