
                                 *****************
                                 * O   R   C   A *
                                 *****************

                                            #,                                       
                                            ###                                      
                                            ####                                     
                                            #####                                    
                                            ######                                   
                                           ########,                                 
                                     ,,################,,,,,                         
                               ,,#################################,,                 
                          ,,##########################################,,             
                       ,#########################################, ''#####,          
                    ,#############################################,,   '####,        
                  ,##################################################,,,,####,       
                ,###########''''           ''''###############################       
              ,#####''   ,,,,##########,,,,          '''####'''          '####       
            ,##' ,,,,###########################,,,                        '##       
           ' ,,###''''                  '''############,,,                           
         ,,##''                                '''############,,,,        ,,,,,,###''
      ,#''                                            '''#######################'''  
     '                                                          ''''####''''         
             ,#######,   #######,   ,#######,      ##                                
            ,#'     '#,  ##    ##  ,#'     '#,    #''#        ,####,   ,####,        
            ##       ##  ##   ,#'  ##            #'  '#       #'       #'  '#        
            ##       ##  #######   ##           ,######,      #####,   #    #        
            '#,     ,#'  ##    ##  '#,     ,#' ,#      #,     #,   #   #,  ,#        
             '#######'   ##     ##  '#######'  #'      '#     '####' # '####'        



                #########################################################
                #                        -***-                          #
                #          Department of theory and spectroscopy        #
                #                                                       #
                #                      Frank Neese                      #
                #                                                       #
                #     Directorship, Architecture, Infrastructure        #
                #                    SHARK, DRIVERS                     #
                #        Core code/Algorithms in most modules           #
                #                                                       #
                #        Max Planck Institute fuer Kohlenforschung      #
                #                Kaiser Wilhelm Platz 1                 #
                #                 D-45470 Muelheim/Ruhr                 #
                #                      Germany                          #
                #                                                       #
                #                  All rights reserved                  #
                #                        -***-                          #
                #########################################################


                         Program Version 6.0.1  -  RELEASE   -


 With contributions from (in alphabetic order):
[Max-Planck-Institut fuer Kohlenforschung]                               
  Daniel Aravena         : Magnetic Suceptibility                        
  Michael Atanasov       : Ab Initio Ligand Field Theory (pilot matlab implementation)
  Alexander A. Auer      : GIAO ZORA, VPT2 properties, NMR spectrum      
  Ute Becker             : All parallelization in ORCA, NUMFREQ, NUMCALC 
  Giovanni Bistoni       : ED, misc. LED, open-shell LED, HFLD           
  Martin Brehm           : Molecular dynamics                            
  Dmytro Bykov           : pre 5.0 version of the SCF Hessian            
  Marcos Casanova-Páez   : Triplet and SCS-CIS(D). UHF-(DLPNO)-IP/EA/STEOM-CCSD. UHF-CVS-IP/STEOM-CCSD   
  Vijay G. Chilkuri      : MRCI spin determinant printing, contributions to CSF-ICE 
  Pauline Colinet        : FMM embedding                                 
  Dipayan Datta          : RHF DLPNO-CCSD density                        
  Achintya Kumar Dutta   : EOM-CC, STEOM-CC                              
  Nicolas Foglia         : Exact transition moments, OPA infrastructure, MCD improvements    
  Dmitry Ganyushin       : Spin-Orbit,Spin-Spin,Magnetic field MRCI      
  Miquel Garcia-Rates    : C-PCM and meta-GGA Hessian, CCSD/C-PCM, Gaussian charge scheme 
  Tiago L. C. Gouveia    : GS-ROHF, GS-ROCIS                             
  Yang Guo               : DLPNO-NEVPT2, F12-NEVPT2, CIM, IAO-localization        
  Andreas Hansen         : Spin unrestricted coupled pair/coupled cluster methods 
  Ingolf Harden          : AUTO-CI MPn and infrastructure                
  Benjamin Helmich-Paris : MC-RPA, TRAH-(SCF,CASSCF), AVAS, COSX integrals, SCF dyn. polar. 
  Lee Huntington         : MR-EOM, pCC                                   
  Robert Izsak           : Overlap fitted RIJCOSX, COSX-SCS-MP3, EOM     
  Riya Kayal             : Wick's Theorem for AUTO-CI, AUTO-CI UHF-CCSDT 
  Emily Kempfer          : AUTO-CI, RHF CISDT and CCSDT                  
  Christian Kollmar      : KDIIS, OOCD, Brueckner-CCSD(T), CCSD density, CASPT2, CASPT2-K, improved NEVPT2 
  Axel Koslowski         : Symmetry handling                             
  Simone Kossmann        : meta-GGA functionals, TD-DFT gradient, OOMP2, (MP2 Hessian; deprecated post 5.0) 
  Lucas Lang             : DCDCAS                                        
  Marvin Lechner         : AUTO-CI (C++ implementation), FIC-MRCC        
  Spencer Leger          : CASSCF response                               
  Dagmar Lenk            : GEPOL surface, SMD, ORCA-2-JSON               
  Dimitrios Liakos       : Extrapolation schemes; Compound Job, initial MDCI parallelization 
  Dimitrios Manganas     : Further ROCIS development; embedding schemes. LFT, Crystal Embedding 
  Dimitrios Pantazis     : SARC Basis sets                               
  Anastasios Papadopoulos: AUTO-CI, single reference methods and gradients 
  Taras Petrenko         : pre 6.0 DFT Hessian and TD-DFT gradient, (ASA, deprecated), ECA, 1-Electron XAS/XES, NRVS 
  Peter Pinski           : DLPNO-MP2, DLPNO-MP2 Gradient                 
  Christoph Reimann      : Effective Core Potentials                     
  Marius Retegan         : Local ZFS, SOC                                
  Christoph Riplinger    : Optimizer, TS searches, QM/MM, DLPNO-CCSD(T), (RO)-DLPNO pert. Triples 
  Michael Roemelt        : Original ROCIS implementation                 
  Masaaki Saitow         : Open-shell DLPNO-CCSD energy and density      
  Barbara Sandhoefer     : DKH picture change effects                    
  Kantharuban Sivalingam : CASSCF convergence/infrastructure, NEVPT2 and variants, FIC-MRCI 
  Bernardo de Souza      : ESD, SOC TD-DFT                               
  Georgi L. Stoychev     : AutoAux, RI-MP2 NMR, DLPNO-MP2 response, X2C  
  Van Anh Tran           : RI-MP2 g-tensors                              
  Willem Van den Heuvel  : Paramagnetic NMR                              
  Zikuan Wang            : NOTCH, Electric field optimization            
  Frank Wennmohs         : Technical directorship and infrastructure     
  Hang Xu                : AUTO-CI-Response properties                   
                                                                         
[FACCTs GmbH]                                                            
  Markus Bursch, Miquel Garcia-Rates, Christoph Riplinger, Bernardo de Souza, Georgi L. Stoychev 
                                                                 
  APM, Basis sets (HGBS, AHGBS, def-TZVP (Ac-Lr), def2-XVPD (La-Lu)), CI-OPT, improved COSX, DLPNO-Multilevel,           
  DOCKER, DRACO, updates on ESD, GOAT, IRC, LR-CPCM, MBIS, meta-GGA TD-DFT gradient, ML-optimized integration grids, 
  MM, NACMEs, nearIR, NEB, NEB-TS, NL-DFT gradient (VV10), 2- and 3-layer-ONIOM, interface openCOSMO-RS, QMMM,   
  Crystal-QMMM, SF, symmetry and pop. for TD-DFT, r2SCAN hybrids, SOLVATOR                                   
                                                                         
[Other institutions]                                                     
  V. Asgeirsson          : NEB                                           
  Christoph Bannwarth    : sTDA-DFT, sTD-DFT, PBEh-3c, B97-3c, D3        
  Sebastian Ehlert       : rSCAN, r2SCAN, r2SCAN-3c, D4, dhf basis sets  
  Marvin Friede          : D4 for Fr, Ra, Ac-Lr                          
  Lars Goerigk           : TD-DFT with DH, B97 family of functionals     
  Stefan Grimme          : VdW corrections, initial TS optimization, DFT functionals, gCP, sTDA/sTD-DF 
  Waldemar Hujo          : DFT-NL                                        
  H. Jonsson             : NEB                                           
  Holger Kruse           : gCP                                           
  Marcel Mueller         : wB97X-3c, vDZP basis set                      
  Hagen Neugebauer       : wr2SCAN                                       
  Tobias Risthaus        : range-separated hybrid DFT                    
  Lukas Wittmann         : regularized MP2, r2SCAN double-hybrids, wr2SCAN        
                                                                         
We gratefully acknowledge several colleagues who have allowed us to      
interface, adapt or use parts of their codes:                            
  Ed Valeev, F. Pavosevic, A. Kumar             : LibInt (2-el integral package), F12 methods 
  Garnet Chan, S. Sharma, J. Yang, R. Olivares  : DMRG                   
  Ulf Ekstrom                                   : XCFun DFT Library      
  Mihaly Kallay                                 : mrcc  (arbitrary order and MRCC methods)
  Frank Weinhold                                : gennbo (NPA and NBO analysis)           
  Simon Mueller                                 : openCOSMO-RS                            
  Christopher J. Cramer and Donald G. Truhlar   : smd solvation model                     
  S Lehtola, MJT Oliveira, MAL Marques          : LibXC Library                           
  Liviu Ungur et al                             : ANISO software                          


 Your calculation uses the libint2 library for the computation of 2-el integrals
 For citations please refer to: http://libint.valeyev.net

 Your ORCA version has been built with support for libXC version: 6.2.2
 For citations please refer to: https://libxc.gitlab.io

 This ORCA versions uses:
   CBLAS   interface :  Fast vector & matrix operations
   LAPACKE interface :  Fast linear algebra routines
   SCALAPACK package :  Parallel linear algebra routines
   Shared memory     :  Shared parallel matrices
   BLAS/LAPACK       :  OpenBLAS 0.3.27  USE64BITINT DYNAMIC_ARCH NO_AFFINITY Zen SINGLE_THREADED
        Core in use  :  Zen
   Copyright (c) 2011-2014, The OpenBLAS Project


Your calculation utilizes the geometrical counterpoise correction gCP
Please cite in your paper:
H.Kruse, S. Grimme J.Chem.Phys., 136, (2012), 154101 
   

Your calculation utilizes the atom-pairwise dispersion correction
based on EEQ partial charges (D4)


================================================================================

----- Orbital basis set information -----
Your calculation utilizes the basis: def2-SV(P)
   F. Weigend and R. Ahlrichs, Phys. Chem. Chem. Phys. 7, 3297 (2005).

----- AuxJ basis set information -----
Your calculation utilizes the auxiliary basis: def2/J
   F. Weigend, Phys. Chem. Chem. Phys. 8, 1057 (2006).

================================================================================
                                        WARNINGS
                       Please study these warnings very carefully!
================================================================================


================================================================================
                                       INPUT FILE
================================================================================
NAME = sp.inp
|  1> ! pbe def2-sv(p) def2/J RI DEFGRID1 loosescf d4 GCP(DFT/SV(P)) printgap
|  2> %output
|  3>     printlevel normal
|  4> end
|  5> * xyz 0 1
|  6> C 1.2750296871 -0.2515103903 0.0157771419
|  7> C -0.0146078523 0.5611373797 -0.0327513531
|  8> O -1.1686540953 -0.2414999151 0.0563018373
|  9> H 1.3034339818 -0.8524851085 0.9215332576
| 10> H 1.3402742564 -0.9161467121 -0.8447996049
| 11> H 2.1344358883 0.4130063342 0.0066825277
| 12> H -0.0399840886 1.1639701613 -0.9532062435
| 13> H -0.0683983112 1.2379837089 0.8229120419
| 14> H -1.1388185046 -0.9025403378 -0.6445778426
| 15> *
| 16> 
| 17>                          ****END OF INPUT****
================================================================================

                       ****************************
                       * Single Point Calculation *
                       ****************************

---------------------------------
CARTESIAN COORDINATES (ANGSTROEM)
---------------------------------
  C      1.275030   -0.251510    0.015777
  C     -0.014608    0.561137   -0.032751
  O     -1.168654   -0.241500    0.056302
  H      1.303434   -0.852485    0.921533
  H      1.340274   -0.916147   -0.844800
  H      2.134436    0.413006    0.006683
  H     -0.039984    1.163970   -0.953206
  H     -0.068398    1.237984    0.822912
  H     -1.138819   -0.902540   -0.644578

----------------------------
CARTESIAN COORDINATES (A.U.)
----------------------------
  NO LB      ZA    FRAG     MASS         X           Y           Z
   0 C     6.0000    0    12.011    2.409457   -0.475286    0.029814
   1 C     6.0000    0    12.011   -0.027605    1.060396   -0.061891
   2 O     8.0000    0    15.999   -2.208436   -0.456369    0.106395
   3 H     1.0000    0     1.008    2.463133   -1.610963    1.741445
   4 H     1.0000    0     1.008    2.532751   -1.731266   -1.596440
   5 H     1.0000    0     1.008    4.033499    0.780469    0.012628
   6 H     1.0000    0     1.008   -0.075559    2.199585   -1.801299
   7 H     1.0000    0     1.008   -0.129254    2.339450    1.555078
   8 H     1.0000    0     1.008   -2.152055   -1.705554   -1.218076

--------------------------------
INTERNAL COORDINATES (ANGSTROEM)
--------------------------------
 C      0   0   0     0.000000000000     0.00000000     0.00000000
 C      1   0   0     1.525095536661     0.00000000     0.00000000
 O      2   1   0     1.408538188587   112.77901577     0.00000000
 H      1   2   3     1.087369098789   110.06548548   303.58271211
 H      1   2   3     1.089307408958   110.52562174    63.56395222
 H      1   2   3     1.086390449060   110.04369957   183.52574757
 H      2   1   3     1.100585535613   109.75335807   236.65678940
 H      2   1   3     1.092325140406   110.29719940   117.36782226
 H      3   2   1     0.963896741675   108.63037379   304.28464625

---------------------------
INTERNAL COORDINATES (A.U.)
---------------------------
 C      0   0   0     0.000000000000     0.00000000     0.00000000
 C      1   0   0     2.882012892355     0.00000000     0.00000000
 O      2   1   0     2.661751425598   112.77901577     0.00000000
 H      1   2   3     2.054829803200   110.06548548   303.58271211
 H      1   2   3     2.058492678583   110.52562174    63.56395222
 H      1   2   3     2.052980423231   110.04369957   183.52574757
 H      2   1   3     2.079805249265   109.75335807   236.65678940
 H      2   1   3     2.064195364565   110.29719940   117.36782226
 H      3   2   1     1.821500863146   108.63037379   304.28464625

---------------------
BASIS SET INFORMATION
---------------------
There are 3 groups of distinct atoms

 Group   1 Type C   : 7s4p1d contracted to 3s2p1d pattern {511/31/1}
 Group   2 Type O   : 7s4p1d contracted to 3s2p1d pattern {511/31/1}
 Group   3 Type H   : 4s contracted to 2s pattern {31}

Atom   0C    basis set group =>   1
Atom   1C    basis set group =>   1
Atom   2O    basis set group =>   2
Atom   3H    basis set group =>   3
Atom   4H    basis set group =>   3
Atom   5H    basis set group =>   3
Atom   6H    basis set group =>   3
Atom   7H    basis set group =>   3
Atom   8H    basis set group =>   3
---------------------------------
AUXILIARY/J BASIS SET INFORMATION
---------------------------------
There are 3 groups of distinct atoms

 Group   1 Type C   : 12s5p4d2f1g contracted to 6s4p3d1f1g pattern {711111/2111/211/2/1}
 Group   2 Type O   : 12s5p4d2f1g contracted to 6s4p3d1f1g pattern {711111/2111/211/2/1}
 Group   3 Type H   : 5s2p1d contracted to 3s1p1d pattern {311/2/1}

Atom   0C    basis set group =>   1
Atom   1C    basis set group =>   1
Atom   2O    basis set group =>   2
Atom   3H    basis set group =>   3
Atom   4H    basis set group =>   3
Atom   5H    basis set group =>   3
Atom   6H    basis set group =>   3
Atom   7H    basis set group =>   3
Atom   8H    basis set group =>   3
------------------------------------------------------------------------------
                             ORCA STARTUP CALCULATIONS
                           -- RI-GTO INTEGRALS CHOSEN --
------------------------------------------------------------------------------
------------------------------------------------------------------------------
                   ___                                                        
                  /   \      - P O W E R E D   B Y -                         
                 /     \                                                     
                 |  |  |   _    _      __       _____    __    __             
                 |  |  |  | |  | |    /  \     |  _  \  |  |  /  |          
                  \  \/   | |  | |   /    \    | | | |  |  | /  /          
                 / \  \   | |__| |  /  /\  \   | |_| |  |  |/  /          
                |  |  |   |  __  | /  /__\  \  |    /   |      \           
                |  |  |   | |  | | |   __   |  |    \   |  |\   \          
                \     /   | |  | | |  |  |  |  | |\  \  |  | \   \       
                 \___/    |_|  |_| |__|  |__|  |_| \__\ |__|  \__/        
                                                                              
                      - O R C A' S   B I G   F R I E N D -                    
                                      &                                       
                       - I N T E G R A L  F E E D E R -                       
                                                                              
 v1 FN, 2020, v2 2021, v3 2022-2024                                           
------------------------------------------------------------------------------


----------------------
SHARK INTEGRAL PACKAGE
----------------------

Number of atoms                             ...      9
Number of basis functions                   ...     54
Number of shells                            ...     30
Maximum angular momentum                    ...      2
Integral batch strategy                     ... SHARK/LIBINT Hybrid
RI-J (if used) integral strategy            ... SPLIT-RIJ (Revised 2003 algorithm where possible)
Printlevel                                  ...      1
Contraction scheme used                     ... SEGMENTED contraction
Prescreening option                         ... SCHWARTZ
   Thresh                                   ... 1.000e-09
   Tcut                                     ... 1.000e-10
   Tpresel                                  ... 1.000e-10 
Coulomb Range Separation                    ... NOT USED
Exchange Range Separation                   ... NOT USED
Multipole approximations                    ... NOT USED
Finite Nucleus Model                        ... NOT USED
CABS basis                                  ... NOT available
Auxiliary Coulomb fitting basis             ... AVAILABLE
   # of basis functions in Aux-J            ...    213
   # of shells in Aux-J                     ...     75
   Maximum angular momentum in Aux-J        ...      4
Auxiliary J/K fitting basis                 ... NOT available
Auxiliary Correlation fitting basis         ... NOT available
Auxiliary 'external' fitting basis          ... NOT available

Checking pre-screening integrals            ... done (  0.0 sec) Dimension = 30
Check shell pair data                       ... done (  0.0 sec)
Shell pair information
Shell pair cut-off parameter TPreSel        ...   1.0e-10
Total number of shell pairs                 ...       465
Shell pairs after pre-screening             ...       464
Total number of primitive shell pairs       ...      1887
Primitive shell pairs kept                  ...      1553
          la=0 lb=0:    230 shell pairs
          la=1 lb=0:    126 shell pairs
          la=1 lb=1:     21 shell pairs
          la=2 lb=0:     63 shell pairs
          la=2 lb=1:     18 shell pairs
          la=2 lb=2:      6 shell pairs

Calculating one electron integrals          ... done (  0.0 sec)
Calculating RI/J V-Matrix + Cholesky decomp.... done (  0.0 sec)
Calculating Nuclear repulsion               ... done (  0.0 sec) ENN=     81.955335641307 Eh

Diagonalization of the overlap matrix:
Smallest eigenvalue                        ... 3.947e-03
Time for diagonalization                   ...    0.000 sec
Threshold for overlap eigenvalues          ... 1.000e-07
Number of eigenvalues below threshold      ... 0
Time for construction of square roots      ...    0.000 sec
Total time needed                          ...    0.001 sec

-------------------
DFT GRID GENERATION
-------------------

General Integration Accuracy     IntAcc      ... 4.159
Radial Grid Type                 RadialGrid  ... OptM3 with GC (2021)
Angular Grid (max. ang.)         AngularGrid ... 3 (Lebedev-194)
Angular grid pruning method      GridPruning ... 4 (adaptive)
Weight generation scheme         WeightScheme... mBecke (2022)
Basis function cutoff            BFCut       ... 1.0000e-10
Integration weight cutoff        WCut        ... 1.0000e-14
Partially contracted basis set               ... off
Rotationally invariant grid construction     ... off
Angular grids for H and He will be reduced by one unit

Total number of grid points                  ...    18569
Total number of batches                      ...      294
Average number of points per batch           ...       63
Average number of grid points per atom       ...     2063
Initializing property integral containers    ... done (  0.0 sec)

SHARK setup successfully completed in   0.1 seconds

Maximum memory used throughout the entire STARTUP-calculation: 10.0 MB
-------------------------------------------------------------------------------
                                 ORCA GUESS
                   Start orbitals & Density for SCF / CASSCF
-------------------------------------------------------------------------------

------------
SCF SETTINGS
------------
Hamiltonian:
 Density Functional     Method          .... DFT(GTOs)
 Exchange Functional    Exchange        .... PBE
   PBE kappa parameter   XKappa         ....  0.804000
   PBE mue parameter    XMuePBE         ....  0.219520
 Correlation Functional Correlation     .... PBE
   PBE beta parameter  CBetaPBE         ....  0.066725
 LDA part of GGA corr.  LDAOpt          .... PW91-LDA
 Gradients option       PostSCFGGA      .... off
   NL short-range parameter             ....  6.400000
 RI-approximation to the Coulomb term is turned on
   Number of AuxJ basis functions       .... 213


General Settings:
 Integral files         IntName         .... sp
 Hartree-Fock type      HFTyp           .... RHF
 Total Charge           Charge          ....    0
 Multiplicity           Mult            ....    1
 Number of Electrons    NEL             ....   26
 Basis Dimension        Dim             ....   54
 Nuclear Repulsion      ENuc            ....     81.9553356413 Eh

Convergence Acceleration:
 AO-DIIS                CNVDIIS         .... on
   Start iteration      DIISMaxIt       ....    12
   Startup error        DIISStart       ....  0.200000
   # of expansion vecs  DIISMaxEq       ....     5
   Bias factor          DIISBfac        ....   1.050
   Max. coefficient     DIISMaxC        ....  10.000
 MO-DIIS                CNVKDIIS        .... off
 Trust-Rad. Augm. Hess. CNVTRAH         .... auto
   Auto Start mean grad. ratio tolernc. ....  1.125000
   Auto Start start iteration           ....    50
   Auto Start num. interpolation iter.  ....    10
   Max. Number of Micro iterations      ....    24
   Max. Number of Macro iterations      .... Maxiter - #DIIS iter
   Number of Davidson start vectors     ....     2
   Converg. threshold    (grad. norm)   ....   1.000e-04
   Grad. Scal. Fac. for Micro threshold ....   0.100
   Minimum threshold for Micro iter.    ....   1.000e-02
   NR start threshold (gradient norm)   ....   1.000e-04
   Initial trust radius                 ....   0.400
   Minimum AH scaling param. (alpha)    ....   1.000
   Maximum AH scaling param. (alpha)    .... 1000.000
   Quad. conv. algorithm                .... NR
   White noise on init. David. guess    .... on
   Maximum white noise                  ....   0.010
   Pseudo random numbers                .... off
   Inactive MOs                         .... canonical
   Orbital update algorithm             .... Taylor
   Preconditioner                       .... Diag
   Full preconditioner red. dimension   ....   250
 SOSCF                  CNVSOSCF        .... on
   Start iteration      SOSCFMaxIt      ....   150
   Startup grad/error   SOSCFStart      ....  0.003300
   Hessian update       SOSCFHessUp     .... L-BFGS
 Level Shifting         CNVShift        .... on
   Level shift para.    LevelShift      ....    0.2500
   Turn off err/grad.   ShiftErr        ....    0.0010
 Zerner damping         CNVZerner       .... off
 Static damping         CNVDamp         .... on
   Fraction old density DampFac         ....    0.7000
   Max. Damping (<1)    DampMax         ....    0.9800
   Min. Damping (>=0)   DampMin         ....    0.0000
   Turn off err/grad.   DampErr         ....    0.1000

SCF Procedure:
 Maximum # iterations   MaxIter         ....   125
 SCF integral mode      SCFMode         .... Direct
   Integral package                     .... SHARK and LIBINT hybrid scheme
 Reset frequency        DirectResetFreq ....    20
 Integral Threshold     Thresh          ....  1.000e-09 Eh
 Primitive CutOff       TCut            ....  1.000e-10 Eh

Convergence Tolerance:
 Convergence Check Mode ConvCheckMode   .... Total+1el-Energy
 Convergence forced     ConvForced      .... 0
 Energy Change          TolE            ....  1.000e-05 Eh
 1-El. energy change                    ....  1.000e-02 Eh
 Orbital Gradient       TolG            ....  1.000e-04
 Orbital Rotation angle TolX            ....  1.000e-04
 DIIS Error             TolErr          ....  5.000e-04

------------------------------
INITIAL GUESS: MODEL POTENTIAL
------------------------------
Loading Hartree-Fock densities                     ... done
Calculating cut-offs                               ... done
Initializing the effective Hamiltonian             ... done
Setting up the integral package (SHARK)            ... done
Starting the Coulomb interaction                   ... done (   0.0 sec)
Making the grid                                    ... done (   0.0 sec)
Mapping shells                                     ... done
Starting the XC term evaluation                    ... done (   0.0 sec)
  promolecular density results
     # of electrons  =     25.997280011
     EX              =    -20.142465692
     EC              =     -0.837427342
     EX+EC           =    -20.979893034
Transforming the Hamiltonian                       ... done (   0.0 sec)
Diagonalizing the Hamiltonian                      ... done (   0.0 sec)
Back transforming the eigenvectors                 ... done (   0.0 sec)
Now organizing SCF variables                       ... done
                      ------------------
                      INITIAL GUESS DONE (   0.1 sec)
                      ------------------
             **** ENERGY FILE WAS UPDATED (sp.en.tmp) ****
Finished Guess after   0.1 sec
Maximum memory used throughout the entire GUESS-calculation: 7.8 MB

-------------------------------------------------------------------------------------------
                                      ORCA LEAN-SCF
                              memory conserving SCF solver
-------------------------------------------------------------------------------------------

----------------------------------------D-I-I-S--------------------------------------------
Iteration    Energy (Eh)           Delta-E    RMSDP     MaxDP     DIISErr   Damp  Time(sec)
-------------------------------------------------------------------------------------------
               ***  Starting incremental Fock matrix formation  ***
    1    -154.5864484215970833     0.00e+00  7.86e-03  8.20e-02  2.31e-01  0.700   0.0
    2    -154.6430167785759409    -5.66e-02  5.30e-03  4.77e-02  8.48e-02  0.700   0.0
                               ***Turning on AO-DIIS***
    3    -154.6619865573127015    -1.90e-02  2.06e-03  1.35e-02  2.38e-02  0.700   0.0
    4    -154.6735611008629689    -1.16e-02  2.89e-03  2.06e-02  1.07e-02  0.000   0.0
    5    -154.7001518922063212    -2.66e-02  8.40e-04  5.72e-03  7.00e-03  0.000   0.0
                              *** Initializing SOSCF ***
---------------------------------------S-O-S-C-F--------------------------------------
Iteration    Energy (Eh)           Delta-E    RMSDP     MaxDP     MaxGrad    Time(sec)
--------------------------------------------------------------------------------------
    6    -154.7003755249362484    -2.24e-04  3.21e-04  2.18e-03  1.94e-03     0.0
               *** Restarting incremental Fock matrix formation ***
    7    -154.7003944508268773    -1.89e-05  2.53e-04  1.93e-03  2.56e-04     0.0
    8    -154.7003946328752022    -1.82e-07  6.16e-05  7.61e-04  4.99e-04     0.0
                 **** Energy Check signals convergence ****

               *****************************************************
               *                     SUCCESS                       *
               *           SCF CONVERGED AFTER   8 CYCLES          *
               *****************************************************

             **** ENERGY FILE WAS UPDATED (sp.en.tmp) ****

----------------
TOTAL SCF ENERGY
----------------

Total Energy       :       -154.70039463287520 Eh           -4209.61175 eV

Components:
Nuclear Repulsion  :         81.95533564130724 Eh            2230.11806 eV
Electronic Energy  :       -236.65573027418245 Eh           -6439.72981 eV
One Electron Energy:       -371.85236144434572 Eh          -10118.61718 eV
Two Electron Energy:        135.19663117016327 Eh            3678.88737 eV

Virial components:
Potential Energy   :       -308.25856784878408 Eh           -8388.14208 eV
Kinetic Energy     :        153.55817321590885 Eh            4178.53033 eV
Virial Ratio       :          2.00743836288909

DFT components:
N(Alpha)           :       12.999927783036 electrons
N(Beta)            :       12.999927783036 electrons
N(Total)           :       25.999855566071 electrons
E(X)               :      -20.631425852665 Eh       
E(C)               :       -0.850940640298 Eh       
E(XC)              :      -21.482366492963 Eh       

---------------
SCF CONVERGENCE
---------------

  Last Energy change         ...    1.8205e-07  Tolerance :   1.0000e-05
  Last MAX-Density change    ...    7.6057e-04  Tolerance :   1.0000e-03
  Last RMS-Density change    ...    6.1633e-05  Tolerance :   1.0000e-04
  Last DIIS Error            ...    1.9401e-03  Tolerance :   5.0000e-04
  Last Orbital Gradient      ...    4.9945e-04  Tolerance :   1.0000e-04
  Last Orbital Rotation      ...    2.0148e-04  Tolerance :   1.0000e-04


----------------
ORBITAL ENERGIES
----------------

  NO   OCC          E(Eh)            E(eV) 
   0   2.0000     -18.736979      -509.8591 
   1   2.0000      -9.928229      -270.1609 
   2   2.0000      -9.878512      -268.8080 
   3   2.0000      -0.915883       -24.9224 
   4   2.0000      -0.668232       -18.1835 
   5   2.0000      -0.557963       -15.1830 
   6   2.0000      -0.446812       -12.1584 
   7   2.0000      -0.404040       -10.9945 
   8   2.0000      -0.381077       -10.3696 
   9   2.0000      -0.334450        -9.1009 
  10   2.0000      -0.324906        -8.8411 
  11   2.0000      -0.269938        -7.3454 
  12   2.0000      -0.210414        -5.7257 
  13   0.0000       0.029359         0.7989 
  14   0.0000       0.069552         1.8926 
  15   0.0000       0.089338         2.4310 
  16   0.0000       0.098898         2.6912 
  17   0.0000       0.114950         3.1280 
  18   0.0000       0.136119         3.7040 
  19   0.0000       0.176590         4.8053 
  20   0.0000       0.203193         5.5292 
  21   0.0000       0.398707        10.8494 
  22   0.0000       0.418711        11.3937 
  23   0.0000       0.440974        11.9995 
*Only the first 10 virtual orbitals were printed.

                    ********************************
                    * MULLIKEN POPULATION ANALYSIS *
                    ********************************

-----------------------
MULLIKEN ATOMIC CHARGES
-----------------------
   0 C :   -0.317204
   1 C :   -0.009867
   2 O :   -0.438374
   3 H :    0.112727
   4 H :    0.094990
   5 H :    0.101701
   6 H :    0.074038
   7 H :    0.092685
   8 H :    0.289303
Sum of atomic charges:   -0.0000000

--------------------------------
MULLIKEN REDUCED ORBITAL CHARGES
--------------------------------
  0 C s       :     3.109454  s :     3.109454
      pz      :     1.074673  p :     3.179722
      px      :     1.043943
      py      :     1.061106
      dz2     :     0.005243  d :     0.028028
      dxz     :     0.002110
      dyz     :     0.009818
      dx2y2   :     0.003469
      dxy     :     0.007388

  1 C s       :     3.065922  s :     3.065922
      pz      :     1.076537  p :     2.878847
      px      :     0.837782
      py      :     0.964529
      dz2     :     0.008906  d :     0.065097
      dxz     :     0.008112
      dyz     :     0.015463
      dx2y2   :     0.016303
      dxy     :     0.016313

  2 O s       :     3.789135  s :     3.789135
      pz      :     1.612567  p :     4.633504
      px      :     1.565677
      py      :     1.455260
      dz2     :     0.002291  d :     0.015735
      dxz     :     0.002150
      dyz     :     0.005728
      dx2y2   :     0.003133
      dxy     :     0.002433

  3 H s       :     0.887273  s :     0.887273

  4 H s       :     0.905010  s :     0.905010

  5 H s       :     0.898299  s :     0.898299

  6 H s       :     0.925962  s :     0.925962

  7 H s       :     0.907315  s :     0.907315

  8 H s       :     0.710697  s :     0.710697


------------------------
MULLIKEN OVERLAP CHARGES
------------------------
B(  0-C ,  1-C ) :   0.8907 B(  0-C ,  2-O ) :  -0.1182 B(  0-C ,  3-H ) :   0.7234 
B(  0-C ,  4-H ) :   0.7430 B(  0-C ,  5-H ) :   0.6442 B(  0-C ,  6-H ) :  -0.0981 
B(  1-C ,  2-O ) :   0.7025 B(  1-C ,  6-H ) :   0.7221 B(  1-C ,  7-H ) :   0.7272 
B(  1-C ,  8-H ) :  -0.0949 B(  2-O ,  6-H ) :  -0.0660 B(  2-O ,  7-H ) :  -0.0700 
B(  2-O ,  8-H ) :   0.5304 B(  3-H ,  4-H ) :  -0.0657 B(  6-H ,  7-H ) :  -0.0903 



                     *******************************
                     * LOEWDIN POPULATION ANALYSIS *
                     *******************************

----------------------
LOEWDIN ATOMIC CHARGES
----------------------
   0 C :   -0.368682
   1 C :   -0.130262
   2 O :   -0.344872
   3 H :    0.122778
   4 H :    0.113506
   5 H :    0.124504
   6 H :    0.091999
   7 H :    0.112303
   8 H :    0.278726

-------------------------------
LOEWDIN REDUCED ORBITAL CHARGES
-------------------------------
  0 C s       :     2.960486  s :     2.960486
      pz      :     1.127880  p :     3.339113
      px      :     1.094055
      py      :     1.117178
      dz2     :     0.013882  d :     0.069083
      dxz     :     0.003674
      dyz     :     0.023242
      dx2y2   :     0.008677
      dxy     :     0.019607

  1 C s       :     2.914286  s :     2.914286
      pz      :     1.120897  p :     3.070608
      px      :     0.930126
      py      :     1.019585
      dz2     :     0.020871  d :     0.145368
      dxz     :     0.014294
      dyz     :     0.036274
      dx2y2   :     0.034423
      dxy     :     0.039506

  2 O s       :     3.544632  s :     3.544632
      pz      :     1.658368  p :     4.773039
      px      :     1.602804
      py      :     1.511867
      dz2     :     0.003858  d :     0.027201
      dxz     :     0.002780
      dyz     :     0.009817
      dx2y2   :     0.005581
      dxy     :     0.005165

  3 H s       :     0.877222  s :     0.877222

  4 H s       :     0.886494  s :     0.886494

  5 H s       :     0.875496  s :     0.875496

  6 H s       :     0.908001  s :     0.908001

  7 H s       :     0.887697  s :     0.887697

  8 H s       :     0.721274  s :     0.721274


---------------------------------
LOEWDIN BOND ORDERS (THRESH 0.050000)
---------------------------------
B(  0-C ,  1-C ) :   1.1462 B(  0-C ,  2-O ) :   0.0794 B(  0-C ,  3-H ) :   0.9387 
B(  0-C ,  4-H ) :   0.9386 B(  0-C ,  5-H ) :   0.9310 B(  1-C ,  2-O ) :   1.2429 
B(  1-C ,  6-H ) :   0.9156 B(  1-C ,  7-H ) :   0.9184 B(  2-O ,  8-H ) :   0.8936 


------------------------------------------
LOEWDIN REDUCED ORBITAL POPULATIONS PER MO
-------------------------------------------
THRESHOLD FOR PRINTING IS 0.1%%
                      0         1         2         3         4         5   
                 -18.73698  -9.92823  -9.87851  -0.91588  -0.66823  -0.55796
                   2.00000   2.00000   2.00000   2.00000   2.00000   2.00000
                  --------  --------  --------  --------  --------  --------
 0 C  s               0.0       0.0      99.7       0.8      33.0      12.1
 0 C  px              0.0       0.1       0.0       1.2       0.7       3.9
 0 C  py              0.0       0.0       0.0       0.1       0.7       2.8
 0 C  dxy             0.0       0.0       0.0       0.0       0.0       0.1
 1 C  s               0.0      99.6       0.0      10.6      17.4      14.7
 1 C  pz              0.0       0.0       0.0       0.0       0.0       0.3
 1 C  px              0.0       0.0       0.1       5.2       8.0       3.6
 1 C  py              0.0       0.0       0.0       3.5       0.0       5.8
 1 C  dz2             0.0       0.0       0.0       0.2       0.0       0.1
 1 C  dxy             0.0       0.0       0.0       0.6       0.3       0.1
 2 O  s              99.9       0.0       0.0      58.8       4.3       0.8
 2 O  pz              0.0       0.0       0.0       1.5       0.6       2.5
 2 O  px              0.0       0.1       0.0       2.1       1.9       3.8
 2 O  py              0.0       0.0       0.0       0.0       2.0      14.2
 2 O  dxy             0.0       0.0       0.0       0.0       0.0       0.1
 3 H  s               0.0       0.0       0.1       0.2       6.7       4.8
 4 H  s               0.0       0.0       0.1       0.1       6.9       5.9
 5 H  s               0.0       0.0       0.1       0.1       7.4       4.6
 6 H  s               0.0       0.1       0.0       1.2       3.7       5.3
 7 H  s               0.0       0.1       0.0       1.3       4.0       7.9
 8 H  s               0.0       0.0       0.0      12.3       2.3       6.2

                      6         7         8         9        10        11   
                  -0.44681  -0.40404  -0.38108  -0.33445  -0.32491  -0.26994
                   2.00000   2.00000   2.00000   2.00000   2.00000   2.00000
                  --------  --------  --------  --------  --------  --------
 0 C  s               0.7       0.0       0.2       0.1       0.0       0.4
 0 C  pz              4.8      15.1       3.9       7.7      23.6       1.2
 0 C  px              0.9       1.5      33.7       0.0       2.1       6.1
 0 C  py              5.6       8.9       0.7      31.4       4.1       0.4
 0 C  dz2             0.1       0.1       0.0       0.5       0.0       0.0
 0 C  dyz             0.0       0.1       0.0       0.1       0.7       0.2
 0 C  dx2y2           0.0       0.0       0.0       0.3       0.1       0.0
 0 C  dxy             0.1       0.0       0.4       0.0       0.1       0.1
 1 C  s               2.1       0.1       0.8       0.1       0.1       0.1
 1 C  pz             15.9      18.1       2.4       0.5       8.8       8.1
 1 C  px              6.9       3.5       8.0       4.0       1.1       5.1
 1 C  py              6.5       8.4      10.4      11.6       2.7       0.6
 1 C  dz2             0.2       0.1       0.0       0.3       0.0       0.0
 1 C  dxz             0.0       0.0       0.0       0.1       0.3       0.1
 1 C  dyz             0.0       0.1       0.0       0.0       0.3       0.9
 1 C  dx2y2           0.1       0.0       0.2       0.3       0.1       0.2
 1 C  dxy             0.1       0.0       0.1       0.1       0.1       0.2
 2 O  s               1.7       0.9       2.4       0.4       0.9       7.0
 2 O  pz             15.1       0.8       0.2       3.8       8.6      20.7
 2 O  px              2.7       8.6       6.8       3.3       6.7      25.7
 2 O  py             10.4       6.1       9.6       0.1       2.4       0.8
 2 O  dyz             0.1       0.1       0.0       0.0       0.0       0.1
 3 H  s               5.0       1.0       0.9      17.6       5.7       1.3
 4 H  s               0.1       9.4       1.5       1.1      17.4       1.7
 5 H  s               0.0       3.1      14.0       8.1       3.9       1.7
 6 H  s              13.1       1.1       2.3       5.2       1.4       4.4
 7 H  s               0.0      11.2       0.0       2.4       8.5       9.0
 8 H  s               7.5       1.7       1.1       0.8       0.2       4.0

                     12        13        14        15        16        17   
                  -0.21041   0.02936   0.06955   0.08934   0.09890   0.11495
                   2.00000   0.00000   0.00000   0.00000   0.00000   0.00000
                  --------  --------  --------  --------  --------  --------
 0 C  s               1.0       6.7      10.4       9.9       0.2       0.9
 0 C  pz              0.0       0.6       1.1       0.7       9.0       0.6
 0 C  px              4.4       1.7       2.5       0.7       0.0       7.7
 0 C  py              1.1       1.4       0.2       4.2       0.1      13.7
 0 C  dz2             0.0       0.0       0.1       0.0       0.0       1.2
 0 C  dxz             0.0       0.0       0.0       0.0       0.4       0.0
 0 C  dyz             0.0       0.0       0.1       0.0       0.8       0.0
 0 C  dx2y2           0.0       0.0       0.0       0.2       0.0       0.1
 0 C  dxy             0.0       0.4       0.0       0.8       0.0       0.3
 1 C  s               0.0       3.4       5.0       6.8       2.0       3.8
 1 C  pz              1.9       0.5       0.9       0.1      13.4       0.1
 1 C  px              1.0       1.4       2.3       3.5       1.1       0.3
 1 C  py              1.6       3.3       1.9       6.1       0.5       0.6
 1 C  dz2             0.2       0.3       0.0       0.1       0.0       0.1
 1 C  dxz             0.2       0.0       0.0       0.0       0.4       0.0
 1 C  dyz             0.6       0.0       0.1       0.0       0.9       0.0
 1 C  dx2y2           0.8       0.0       0.0       0.2       0.0       0.6
 1 C  dxy             0.3       0.1       0.6       1.1       0.2       0.2
 2 O  s               0.0       6.3       4.3       0.9       1.5       0.4
 2 O  pz             29.2       3.2       3.4       0.0       1.1       0.0
 2 O  px             18.5       0.5       0.1       0.4       0.4       1.2
 2 O  py             29.9       3.5       0.3       0.4       0.0       0.1
 2 O  dxz             0.0       0.0       0.0       0.0       0.1       0.0
 2 O  dxy             0.0       0.0       0.1       0.0       0.0       0.0
 3 H  s               0.6       2.8      10.9       8.9      15.4       8.2
 4 H  s               0.1      11.0       1.3      24.4       9.1       1.7
 5 H  s               0.8       5.3      14.4       1.0       0.3      48.5
 6 H  s               7.5       7.9       2.2      10.4      31.2       2.8
 7 H  s               0.2       2.5      14.3      19.3       7.0       6.6
 8 H  s               0.0      37.0      23.3       0.0       4.5       0.1

                     18        19        20        21        22        23   
                   0.13612   0.17659   0.20319   0.39871   0.41871   0.44097
                   0.00000   0.00000   0.00000   0.00000   0.00000   0.00000
                  --------  --------  --------  --------  --------  --------
 0 C  s               0.0       1.3       2.0       0.1       2.6       1.8
 0 C  pz             15.8       0.0       0.0      28.0       0.4       0.1
 0 C  px              0.1       5.8      22.8       0.0       6.3      24.9
 0 C  py              0.0       0.4      10.5       0.7      31.5       6.0
 0 C  dz2             0.0       0.1       1.7       0.4       3.9       2.5
 0 C  dxz             0.6       0.0       0.0       0.1       0.0       0.0
 0 C  dyz             0.7       0.0       0.0       9.3       0.4       0.0
 0 C  dx2y2           0.0       2.6       0.6       0.0       0.3       0.0
 0 C  dxy             0.0       0.4       5.0       0.0       0.5       3.3
 1 C  s               0.0       9.6       1.9       0.0       0.9       2.0
 1 C  pz             12.0       0.7       0.1       5.4       0.3       0.0
 1 C  px              0.0      12.0      27.5       0.5      11.2      15.3
 1 C  py              0.4      23.6       5.4       0.8      22.2       6.8
 1 C  dz2             0.0       4.8       0.8       0.0       5.0       0.0
 1 C  dxz             0.4       0.1       0.1       1.1       0.0       0.1
 1 C  dyz             0.1       0.0       0.0       4.4       0.0       0.2
 1 C  dx2y2           0.0       0.5       0.1       0.0       0.0       1.7
 1 C  dxy             0.0       2.1       4.5       0.0       1.6       0.8
 2 O  s               0.1       3.3       0.2       0.1       0.1       1.0
 2 O  pz              0.6       0.6       0.3       0.6       0.0       1.3
 2 O  px              0.1      10.3       0.1       0.1       0.4       4.8
 2 O  py              0.3       8.0       4.3       0.1       0.4       2.1
 2 O  dz2             0.0       0.1       0.1       0.0       0.0       0.7
 2 O  dxz             0.2       0.0       0.0       0.1       0.0       0.0
 2 O  dyz             0.1       0.0       0.0       0.0       0.0       0.7
 2 O  dx2y2           0.0       0.3       0.3       0.0       0.1       0.7
 2 O  dxy             0.0       0.7       0.0       0.0       0.0       0.1
 3 H  s              20.6       1.9       1.1      17.9       1.2       0.7
 4 H  s              17.4       1.8       2.8      13.0       6.0       0.4
 5 H  s               0.2       0.6       1.9       0.0       0.2      11.8
 6 H  s              12.2       1.4       0.7       7.3       3.6       0.0
 7 H  s              17.7       1.6       1.3       9.7       0.6       1.2
 8 H  s               0.4       5.3       3.7       0.2       0.2       8.9

                     24        25        26        27        28        29   
                   0.46268   0.54360   0.56622   0.60813   0.63014   0.65438
                   0.00000   0.00000   0.00000   0.00000   0.00000   0.00000
                  --------  --------  --------  --------  --------  --------
 0 C  s               0.1       0.2       8.8       6.1      13.8      25.1
 0 C  pz              0.2      15.9       5.3       9.9       1.9       0.1
 0 C  px              4.0       0.1      18.4       1.1       3.9      24.2
 0 C  py              6.6       2.2       5.1       0.5       5.6       0.4
 0 C  dz2             1.8       0.2       0.1       0.0       0.8       0.1
 0 C  dxz             0.0       1.7       0.5       1.2       0.1       0.0
 0 C  dyz             0.0       1.1       0.1       0.0       0.1       0.0
 0 C  dx2y2           0.4       0.0       0.0       0.1       0.2       0.0
 0 C  dxy             2.2       0.1       0.4       0.0       0.0       0.7
 1 C  s              14.2       0.2       2.6       1.3      26.8       9.7
 1 C  pz              0.1      12.3       4.2      33.2       4.2       0.5
 1 C  px             19.5       8.3      28.7       0.2       0.5       0.8
 1 C  py             17.4       1.3       4.9       5.6      12.0       5.8
 1 C  dz2             0.8       0.1       0.1       0.0       0.3       0.1
 1 C  dxz             0.0       0.8       0.0       0.1       0.0       0.0
 1 C  dyz             0.0       5.8       0.6       0.1       0.1       0.0
 1 C  dx2y2           0.4       0.0       0.0       0.1       0.2       0.1
 1 C  dxy             0.0       0.1       0.2       0.0       0.0       0.0
 2 O  s               0.2       0.9       1.2       0.3       1.0       0.4
 2 O  pz              0.5       1.8       1.0       7.9       0.1       0.1
 2 O  px              2.3       2.0       0.3       3.4       0.4       0.1
 2 O  py              3.6       2.5       0.2       1.0       0.0       0.1
 2 O  dz2             0.7       0.0       0.0       0.1       0.0       0.0
 2 O  dxz             0.0       0.1       0.0       0.1       0.0       0.0
 2 O  dyz             0.1       2.6       0.0       1.1       0.1       0.0
 2 O  dx2y2           0.0       0.1       0.0       0.2       0.0       0.0
 2 O  dxy             2.2       0.2       0.1       0.0       0.0       0.1
 3 H  s               1.9       0.0       3.8       4.9       1.1       2.0
 4 H  s               2.6       1.3       3.6       0.4       7.6       3.5
 5 H  s              10.5       0.1       0.6       0.8       0.6      22.0
 6 H  s               4.3      10.0       2.4       2.1       3.1       2.6
 7 H  s               2.5       6.2       6.6       0.8      13.9       1.6
 8 H  s               0.9      21.9       0.0      17.4       1.4       0.0

                     30        31        32        33        34        35   
                   0.66444   0.67538   0.68113   0.69758   0.86256   0.97626
                   0.00000   0.00000   0.00000   0.00000   0.00000   0.00000
                  --------  --------  --------  --------  --------  --------
 0 C  s               0.5       1.3       1.1      14.9      33.1       0.8
 0 C  pz              3.2      14.2      28.3       0.7       0.0       0.8
 0 C  px              5.2       1.3       1.7       0.3       0.9       0.1
 0 C  py              8.7      16.3      13.8       6.1       1.8       0.1
 0 C  dz2             0.0       0.3       0.5       0.4       0.3       0.0
 0 C  dxz             0.1       0.0       0.1       0.0       0.0       1.9
 0 C  dyz             1.5       0.1       2.0       0.2       0.0       0.0
 0 C  dx2y2           0.1       0.1       0.1       0.0       0.4       0.0
 0 C  dxy             0.0       0.2       0.1       0.0       0.2       0.0
 1 C  s               0.5       0.1       0.3      23.2      17.7       1.2
 1 C  pz             10.2      21.1       8.8       0.3       0.0       3.0
 1 C  px              0.9       0.3       0.0       4.2       1.9       0.5
 1 C  py              4.5       9.0       4.2       2.3       0.2       0.2
 1 C  dz2             0.1       0.0       0.1       0.6       0.0       0.3
 1 C  dxz             0.0       0.0       0.0       0.0       0.0       0.5
 1 C  dyz             2.4       0.3       0.4       0.1       0.0       1.1
 1 C  dxy             0.0       0.0       0.0       0.1       0.9       0.2
 2 O  s               1.3       0.0       0.0       3.5       5.7      15.0
 2 O  pz              3.6       1.3       2.0       0.9       0.7      20.8
 2 O  px              4.2       0.0       0.0       0.6       6.2      19.7
 2 O  py              1.1       0.5       0.1       1.0       4.7      28.2
 2 O  dz2             0.1       0.1       0.0       0.0       0.3       0.2
 2 O  dxz             0.1       0.0       0.1       0.0       0.0       0.4
 2 O  dyz             0.4       0.4       0.0       0.1       0.0       0.0
 2 O  dx2y2           0.1       0.2       0.1       0.0       0.1       0.0
 2 O  dxy             0.1       0.0       0.0       0.1       0.0       0.3
 3 H  s               3.4       0.0      25.6       5.0       5.2       0.3
 4 H  s               5.2       7.5       3.2      13.9       4.5       0.3
 5 H  s               3.6       6.8       4.9       1.9       8.3       0.0
 6 H  s              25.3       1.9       0.6       6.0       3.3       0.0
 7 H  s               1.1       9.7       0.6      12.9       3.4       1.0
 8 H  s              12.4       7.0       1.1       0.7       0.0       3.0

                     36        37        38        39        40        41   
                   1.01902   1.10388   1.41254   1.43302   1.53755   1.76669
                   0.00000   0.00000   0.00000   0.00000   0.00000   0.00000
                  --------  --------  --------  --------  --------  --------
 0 C  s               3.1       2.1       0.1       0.0       0.2       1.9
 0 C  pz              0.2       0.7       0.0       0.1       0.2       0.0
 0 C  px              1.9       0.5       0.7       0.2       0.2       2.5
 0 C  py              0.9       0.5       0.7       0.2       0.2       0.4
 0 C  dz2             0.5       0.4       1.7       4.4       0.7       0.8
 0 C  dxz             0.8       4.6       0.0       7.9      25.1       0.2
 0 C  dyz             0.0       0.0       0.0       0.0       1.4       0.0
 0 C  dx2y2           0.3       1.0       9.8      19.2       6.7      20.8
 0 C  dxy             0.2       0.0       0.8       1.4       0.2      17.0
 1 C  s               1.6       2.5       6.6       3.0       0.2       0.9
 1 C  pz              0.7       0.6       0.0       0.4       2.3       0.0
 1 C  px              0.2       0.9       0.5       0.2       0.5       3.0
 1 C  py              0.7       0.5       0.1       0.2       0.1       0.2
 1 C  dz2             0.2       0.9       2.0       2.8       0.5       0.4
 1 C  dxz             0.4       7.0       0.0      14.2      27.9       0.1
 1 C  dyz             0.2       0.4       0.0       0.4       0.1       0.0
 1 C  dx2y2           0.1       1.8      16.4      17.7       4.0      12.5
 1 C  dxy             0.3       0.2       0.6       0.2       0.0      28.8
 2 O  s               3.7       1.8      37.3      13.6       8.2       0.8
 2 O  pz             28.1      25.4       0.1       0.8       7.9       0.1
 2 O  px             41.7       1.4       3.8       5.4       3.2       1.4
 2 O  py              7.4      39.1       7.4       0.5       1.2       0.2
 2 O  dz2             0.3       0.2       1.2       0.6       0.1       0.0
 2 O  dxz             0.1       0.1       0.0       0.8       5.6       0.1
 2 O  dyz             0.0       3.2       0.2       1.7       0.4       0.4
 2 O  dx2y2           0.5       0.3       0.2       2.0       0.1       5.3
 2 O  dxy             0.0       0.1       8.3       0.6       0.0       0.2
 3 H  s               1.1       1.1       0.2       0.1       0.1       0.3
 4 H  s               1.9       0.0       0.2       0.1       0.3       0.3
 5 H  s               0.4       0.1       0.4       0.1       0.1       1.1
 6 H  s               0.8       0.0       0.2       0.3       0.5       0.1
 7 H  s               0.2       0.8       0.1       0.7       0.1       0.1
 8 H  s               1.2       1.5       0.3       0.1       1.8       0.1

                     42        43        44        45        46        47   
                   1.84306   1.84747   2.04702   2.06471   2.11597   2.16379
                   0.00000   0.00000   0.00000   0.00000   0.00000   0.00000
                  --------  --------  --------  --------  --------  --------
 0 C  s               0.5       0.0       0.0       0.0       0.0       0.0
 0 C  pz              0.1       3.5       0.7       1.1       0.0       0.3
 0 C  px              0.4       0.0       0.3       0.1       0.5       0.0
 0 C  py              2.4       0.0       0.7       0.4       0.6       0.0
 0 C  dz2            30.3       0.4      11.8       4.3      16.5       0.5
 0 C  dxz             0.8      38.7       1.5       1.2       0.0      11.7
 0 C  dyz             0.6       5.6       8.9      27.9       0.0      37.4
 0 C  dx2y2           4.9       0.1       3.1       0.3      15.5       0.0
 0 C  dxy             3.0       0.0       1.2       1.6      35.8       0.0
 1 C  s               0.7       0.0       0.2       0.1       0.0       0.0
 1 C  pz              0.1       5.8       0.5       1.3       0.0       0.2
 1 C  px              0.5       0.0       0.2       0.1       0.4       0.0
 1 C  py              3.7       0.0       0.4       0.3       0.0       0.0
 1 C  dz2            37.1       1.8      18.3       5.9       0.1       0.0
 1 C  dxz             0.4      21.4       0.6       0.1       0.0      15.2
 1 C  dyz             0.8      11.0      11.3      27.2       0.2      24.3
 1 C  dx2y2           4.1       0.2       7.1       3.6       8.3       0.0
 1 C  dxy             0.6       0.1      13.9       6.1       2.7       0.2
 2 O  s               0.9       0.4       1.1       0.9       0.2       0.1
 2 O  pz              0.0       0.2       0.1       0.1       0.0       0.3
 2 O  px              0.3       0.0       1.5       0.7       0.1       0.0
 2 O  py              0.2       0.1       1.5       0.5       0.2       0.1
 2 O  dz2             0.5       0.0       2.1       1.2       0.0       0.2
 2 O  dxz             0.0       3.1       1.9       1.3       0.1       0.0
 2 O  dyz             0.2       0.2       0.0       0.0       0.4       0.3
 2 O  dx2y2           2.1       0.0       0.1       0.0       4.9       0.1
 2 O  dxy             0.0       0.0       2.9       1.6       3.7       0.0
 3 H  s               0.6       1.3       2.5       1.3       1.4       2.9
 4 H  s               1.1       0.8       0.2       3.9       1.2       2.4
 5 H  s               0.5       0.0       1.0       0.7       7.0       0.0
 6 H  s               0.8       3.1       4.3       0.8       0.0       1.5
 7 H  s               1.6       1.8       0.0       5.3       0.2       2.0
 8 H  s               0.0       0.2       0.0       0.0       0.0       0.3

                     48        49        50        51        52        53   
                   2.41344   2.54489   2.74546   2.85706   2.92198   3.25903
                   0.00000   0.00000   0.00000   0.00000   0.00000   0.00000
                  --------  --------  --------  --------  --------  --------
 0 C  s               1.9       0.3       0.0       0.1       0.0       0.0
 0 C  px              3.3       0.3       0.0       0.2       0.0       0.1
 0 C  py              1.1       0.1       0.0       0.2       0.0       0.0
 0 C  dz2            11.4       1.0       0.0       0.1       0.0       0.0
 0 C  dyz             0.0       0.1       0.2       0.0       0.1       0.0
 0 C  dx2y2          10.8       0.5       0.0       0.4       0.4       0.2
 0 C  dxy            19.0       0.4       0.5       2.7       0.4       0.0
 1 C  s               2.6       0.1       0.0       0.1       0.2       2.4
 1 C  pz              0.0       0.0       0.5       0.1       0.0       0.0
 1 C  px              2.9       0.1       0.0       0.1       0.1       2.9
 1 C  py              2.2       0.1       0.0       0.2       0.1       1.1
 1 C  dz2            10.0       2.7       0.0       0.3       0.0       2.3
 1 C  dxz             0.1       0.0       5.1       2.0       1.0       0.1
 1 C  dyz             0.1       0.2       4.4       0.8       0.0       0.1
 1 C  dx2y2           0.4       0.1       1.9      12.0       2.9       1.0
 1 C  dxy            19.3       1.7       1.0       2.0       0.0       7.5
 2 O  s               0.1       0.0       0.2       0.3       2.3       3.3
 2 O  pz              0.0       0.0       1.2       0.0       0.8       0.2
 2 O  px              0.2       0.0       0.0       0.4       0.1       2.2
 2 O  py              0.0       0.0       0.3       0.7       0.2       2.1
 2 O  dz2             3.1      64.4       4.0       0.1       0.6      18.7
 2 O  dxz             0.0       4.4      74.9       4.7       0.7       0.4
 2 O  dyz             0.3       2.7       0.1      27.1      54.2       2.1
 2 O  dx2y2           7.6       1.9       4.3      41.6      17.8       8.5
 2 O  dxy             1.6      18.3       0.1       3.1      11.3      43.9
 3 H  s               0.5       0.1       0.0       0.0       0.0       0.0
 4 H  s               0.4       0.1       0.0       0.0       0.0       0.0
 5 H  s               0.2       0.0       0.0       0.1       0.0       0.0
 6 H  s               0.2       0.2       0.1       0.1       0.0       0.0
 7 H  s               0.3       0.0       0.1       0.0       0.0       0.1
 8 H  s               0.0       0.0       0.5       0.5       6.8       0.9



                      *****************************
                      * MAYER POPULATION ANALYSIS *
                      *****************************

  NA   - Mulliken gross atomic population
  ZA   - Total nuclear charge
  QA   - Mulliken gross atomic charge
  VA   - Mayer's total valence
  BVA  - Mayer's bonded valence
  FA   - Mayer's free valence

  ATOM       NA         ZA         QA         VA         BVA        FA
  0 C      6.3172     6.0000    -0.3172     3.9924     3.9924    -0.0000
  1 C      6.0099     6.0000    -0.0099     4.0933     4.0933    -0.0000
  2 O      8.4384     8.0000    -0.4384     1.9894     1.9894     0.0000
  3 H      0.8873     1.0000     0.1127     0.9604     0.9604     0.0000
  4 H      0.9050     1.0000     0.0950     0.9588     0.9588    -0.0000
  5 H      0.8983     1.0000     0.1017     0.9573     0.9573    -0.0000
  6 H      0.9260     1.0000     0.0740     0.9405     0.9405     0.0000
  7 H      0.9073     1.0000     0.0927     0.9465     0.9465    -0.0000
  8 H      0.7107     1.0000     0.2893     0.8886     0.8886    -0.0000

  Mayer bond orders larger than 0.100000
B(  0-C ,  1-C ) :   1.1398 B(  0-C ,  3-H ) :   0.9501 B(  0-C ,  4-H ) :   0.9533 
B(  0-C ,  5-H ) :   0.9394 B(  1-C ,  2-O ) :   1.0641 B(  1-C ,  6-H ) :   0.9301 
B(  1-C ,  7-H ) :   0.9355 B(  2-O ,  8-H ) :   0.8583 

-------
TIMINGS
-------

Total SCF time: 0 days 0 hours 0 min 0 sec 

Total time                  ....       0.419 sec
Sum of individual times     ....       0.406 sec  ( 96.8%)

SCF preparation             ....       0.022 sec  (  5.3%)
Fock matrix formation       ....       0.366 sec  ( 87.3%)
  Startup                   ....       0.001 sec  (  0.2% of F)
  Split-RI-J                ....       0.106 sec  ( 28.9% of F)
  XC integration            ....       0.256 sec  ( 69.9% of F)
    Basis function eval.    ....       0.115 sec  ( 45.0% of XC)
    Density eval.           ....       0.040 sec  ( 15.8% of XC)
    XC-Functional eval.     ....       0.038 sec  ( 14.9% of XC)
    XC-Potential eval.      ....       0.042 sec  ( 16.6% of XC)
Diagonalization             ....       0.000 sec  (  0.0%)
Density matrix formation    ....       0.001 sec  (  0.4%)
Total Energy calculation    ....       0.000 sec  (  0.1%)
Population analysis         ....       0.010 sec  (  2.4%)
Orbital Transformation      ....       0.001 sec  (  0.2%)
Orbital Orthonormalization  ....       0.000 sec  (  0.0%)
DIIS solution               ....       0.004 sec  (  1.0%)
  MO trafo                  ....       0.000 sec  (  0.0 % of DIIS)
  Orb grad                  ....       0.000 sec  (  0.0 % of DIIS)
  Energy W gradient         ....       0.000 sec  (  0.0 % of DIIS)
  DIIS error                ....       0.000 sec  (  4.6 % of DIIS)
  DIIS work                 ....       0.003 sec  ( 80.7 % of DIIS)
  Form Q                    ....       0.000 sec  (  0.0 % of DIIS)
  Form QpQm                 ....       0.000 sec  (  0.0 % of DIIS)
  Exp/Cayley                ....       0.000 sec  (  0.0 % of DIIS)
  Orb update                ....       0.000 sec  (  0.0 % of DIIS)
  Wake-sleep                ....       0.000 sec  (  3.5 % of DIIS)
SOSCF solution              ....       0.001 sec  (  0.2%)
  MO trafo                  ....       0.001 sec  ( 59.5 % of SOSCF)
  Orb grad                  ....       0.000 sec  (  2.4 % of SOSCF)
  Rot update                ....       0.000 sec  (  7.3 % of SOSCF)
  Step                      ....       0.000 sec  ( 29.1 % of SOSCF)
Finished LeanSCF after   0.4 sec

Maximum memory used throughout the entire LEANSCF-calculation: 6.2 MB


-------------------------------------------------------------------------------
                          DFT DISPERSION CORRECTION                            
                                                                               
                                DFTD4 V3.4.0                                   
-------------------------------------------------------------------------------
The PBE functional is recognized
Active option DFTDOPT                   ...         5   

-------------------------   ----------------
Dispersion correction           -0.003690943
-------------------------   ----------------

------------------   -----------------
gCP correction             0.042633121
------------------   -----------------

-------------------------   --------------------
FINAL SINGLE POINT ENERGY      -154.661452455399
-------------------------   --------------------


------------------------------------------------------------------------------
                              ORCA PROPERTY CALCULATIONS
------------------------------------------------------------------------------

GBWName                                 ... sp.gbw
Number of atoms                         ...      9
Number of basis functions               ...     54
Max core memory                         ...   1024 MB

Electric properties:
Dipole moment                           ... YES
Quadrupole moment                       ...  NO
Static polarizability (Dipole/Dipole)   ...  NO
Static polarizability (Dipole/Quad.)    ...  NO
Static polarizability (Quad./Quad.)     ...  NO
Static polarizability (Velocity)        ...  NO

Atomic electric properties:
Dipole moment                           ...  NO
Quadrupole moment                       ...  NO
Static polarizability                   ...  NO

Choice of electric origin               ... Center of mass
Position of electric origin             ...     0.000034     0.000005    -0.000004

General magnetic properties:
Magnetizability                         ...  NO

EPR properties:
g-Tensor (aka g-matrix)                 ...  NO
Zero-Field splitting spin-orbit         ...  NO
Zero-field splitting spin-spin          ...  NO
Hyperfine couplings                     ...  NO (   0 nuclei)
Quadrupole couplings                    ...  NO (   0 nuclei)
Contact density                         ...  NO (   0 nuclei)

NMR properties:
Chemical shifts                         ...  NO (   0 nuclei)
Spin-rotation constants                 ...  NO (   0 nuclei)
Spin-spin couplings                     ...  NO (   0 nuclei,    0 pairs)

Choice of magnetic origin               ... GIAO
Position of magnetic origin             ...     0.000000     0.000000     0.000000

Properties with geometric perturbations:
SCF Hessian                             ...  NO
IR spectrum                             ...  NO
VCD spectrum                            ...  NO
X-ray spectroscopy properties:
SCF XES/XAS/RIXS spectra                ...  NO


-------------
DIPOLE MOMENT
-------------

Method             : SCF
Type of density    : Electron Density
Multiplicity       :   1
Irrep              :   0
Energy             :  -154.7003946328752022 Eh
Relativity type    : 
Basis              : AO
                                X                 Y                 Z
Electronic contribution:     -2.862927989      -0.262784721       0.217746290
Nuclear contribution   :      3.295263560       0.131313344      -0.647863690
                        -----------------------------------------
Total Dipole Moment    :      0.432335570      -0.131471377      -0.430117400
                        -----------------------------------------
Magnitude (a.u.)       :      0.623858755
Magnitude (Debye)      :      1.585722936



--------------------
Rotational spectrum 
--------------------
 
Rotational constants in cm-1:             1.153344             0.309497             0.272929 
Rotational constants in MHz :         34576.382546          9278.472490          8182.211519 

Dipole components along the rotational axes: 
x,y,z [a.u.] :     0.432335     0.131473    -0.430117 
x,y,z [Debye]:     1.098909     0.334177    -1.093272 

 

Dipole moment calculation done in   0.0 sec 

Maximum memory used throughout the entire PROP-calculation: 4.3 MB

--------------------------------
SUGGESTED CITATIONS FOR THIS RUN
--------------------------------

Below you find a list of papers that are relevant to this ORCA run
We neither can nor want to force you to cite these papers, but we appreciate if you do
You receive ORCA, which is the product of decades of hard work by many enthusiastic individuals, for free
The only thing we kindly ask in return is that you cite our papers,
We deeply appreciate it, if you show your appreciation for ORCA by not just citing the generic ORCA reference.

Please note that relegating all ORCA citations to the supporting information does *not* help us.
SI sections are not indexed - citations you put there will not count into any citation statistics
But we need these citations in order to attract the funding resources that allow us to do what we are doing

Therefore, if you are a happy ORCA user, please consider citing a few of the papers listed below in the main body of your paper

In addition to the list printed below, the program has created the file sp.bibtex that contains the list in bibtex format
You can import this file easily into all common literature databanks and citation aid programs


List of essential papers. We consider these as the minimum necessary citations

  1. Neese,F.
     Software update: the ORCA program system, version 5.0
     WIRES Comput. Molec. Sci., 2022 12(1)e1606
     doi.org/10.1002/wcms.1606

List of papers to cite with high priority. The work reported in these papers was absolutely
necessary for this run to complete.
Our perspective: the developers of density functionals and basis sets usually get cited in chemistry papers
Good! But without the algorithms to do something with them, the functionals or basis sets would not do anything.
Hence, in our opinion, the algorithm design and method developments papers are equally worthy of getting cited

  1. Neese,F.
     An improvement of the resolution of the identity approximation for the formation of the Coulomb matrix
     J. Comp. Chem., 2003 24(14)1740-1747
     doi.org/10.1002/jcc.10318
  2. Neese,F.
     The SHARK Integral Generation and Digestion System
     J. Comp. Chem., 2022  1-16
     doi.org/10.1002/jcc.26942
  3. Caldeweyher,E.; Bannwarth,C.; Grimme,S.
     Extension of the D3 dispersion coefficient model
     J. Chem. Phys., 2017 147 034112
     doi.org/10.1063/1.4993215
  4. Caldeweyher,E.; Ehlert,S.; Hansen,A.; Neugebauer,H.; Spicher,S.; Bannwarth,C.; Grimme,S.
     A generally applicable atomic-charge dependent London dispersion correction
     J. Chem. Phys., 2019 150 154122
     doi.org/10.1063/1.5090222
  5. Caldeweyher,E.; Mewes,J.; Ehlert,S.; Grimme,S.
     Extension and evaluation of the D4 London-dispersion model for periodic systems
     Phys. Chem. Chem. Phys., 2020 22(16)8499-8512
     doi.org/10.1039/D0CP00502A
  6. Wittmann,L.; Gordiy,I.; Friede,M.; Helmich-Paris,B.; Grimme,S.; Hansen,A.; Bursch,M.
     Extension of the D3 and D4 London Dispersion Corrections to the full Actinides Series
     Phys. Chem. Chem. Phys., 2024 26(32)21379-21394
     doi.org/https://doi.org/10.1039/D4CP01514B 

List of suggested additional citations. These are papers that are important in the 'surrounding' of 
of this run, or papers that preceded the highly important papers. If you like your results we are grateful for a citation.

  1. Neese,F.
     The ORCA program system
     WIRES Comput. Molec. Sci., 2012 2(1)73-78
     doi.org/10.1002/wcms.81
  2. Neese,F.
     Software update: the ORCA program system, version 4.0
     WIRES Comput. Molec. Sci., 2018 8(1)1-6
     doi.org/10.1002/wcms.1327
  3. Neese,F.; Wennmohs,F.; Becker,U.; Riplinger,C.
     The ORCA quantum chemistry program package
     J. Chem. Phys., 2020 152 Art. No. L224108
     doi.org/10.1063/5.0004608

List of optional additional citations

  1. Neese,F.
     Approximate second-order SCF convergence for spin unrestricted wavefunctions
     Chem. Phys. Lett., 2000 325(1-3)93-98
     doi.org/10.1016/s0009-2614(00)00662-x

Timings for individual modules:

Sum of individual times          ...        0.644 sec (=   0.011 min)
Startup calculation              ...        0.098 sec (=   0.002 min)  15.2 %
SCF iterations                   ...        0.517 sec (=   0.009 min)  80.3 %
Property calculations            ...        0.029 sec (=   0.000 min)   4.5 %
                             ****ORCA TERMINATED NORMALLY****
TOTAL RUN TIME: 0 days 0 hours 0 minutes 0 seconds 710 msec
