
                                 *****************
                                 * O   R   C   A *
                                 *****************

                                            #,                                       
                                            ###                                      
                                            ####                                     
                                            #####                                    
                                            ######                                   
                                           ########,                                 
                                     ,,################,,,,,                         
                               ,,#################################,,                 
                          ,,##########################################,,             
                       ,#########################################, ''#####,          
                    ,#############################################,,   '####,        
                  ,##################################################,,,,####,       
                ,###########''''           ''''###############################       
              ,#####''   ,,,,##########,,,,          '''####'''          '####       
            ,##' ,,,,###########################,,,                        '##       
           ' ,,###''''                  '''############,,,                           
         ,,##''                                '''############,,,,        ,,,,,,###''
      ,#''                                            '''#######################'''  
     '                                                          ''''####''''         
             ,#######,   #######,   ,#######,      ##                                
            ,#'     '#,  ##    ##  ,#'     '#,    #''#        ,####,   ,####,        
            ##       ##  ##   ,#'  ##            #'  '#       #'       #'  '#        
            ##       ##  #######   ##           ,######,      #####,   #    #        
            '#,     ,#'  ##    ##  '#,     ,#' ,#      #,     #,   #   #,  ,#        
             '#######'   ##     ##  '#######'  #'      '#     '####' # '####'        



                #########################################################
                #                        -***-                          #
                #          Department of theory and spectroscopy        #
                #                                                       #
                #                      Frank Neese                      #
                #                                                       #
                #     Directorship, Architecture, Infrastructure        #
                #                    SHARK, DRIVERS                     #
                #        Core code/Algorithms in most modules           #
                #                                                       #
                #        Max Planck Institute fuer Kohlenforschung      #
                #                Kaiser Wilhelm Platz 1                 #
                #                 D-45470 Muelheim/Ruhr                 #
                #                      Germany                          #
                #                                                       #
                #                  All rights reserved                  #
                #                        -***-                          #
                #########################################################


                         Program Version 6.0.1  -  RELEASE   -


 With contributions from (in alphabetic order):
[Max-Planck-Institut fuer Kohlenforschung]                               
  Daniel Aravena         : Magnetic Suceptibility                        
  Michael Atanasov       : Ab Initio Ligand Field Theory (pilot matlab implementation)
  Alexander A. Auer      : GIAO ZORA, VPT2 properties, NMR spectrum      
  Ute Becker             : All parallelization in ORCA, NUMFREQ, NUMCALC 
  Giovanni Bistoni       : ED, misc. LED, open-shell LED, HFLD           
  Martin Brehm           : Molecular dynamics                            
  Dmytro Bykov           : pre 5.0 version of the SCF Hessian            
  Marcos Casanova-Páez   : Triplet and SCS-CIS(D). UHF-(DLPNO)-IP/EA/STEOM-CCSD. UHF-CVS-IP/STEOM-CCSD   
  Vijay G. Chilkuri      : MRCI spin determinant printing, contributions to CSF-ICE 
  Pauline Colinet        : FMM embedding                                 
  Dipayan Datta          : RHF DLPNO-CCSD density                        
  Achintya Kumar Dutta   : EOM-CC, STEOM-CC                              
  Nicolas Foglia         : Exact transition moments, OPA infrastructure, MCD improvements    
  Dmitry Ganyushin       : Spin-Orbit,Spin-Spin,Magnetic field MRCI      
  Miquel Garcia-Rates    : C-PCM and meta-GGA Hessian, CCSD/C-PCM, Gaussian charge scheme 
  Tiago L. C. Gouveia    : GS-ROHF, GS-ROCIS                             
  Yang Guo               : DLPNO-NEVPT2, F12-NEVPT2, CIM, IAO-localization        
  Andreas Hansen         : Spin unrestricted coupled pair/coupled cluster methods 
  Ingolf Harden          : AUTO-CI MPn and infrastructure                
  Benjamin Helmich-Paris : MC-RPA, TRAH-(SCF,CASSCF), AVAS, COSX integrals, SCF dyn. polar. 
  Lee Huntington         : MR-EOM, pCC                                   
  Robert Izsak           : Overlap fitted RIJCOSX, COSX-SCS-MP3, EOM     
  Riya Kayal             : Wick's Theorem for AUTO-CI, AUTO-CI UHF-CCSDT 
  Emily Kempfer          : AUTO-CI, RHF CISDT and CCSDT                  
  Christian Kollmar      : KDIIS, OOCD, Brueckner-CCSD(T), CCSD density, CASPT2, CASPT2-K, improved NEVPT2 
  Axel Koslowski         : Symmetry handling                             
  Simone Kossmann        : meta-GGA functionals, TD-DFT gradient, OOMP2, (MP2 Hessian; deprecated post 5.0) 
  Lucas Lang             : DCDCAS                                        
  Marvin Lechner         : AUTO-CI (C++ implementation), FIC-MRCC        
  Spencer Leger          : CASSCF response                               
  Dagmar Lenk            : GEPOL surface, SMD, ORCA-2-JSON               
  Dimitrios Liakos       : Extrapolation schemes; Compound Job, initial MDCI parallelization 
  Dimitrios Manganas     : Further ROCIS development; embedding schemes. LFT, Crystal Embedding 
  Dimitrios Pantazis     : SARC Basis sets                               
  Anastasios Papadopoulos: AUTO-CI, single reference methods and gradients 
  Taras Petrenko         : pre 6.0 DFT Hessian and TD-DFT gradient, (ASA, deprecated), ECA, 1-Electron XAS/XES, NRVS 
  Peter Pinski           : DLPNO-MP2, DLPNO-MP2 Gradient                 
  Christoph Reimann      : Effective Core Potentials                     
  Marius Retegan         : Local ZFS, SOC                                
  Christoph Riplinger    : Optimizer, TS searches, QM/MM, DLPNO-CCSD(T), (RO)-DLPNO pert. Triples 
  Michael Roemelt        : Original ROCIS implementation                 
  Masaaki Saitow         : Open-shell DLPNO-CCSD energy and density      
  Barbara Sandhoefer     : DKH picture change effects                    
  Kantharuban Sivalingam : CASSCF convergence/infrastructure, NEVPT2 and variants, FIC-MRCI 
  Bernardo de Souza      : ESD, SOC TD-DFT                               
  Georgi L. Stoychev     : AutoAux, RI-MP2 NMR, DLPNO-MP2 response, X2C  
  Van Anh Tran           : RI-MP2 g-tensors                              
  Willem Van den Heuvel  : Paramagnetic NMR                              
  Zikuan Wang            : NOTCH, Electric field optimization            
  Frank Wennmohs         : Technical directorship and infrastructure     
  Hang Xu                : AUTO-CI-Response properties                   
                                                                         
[FACCTs GmbH]                                                            
  Markus Bursch, Miquel Garcia-Rates, Christoph Riplinger, Bernardo de Souza, Georgi L. Stoychev 
                                                                 
  APM, Basis sets (HGBS, AHGBS, def-TZVP (Ac-Lr), def2-XVPD (La-Lu)), CI-OPT, improved COSX, DLPNO-Multilevel,           
  DOCKER, DRACO, updates on ESD, GOAT, IRC, LR-CPCM, MBIS, meta-GGA TD-DFT gradient, ML-optimized integration grids, 
  MM, NACMEs, nearIR, NEB, NEB-TS, NL-DFT gradient (VV10), 2- and 3-layer-ONIOM, interface openCOSMO-RS, QMMM,   
  Crystal-QMMM, SF, symmetry and pop. for TD-DFT, r2SCAN hybrids, SOLVATOR                                   
                                                                         
[Other institutions]                                                     
  V. Asgeirsson          : NEB                                           
  Christoph Bannwarth    : sTDA-DFT, sTD-DFT, PBEh-3c, B97-3c, D3        
  Sebastian Ehlert       : rSCAN, r2SCAN, r2SCAN-3c, D4, dhf basis sets  
  Marvin Friede          : D4 for Fr, Ra, Ac-Lr                          
  Lars Goerigk           : TD-DFT with DH, B97 family of functionals     
  Stefan Grimme          : VdW corrections, initial TS optimization, DFT functionals, gCP, sTDA/sTD-DF 
  Waldemar Hujo          : DFT-NL                                        
  H. Jonsson             : NEB                                           
  Holger Kruse           : gCP                                           
  Marcel Mueller         : wB97X-3c, vDZP basis set                      
  Hagen Neugebauer       : wr2SCAN                                       
  Tobias Risthaus        : range-separated hybrid DFT                    
  Lukas Wittmann         : regularized MP2, r2SCAN double-hybrids, wr2SCAN        
                                                                         
We gratefully acknowledge several colleagues who have allowed us to      
interface, adapt or use parts of their codes:                            
  Ed Valeev, F. Pavosevic, A. Kumar             : LibInt (2-el integral package), F12 methods 
  Garnet Chan, S. Sharma, J. Yang, R. Olivares  : DMRG                   
  Ulf Ekstrom                                   : XCFun DFT Library      
  Mihaly Kallay                                 : mrcc  (arbitrary order and MRCC methods)
  Frank Weinhold                                : gennbo (NPA and NBO analysis)           
  Simon Mueller                                 : openCOSMO-RS                            
  Christopher J. Cramer and Donald G. Truhlar   : smd solvation model                     
  S Lehtola, MJT Oliveira, MAL Marques          : LibXC Library                           
  Liviu Ungur et al                             : ANISO software                          


 Your calculation uses the libint2 library for the computation of 2-el integrals
 For citations please refer to: http://libint.valeyev.net

 Your ORCA version has been built with support for libXC version: 6.2.2
 For citations please refer to: https://libxc.gitlab.io

 This ORCA versions uses:
   CBLAS   interface :  Fast vector & matrix operations
   LAPACKE interface :  Fast linear algebra routines
   SCALAPACK package :  Parallel linear algebra routines
   Shared memory     :  Shared parallel matrices
   BLAS/LAPACK       :  OpenBLAS 0.3.27  USE64BITINT DYNAMIC_ARCH NO_AFFINITY Zen SINGLE_THREADED
        Core in use  :  Zen
   Copyright (c) 2011-2014, The OpenBLAS Project


Your calculation utilizes the geometrical counterpoise correction gCP
Please cite in your paper:
H.Kruse, S. Grimme J.Chem.Phys., 136, (2012), 154101 
   

Your calculation utilizes the atom-pairwise dispersion correction
based on EEQ partial charges (D4)


================================================================================

----- Orbital basis set information -----
Your calculation utilizes the basis: def2-SV(P)
   F. Weigend and R. Ahlrichs, Phys. Chem. Chem. Phys. 7, 3297 (2005).

----- AuxJ basis set information -----
Your calculation utilizes the auxiliary basis: def2/J
   F. Weigend, Phys. Chem. Chem. Phys. 8, 1057 (2006).

================================================================================
                                        WARNINGS
                       Please study these warnings very carefully!
================================================================================

WARNING: Old DensityContainer found on disk!
         Will remove this file - 
         If you want to keep old densities, please start your calculation with a different basename. 


================================================================================
                                       INPUT FILE
================================================================================
NAME = sp.inp
|  1> ! pbe def2-sv(p) def2/J RI DEFGRID1 loosescf d4 GCP(DFT/SV(P)) printgap
|  2> %output
|  3>     printlevel normal
|  4> end
|  5> * xyz 0 1
|  6> C -1.694571395 0.4084432782 -0.019977596
|  7> C -0.617340075 -0.6535360927 0.0728055525
|  8> S 1.0394201304 0.1396672642 -0.026671354
|  9> H -1.6155968001 0.9472403006 -0.9615812367
| 10> H -2.6776047762 -0.0542216589 0.0381900256
| 11> H -1.5941375301 1.1224480715 0.7944059119
| 12> H -0.691472129 -1.362305364 -0.7519076483
| 13> H -0.6698660752 -1.1854087876 1.022720912
| 14> H 1.7367805795 -0.9896522502 0.0770102389
| 15> *
| 16> 
| 17>                          ****END OF INPUT****
================================================================================

                       ****************************
                       * Single Point Calculation *
                       ****************************

---------------------------------
CARTESIAN COORDINATES (ANGSTROEM)
---------------------------------
  C     -1.694571    0.408443   -0.019978
  C     -0.617340   -0.653536    0.072806
  S      1.039420    0.139667   -0.026671
  H     -1.615597    0.947240   -0.961581
  H     -2.677605   -0.054222    0.038190
  H     -1.594138    1.122448    0.794406
  H     -0.691472   -1.362305   -0.751908
  H     -0.669866   -1.185409    1.022721
  H      1.736781   -0.989652    0.077010

----------------------------
CARTESIAN COORDINATES (A.U.)
----------------------------
  NO LB      ZA    FRAG     MASS         X           Y           Z
   0 C     6.0000    0    12.011   -3.202276    0.771846   -0.037752
   1 C     6.0000    0    12.011   -1.166604   -1.235004    0.137583
   2 S    16.0000    0    32.060    1.964219    0.263933   -0.050402
   3 H     1.0000    0     1.008   -3.053035    1.790025   -1.817125
   4 H     1.0000    0     1.008   -5.059940   -0.102464    0.072169
   5 H     1.0000    0     1.008   -3.012483    2.121119    1.501210
   6 H     1.0000    0     1.008   -1.306693   -2.574384   -1.420900
   7 H     1.0000    0     1.008   -1.265863   -2.240098    1.932662
   8 H     1.0000    0     1.008    3.282040   -1.870172    0.145528

--------------------------------
INTERNAL COORDINATES (ANGSTROEM)
--------------------------------
 C      0   0   0     0.000000000000     0.00000000     0.00000000
 C      1   0   0     1.515531660392     0.00000000     0.00000000
 S      2   1   0     1.839543856102   109.55457610     0.00000000
 H      1   2   3     1.087730037356   110.39499667    59.93950581
 H      1   2   3     1.088024330968   109.93521674   179.99664071
 H      1   2   3     1.087708740433   110.39631946   300.05610943
 H      2   1   3     1.089954726098   111.16161113   241.33328404
 H      2   1   3     1.089948042106   111.16434435   118.68423695
 H      3   2   1     1.331324165739    95.84174813   180.02064410

---------------------------
INTERNAL COORDINATES (A.U.)
---------------------------
 C      0   0   0     0.000000000000     0.00000000     0.00000000
 C      1   0   0     2.863939785429     0.00000000     0.00000000
 S      2   1   0     3.476234099370   109.55457610     0.00000000
 H      1   2   3     2.055511878243   110.39499667    59.93950581
 H      1   2   3     2.056068012572   109.93521674   179.99664071
 H      1   2   3     2.055471632890   110.39631946   300.05610943
 H      2   1   3     2.059715930698   111.16161113   241.33328404
 H      2   1   3     2.059703299784   111.16434435   118.68423695
 H      3   2   1     2.515838068717    95.84174813   180.02064410

---------------------
BASIS SET INFORMATION
---------------------
There are 3 groups of distinct atoms

 Group   1 Type C   : 7s4p1d contracted to 3s2p1d pattern {511/31/1}
 Group   2 Type S   : 10s7p1d contracted to 4s3p1d pattern {5311/511/1}
 Group   3 Type H   : 4s contracted to 2s pattern {31}

Atom   0C    basis set group =>   1
Atom   1C    basis set group =>   1
Atom   2S    basis set group =>   2
Atom   3H    basis set group =>   3
Atom   4H    basis set group =>   3
Atom   5H    basis set group =>   3
Atom   6H    basis set group =>   3
Atom   7H    basis set group =>   3
Atom   8H    basis set group =>   3
---------------------------------
AUXILIARY/J BASIS SET INFORMATION
---------------------------------
There are 3 groups of distinct atoms

 Group   1 Type C   : 12s5p4d2f1g contracted to 6s4p3d1f1g pattern {711111/2111/211/2/1}
 Group   2 Type S   : 14s5p5d2f1g contracted to 8s4p3d1f1g pattern {71111111/2111/311/2/1}
 Group   3 Type H   : 5s2p1d contracted to 3s1p1d pattern {311/2/1}

Atom   0C    basis set group =>   1
Atom   1C    basis set group =>   1
Atom   2S    basis set group =>   2
Atom   3H    basis set group =>   3
Atom   4H    basis set group =>   3
Atom   5H    basis set group =>   3
Atom   6H    basis set group =>   3
Atom   7H    basis set group =>   3
Atom   8H    basis set group =>   3

Checking for AutoStart:
The File: sp.gbw exists
Trying to determine its content:
     ... Fine, the file contains calculation information
     ... Fine, the calculation information was read
     ... Fine, the file contains a basis set
     ... Fine, the basis set was read
     ... Fine, the file contains a geometry
     ... Fine, the geometry was read
     ... Fine, the file contains a set of orbitals
     ... Fine, the orbitals can be read
     => possible old guess file was deleted
     => GBW file was renamed to GES file
     => GES file is set as startup file
     => Guess is set to MORead
     ... now leaving AutoStart

------------------------------------------------------------------------------
                             ORCA STARTUP CALCULATIONS
                           -- RI-GTO INTEGRALS CHOSEN --
------------------------------------------------------------------------------
------------------------------------------------------------------------------
                   ___                                                        
                  /   \      - P O W E R E D   B Y -                         
                 /     \                                                     
                 |  |  |   _    _      __       _____    __    __             
                 |  |  |  | |  | |    /  \     |  _  \  |  |  /  |          
                  \  \/   | |  | |   /    \    | | | |  |  | /  /          
                 / \  \   | |__| |  /  /\  \   | |_| |  |  |/  /          
                |  |  |   |  __  | /  /__\  \  |    /   |      \           
                |  |  |   | |  | | |   __   |  |    \   |  |\   \          
                \     /   | |  | | |  |  |  |  | |\  \  |  | \   \       
                 \___/    |_|  |_| |__|  |__|  |_| \__\ |__|  \__/        
                                                                              
                      - O R C A' S   B I G   F R I E N D -                    
                                      &                                       
                       - I N T E G R A L  F E E D E R -                       
                                                                              
 v1 FN, 2020, v2 2021, v3 2022-2024                                           
------------------------------------------------------------------------------


----------------------
SHARK INTEGRAL PACKAGE
----------------------

Number of atoms                             ...      9
Number of basis functions                   ...     58
Number of shells                            ...     32
Maximum angular momentum                    ...      2
Integral batch strategy                     ... SHARK/LIBINT Hybrid
RI-J (if used) integral strategy            ... SPLIT-RIJ (Revised 2003 algorithm where possible)
Printlevel                                  ...      1
Contraction scheme used                     ... SEGMENTED contraction
Prescreening option                         ... SCHWARTZ
   Thresh                                   ... 1.000e-09
   Tcut                                     ... 1.000e-10
   Tpresel                                  ... 1.000e-10 
Coulomb Range Separation                    ... NOT USED
Exchange Range Separation                   ... NOT USED
Multipole approximations                    ... NOT USED
Finite Nucleus Model                        ... NOT USED
CABS basis                                  ... NOT available
Auxiliary Coulomb fitting basis             ... AVAILABLE
   # of basis functions in Aux-J            ...    215
   # of shells in Aux-J                     ...     77
   Maximum angular momentum in Aux-J        ...      4
Auxiliary J/K fitting basis                 ... NOT available
Auxiliary Correlation fitting basis         ... NOT available
Auxiliary 'external' fitting basis          ... NOT available

Checking pre-screening integrals            ... done (  0.0 sec) Dimension = 32
Check shell pair data                       ... done (  0.0 sec)
Shell pair information
Shell pair cut-off parameter TPreSel        ...   1.0e-10
Total number of shell pairs                 ...       528
Shell pairs after pre-screening             ...       523
Total number of primitive shell pairs       ...      2278
Primitive shell pairs kept                  ...      1783
          la=0 lb=0:    249 shell pairs
          la=1 lb=0:    153 shell pairs
          la=1 lb=1:     28 shell pairs
          la=2 lb=0:     66 shell pairs
          la=2 lb=1:     21 shell pairs
          la=2 lb=2:      6 shell pairs

Calculating one electron integrals          ... done (  0.0 sec)
Calculating RI/J V-Matrix + Cholesky decomp.... done (  0.0 sec)
Calculating Nuclear repulsion               ... done (  0.0 sec) ENN=    107.456726433973 Eh

Diagonalization of the overlap matrix:
Smallest eigenvalue                        ... 3.805e-03
Time for diagonalization                   ...    0.000 sec
Threshold for overlap eigenvalues          ... 1.000e-07
Number of eigenvalues below threshold      ... 0
Time for construction of square roots      ...    0.000 sec
Total time needed                          ...    0.001 sec

-------------------
DFT GRID GENERATION
-------------------

General Integration Accuracy     IntAcc      ... 4.159
Radial Grid Type                 RadialGrid  ... OptM3 with GC (2021)
Angular Grid (max. ang.)         AngularGrid ... 3 (Lebedev-194)
Angular grid pruning method      GridPruning ... 4 (adaptive)
Weight generation scheme         WeightScheme... mBecke (2022)
Basis function cutoff            BFCut       ... 1.0000e-10
Integration weight cutoff        WCut        ... 1.0000e-14
Partially contracted basis set               ... off
Rotationally invariant grid construction     ... off
Angular grids for H and He will be reduced by one unit

Total number of grid points                  ...    19448
Total number of batches                      ...      309
Average number of points per batch           ...       62
Average number of grid points per atom       ...     2161
Initializing property integral containers    ... done (  0.0 sec)

SHARK setup successfully completed in   0.1 seconds

Maximum memory used throughout the entire STARTUP-calculation: 10.5 MB
-------------------------------------------------------------------------------
                                 ORCA GUESS
                   Start orbitals & Density for SCF / CASSCF
-------------------------------------------------------------------------------

------------
SCF SETTINGS
------------
Hamiltonian:
 Density Functional     Method          .... DFT(GTOs)
 Exchange Functional    Exchange        .... PBE
   PBE kappa parameter   XKappa         ....  0.804000
   PBE mue parameter    XMuePBE         ....  0.219520
 Correlation Functional Correlation     .... PBE
   PBE beta parameter  CBetaPBE         ....  0.066725
 LDA part of GGA corr.  LDAOpt          .... PW91-LDA
 Gradients option       PostSCFGGA      .... off
   NL short-range parameter             ....  6.400000
 RI-approximation to the Coulomb term is turned on
   Number of AuxJ basis functions       .... 215


General Settings:
 Integral files         IntName         .... sp
 Hartree-Fock type      HFTyp           .... RHF
 Total Charge           Charge          ....    0
 Multiplicity           Mult            ....    1
 Number of Electrons    NEL             ....   34
 Basis Dimension        Dim             ....   58
 Nuclear Repulsion      ENuc            ....    107.4567264340 Eh

Convergence Acceleration:
 AO-DIIS                CNVDIIS         .... on
   Start iteration      DIISMaxIt       ....    12
   Startup error        DIISStart       ....  0.200000
   # of expansion vecs  DIISMaxEq       ....     5
   Bias factor          DIISBfac        ....   1.050
   Max. coefficient     DIISMaxC        ....  10.000
 MO-DIIS                CNVKDIIS        .... off
 Trust-Rad. Augm. Hess. CNVTRAH         .... auto
   Auto Start mean grad. ratio tolernc. ....  1.125000
   Auto Start start iteration           ....     1
   Auto Start num. interpolation iter.  ....    10
   Max. Number of Micro iterations      ....    24
   Max. Number of Macro iterations      .... Maxiter - #DIIS iter
   Number of Davidson start vectors     ....     2
   Converg. threshold    (grad. norm)   ....   1.000e-04
   Grad. Scal. Fac. for Micro threshold ....   0.100
   Minimum threshold for Micro iter.    ....   1.000e-02
   NR start threshold (gradient norm)   ....   1.000e-04
   Initial trust radius                 ....   0.400
   Minimum AH scaling param. (alpha)    ....   1.000
   Maximum AH scaling param. (alpha)    .... 1000.000
   Quad. conv. algorithm                .... NR
   White noise on init. David. guess    .... on
   Maximum white noise                  ....   0.010
   Pseudo random numbers                .... off
   Inactive MOs                         .... canonical
   Orbital update algorithm             .... Taylor
   Preconditioner                       .... Diag
   Full preconditioner red. dimension   ....   250
 SOSCF                  CNVSOSCF        .... on
   Start iteration      SOSCFMaxIt      ....   150
   Startup grad/error   SOSCFStart      ....  0.003300
   Hessian update       SOSCFHessUp     .... L-BFGS
 Level Shifting         CNVShift        .... on
   Level shift para.    LevelShift      ....    0.2500
   Turn off err/grad.   ShiftErr        ....    0.0010
 Zerner damping         CNVZerner       .... off
 Static damping         CNVDamp         .... on
   Fraction old density DampFac         ....    0.7000
   Max. Damping (<1)    DampMax         ....    0.9800
   Min. Damping (>=0)   DampMin         ....    0.0000
   Turn off err/grad.   DampErr         ....    0.1000

SCF Procedure:
 Maximum # iterations   MaxIter         ....   125
 SCF integral mode      SCFMode         .... Direct
   Integral package                     .... SHARK and LIBINT hybrid scheme
 Reset frequency        DirectResetFreq ....    20
 Integral Threshold     Thresh          ....  1.000e-09 Eh
 Primitive CutOff       TCut            ....  1.000e-10 Eh

Convergence Tolerance:
 Convergence Check Mode ConvCheckMode   .... Total+1el-Energy
 Convergence forced     ConvForced      .... 0
 Energy Change          TolE            ....  1.000e-05 Eh
 1-El. energy change                    ....  1.000e-02 Eh
 Orbital Gradient       TolG            ....  1.000e-04
 Orbital Rotation angle TolX            ....  1.000e-04
 DIIS Error             TolErr          ....  5.000e-04

---------------------
INITIAL GUESS: MOREAD
---------------------
Guess MOs are being read from file: sp.ges
Input Geometry matches current geometry (good)
Input basis set matches current basis set (good)
Occupation numbers will be reassigned to an Aufbau configuration
MOs were renormalized
MOs were reorthogonalized (Cholesky)
                      ------------------
                      INITIAL GUESS DONE (   0.0 sec)
                      ------------------
             **** ENERGY FILE WAS UPDATED (sp.en.tmp) ****
Finished Guess after   0.0 sec
Maximum memory used throughout the entire GUESS-calculation: 6.4 MB

-------------------------------------------------------------------------------------------
                                      ORCA LEAN-SCF
                              memory conserving SCF solver
-------------------------------------------------------------------------------------------

----------------------------------------D-I-I-S--------------------------------------------
Iteration    Energy (Eh)           Delta-E    RMSDP     MaxDP     DIISErr   Damp  Time(sec)
-------------------------------------------------------------------------------------------
               ***  Starting incremental Fock matrix formation  ***
                              *** Initializing SOSCF ***
---------------------------------------S-O-S-C-F--------------------------------------
Iteration    Energy (Eh)           Delta-E    RMSDP     MaxDP     MaxGrad    Time(sec)
--------------------------------------------------------------------------------------
    1    -477.5174327488801396     0.00e+00  2.10e-05  2.87e-04  2.36e-05     0.1
               *** Restarting incremental Fock matrix formation ***
    2    -477.5174327828823948    -3.40e-08  2.18e-05  2.31e-04  3.93e-05     0.1
    3    -477.5174326851629871     9.77e-08  1.43e-05  1.49e-04  7.78e-05     0.1
                 **** Energy Check signals convergence ****

               *****************************************************
               *                     SUCCESS                       *
               *           SCF CONVERGED AFTER   3 CYCLES          *
               *****************************************************

             **** ENERGY FILE WAS UPDATED (sp.en.tmp) ****

----------------
TOTAL SCF ENERGY
----------------

Total Energy       :       -477.51743268516299 Eh          -12993.90994 eV

Components:
Nuclear Repulsion  :        107.45672643397296 Eh            2924.04618 eV
Electronic Energy  :       -584.97415911913595 Eh          -15917.95612 eV
One Electron Energy:       -869.20960454438216 Eh          -23652.39580 eV
Two Electron Energy:        284.23544542524616 Eh            7734.43968 eV

Virial components:
Potential Energy   :       -953.46790908570381 Eh          -25945.18083 eV
Kinetic Energy     :        475.95047640054082 Eh           12951.27089 eV
Virial Ratio       :          2.00329226749907

DFT components:
N(Alpha)           :       16.999990247075 electrons
N(Beta)            :       16.999990247075 electrons
N(Total)           :       33.999980494151 electrons
E(X)               :      -37.273262620228 Eh       
E(C)               :       -1.194874774987 Eh       
E(XC)              :      -38.468137395214 Eh       

---------------
SCF CONVERGENCE
---------------

  Last Energy change         ...   -9.7719e-08  Tolerance :   1.0000e-05
  Last MAX-Density change    ...    1.4937e-04  Tolerance :   1.0000e-03
  Last RMS-Density change    ...    1.4264e-05  Tolerance :   1.0000e-04
  Last DIIS Error            ...    1.3903e-04  Tolerance :   5.0000e-04
  Last Orbital Gradient      ...    7.7757e-05  Tolerance :   1.0000e-04
  Last Orbital Rotation      ...    8.2977e-05  Tolerance :   1.0000e-04


----------------
ORBITAL ENERGIES
----------------

  NO   OCC          E(Eh)            E(eV) 
   0   2.0000     -88.011362     -2394.9109 
   1   2.0000      -9.919811      -269.9318 
   2   2.0000      -9.888131      -269.0697 
   3   2.0000      -7.657819      -208.3799 
   4   2.0000      -5.686292      -154.7319 
   5   2.0000      -5.682473      -154.6279 
   6   2.0000      -5.673823      -154.3926 
   7   2.0000      -0.724277       -19.7086 
   8   2.0000      -0.634784       -17.2734 
   9   2.0000      -0.535416       -14.5694 
  10   2.0000      -0.415067       -11.2945 
  11   2.0000      -0.413542       -11.2531 
  12   2.0000      -0.349448        -9.5090 
  13   2.0000      -0.326021        -8.8715 
  14   2.0000      -0.321386        -8.7453 
  15   2.0000      -0.283292        -7.7088 
  16   2.0000      -0.191318        -5.2060 
  17   0.0000       0.001000         0.0272 
  18   0.0000       0.043277         1.1776 
  19   0.0000       0.063481         1.7274 
  20   0.0000       0.089661         2.4398 
  21   0.0000       0.090790         2.4705 
  22   0.0000       0.113532         3.0894 
  23   0.0000       0.128547         3.4979 
  24   0.0000       0.173601         4.7239 
  25   0.0000       0.316055         8.6003 
  26   0.0000       0.381454        10.3799 
  27   0.0000       0.387945        10.5565 
*Only the first 10 virtual orbitals were printed.

                    ********************************
                    * MULLIKEN POPULATION ANALYSIS *
                    ********************************

-----------------------
MULLIKEN ATOMIC CHARGES
-----------------------
   0 C :   -0.278709
   1 C :   -0.292121
   2 S :   -0.191841
   3 H :    0.118620
   4 H :    0.117927
   5 H :    0.118616
   6 H :    0.132056
   7 H :    0.132081
   8 H :    0.143370
Sum of atomic charges:   -0.0000000

--------------------------------
MULLIKEN REDUCED ORBITAL CHARGES
--------------------------------
  0 C s       :     3.101494  s :     3.101494
      pz      :     1.085738  p :     3.148076
      px      :     1.020796
      py      :     1.041543
      dz2     :     0.005573  d :     0.029139
      dxz     :     0.001473
      dyz     :     0.010100
      dx2y2   :     0.005765
      dxy     :     0.006228

  1 C s       :     3.149812  s :     3.149812
      pz      :     1.087795  p :     3.103595
      px      :     0.949216
      py      :     1.066584
      dz2     :     0.006287  d :     0.038713
      dxz     :     0.005091
      dyz     :     0.012172
      dx2y2   :     0.008040
      dxy     :     0.007123

  2 S s       :     5.888925  s :     5.888925
      pz      :     3.961989  p :    10.233280
      px      :     2.997576
      py      :     3.273715
      dz2     :     0.011165  d :     0.069636
      dxz     :     0.005657
      dyz     :     0.003559
      dx2y2   :     0.014490
      dxy     :     0.034765

  3 H s       :     0.881380  s :     0.881380

  4 H s       :     0.882073  s :     0.882073

  5 H s       :     0.881384  s :     0.881384

  6 H s       :     0.867944  s :     0.867944

  7 H s       :     0.867919  s :     0.867919

  8 H s       :     0.856630  s :     0.856630


------------------------
MULLIKEN OVERLAP CHARGES
------------------------
B(  0-C ,  1-C ) :   0.8770 B(  0-C ,  2-S ) :  -0.1600 B(  0-C ,  3-H ) :   0.7574 
B(  0-C ,  4-H ) :   0.7460 B(  0-C ,  5-H ) :   0.7574 B(  1-C ,  2-S ) :   0.5890 
B(  1-C ,  3-H ) :  -0.0574 B(  1-C ,  5-H ) :  -0.0573 B(  1-C ,  6-H ) :   0.7341 
B(  1-C ,  7-H ) :   0.7341 B(  2-S ,  6-H ) :  -0.0666 B(  2-S ,  7-H ) :  -0.0667 
B(  2-S ,  8-H ) :   0.5288 B(  3-H ,  5-H ) :  -0.0580 B(  6-H ,  7-H ) :  -0.0626 



                     *******************************
                     * LOEWDIN POPULATION ANALYSIS *
                     *******************************

----------------------
LOEWDIN ATOMIC CHARGES
----------------------
   0 C :   -0.357856
   1 C :   -0.334749
   2 S :   -0.000710
   3 H :    0.124058
   4 H :    0.127480
   5 H :    0.124081
   6 H :    0.120222
   7 H :    0.120196
   8 H :    0.077276

-------------------------------
LOEWDIN REDUCED ORBITAL CHARGES
-------------------------------
  0 C s       :     2.947916  s :     2.947916
      pz      :     1.137313  p :     3.338531
      px      :     1.098511
      py      :     1.102707
      dz2     :     0.014378  d :     0.071409
      dxz     :     0.002615
      dyz     :     0.023573
      dx2y2   :     0.013280
      dxy     :     0.017563

  1 C s       :     2.974118  s :     2.974118
      pz      :     1.141564  p :     3.273359
      px      :     1.025766
      py      :     1.106029
      dz2     :     0.014508  d :     0.087272
      dxz     :     0.009765
      dyz     :     0.027816
      dx2y2   :     0.015777
      dxy     :     0.019405

  2 S s       :     5.640319  s :     5.640319
      pz      :     3.943202  p :    10.275190
      px      :     3.011389
      py      :     3.320599
      dz2     :     0.014533  d :     0.085201
      dxz     :     0.005877
      dyz     :     0.003585
      dx2y2   :     0.017348
      dxy     :     0.043858

  3 H s       :     0.875942  s :     0.875942

  4 H s       :     0.872520  s :     0.872520

  5 H s       :     0.875919  s :     0.875919

  6 H s       :     0.879778  s :     0.879778

  7 H s       :     0.879804  s :     0.879804

  8 H s       :     0.922724  s :     0.922724


---------------------------------
LOEWDIN BOND ORDERS (THRESH 0.050000)
---------------------------------
B(  0-C ,  1-C ) :   1.1626 B(  0-C ,  2-S ) :   0.0568 B(  0-C ,  3-H ) :   0.9389 
B(  0-C ,  4-H ) :   0.9338 B(  0-C ,  5-H ) :   0.9389 B(  1-C ,  2-S ) :   1.1645 
B(  1-C ,  6-H ) :   0.9264 B(  1-C ,  7-H ) :   0.9264 B(  2-S ,  8-H ) :   0.9881 


------------------------------------------
LOEWDIN REDUCED ORBITAL POPULATIONS PER MO
-------------------------------------------
THRESHOLD FOR PRINTING IS 0.1%%
                      0         1         2         3         4         5   
                 -88.01136  -9.91981  -9.88813  -7.65782  -5.68629  -5.68247
                   2.00000   2.00000   2.00000   2.00000   2.00000   2.00000
                  --------  --------  --------  --------  --------  --------
 0 C  s               0.0       0.0      99.7       0.0       0.0       0.0
 1 C  s               0.0      99.7       0.0       0.0       0.0       0.0
 1 C  px              0.0       0.0       0.1       0.1       0.0       0.0
 2 S  s             100.0       0.0       0.0      99.7       0.0       0.0
 2 S  pz              0.0       0.0       0.0       0.0       0.0       1.0
 2 S  px              0.0       0.0       0.0       0.0      94.8       5.1
 2 S  py              0.0       0.0       0.0       0.0       5.1      93.8
 8 H  s               0.0       0.0       0.0       0.1       0.0       0.0

                      6         7         8         9        10        11   
                  -5.67382  -0.72428  -0.63478  -0.53542  -0.41507  -0.41354
                   2.00000   2.00000   2.00000   2.00000   2.00000   2.00000
                  --------  --------  --------  --------  --------  --------
 0 C  s               0.0      15.5      22.2       9.2       0.0       0.2
 0 C  pz              0.0       0.0       0.0       0.1      24.9       0.1
 0 C  px              0.0       2.2       0.2       3.2       0.0      20.0
 0 C  py              0.0       1.3       0.0       7.1       0.3       4.6
 0 C  dxz             0.0       0.0       0.0       0.0       0.1       0.0
 0 C  dxy             0.0       0.1       0.0       0.2       0.0       0.1
 1 C  s               0.0      30.0       0.5      17.9       0.0       0.1
 1 C  pz              0.0       0.0       0.0       0.1      38.4       0.2
 1 C  px              0.0       0.3      14.3       0.0       0.0       4.0
 1 C  py              0.0       1.8       0.5       9.1       0.4      18.4
 1 C  dz2             0.0       0.0       0.0       0.2       0.0       0.1
 1 C  dyz             0.0       0.0       0.0       0.0       0.1       0.0
 1 C  dxy             0.0       0.0       0.4       0.0       0.0       0.0
 2 S  s               0.0      21.8      33.8      10.4       0.0       0.2
 2 S  pz             99.0       0.0       0.0       0.0       2.8       0.0
 2 S  px              0.0       1.9       0.5       4.2       0.0      17.2
 2 S  py              1.0       1.2       1.4       0.2       0.0       6.5
 2 S  dz2             0.0       0.2       0.1       0.0       0.0       0.0
 2 S  dxz             0.0       0.0       0.0       0.0       0.2       0.0
 2 S  dx2y2           0.0       0.1       0.0       0.1       0.0       0.5
 2 S  dxy             0.0       0.0       0.0       0.5       0.0       0.4
 3 H  s               0.0       2.9       5.1       5.2       6.2       0.6
 4 H  s               0.0       2.7       6.0       3.7       0.0      11.0
 5 H  s               0.0       2.9       5.1       5.2       6.2       0.5
 6 H  s               0.0       5.5       0.1       9.3      10.2       2.0
 7 H  s               0.0       5.5       0.1       9.3      10.1       2.1
 8 H  s               0.0       3.8       9.6       4.5       0.0      10.8

                     12        13        14        15        16        17   
                  -0.34945  -0.32602  -0.32139  -0.28329  -0.19132   0.00100
                   2.00000   2.00000   2.00000   2.00000   2.00000   0.00000
                  --------  --------  --------  --------  --------  --------
 0 C  s               0.1       0.3       0.0       0.2       0.0       3.3
 0 C  pz              0.4       0.0      31.4       0.0       0.1       0.0
 0 C  px              0.2      28.3       0.0       0.6       0.0       1.0
 0 C  py             37.9       0.0       0.3       3.5       0.0       0.2
 0 C  dz2             0.4       0.0       0.0       0.1       0.0       0.0
 0 C  dyz             0.0       0.0       1.1       0.0       0.1       0.0
 0 C  dx2y2           0.1       0.2       0.0       0.3       0.0       0.0
 0 C  dxy             0.1       0.4       0.0       0.0       0.0       0.3
 1 C  s               0.0       0.2       0.0       0.2       0.0      10.8
 1 C  pz              0.1       0.0      16.2       0.1       1.9       0.0
 1 C  px             12.1      13.5       0.0       6.9       0.0       5.1
 1 C  py             12.4       1.8       0.2      10.7       0.0       0.4
 1 C  dz2             0.1       0.0       0.0       0.2       0.0       0.0
 1 C  dxz             0.0       0.0       0.1       0.0       0.3       0.0
 1 C  dyz             0.0       0.0       0.8       0.0       0.4       0.0
 1 C  dx2y2           0.1       0.1       0.0       0.4       0.0       0.0
 1 C  dxy             0.0       0.5       0.0       0.0       0.0       0.4
 2 S  s               3.8       3.0       0.0       9.3       0.0       1.0
 2 S  pz              0.1       0.0       2.8       0.5      90.8       0.0
 2 S  px              0.4      15.2       0.0      11.1       0.0      27.1
 2 S  py              8.3       6.3       0.0      41.1       0.9       3.5
 2 S  dz2             0.0       0.1       0.0       0.3       0.0       0.0
 2 S  dx2y2           0.1       0.0       0.0       0.0       0.0       2.2
 2 S  dxy             0.1       1.1       0.0       0.0       0.0       6.7
 3 H  s               7.5       0.3      14.6       1.1       0.2       2.3
 4 H  s               3.0      14.8       0.0       2.3       0.0       2.5
 5 H  s               7.5       0.3      14.6       1.1       0.2       2.3
 6 H  s               2.2       0.0       8.8       3.2       2.5       5.2
 7 H  s               2.2       0.0       8.8       3.2       2.5       5.2
 8 H  s               0.7      13.0       0.0       3.6       0.0      20.6

                     18        19        20        21        22        23   
                   0.04328   0.06348   0.08966   0.09079   0.11353   0.12855
                   0.00000   0.00000   0.00000   0.00000   0.00000   0.00000
                  --------  --------  --------  --------  --------  --------
 0 C  s               0.1      14.8       0.0      11.8       0.0       0.0
 0 C  pz              0.0       0.0       7.5       0.0       0.2      19.7
 0 C  px              0.1       2.8       0.0       0.1      11.8       0.0
 0 C  py              0.9       0.4       0.1       1.4      13.4       0.2
 0 C  dz2             0.1       0.0       0.0       0.1       1.1       0.0
 0 C  dxz             0.0       0.0       0.3       0.0       0.0       0.8
 0 C  dyz             0.0       0.0       1.0       0.0       0.0       0.6
 0 C  dx2y2           1.0       0.2       0.0       0.1       0.0       0.0
 0 C  dxy             0.0       0.0       0.0       0.2       0.3       0.0
 1 C  s               3.4       1.6       0.0      13.7       0.1       0.0
 1 C  pz              0.1       0.1      18.4       0.0       0.0       7.3
 1 C  px             15.0       2.5       0.0       0.8       1.8       0.0
 1 C  py              3.8       8.0       0.2       3.6       1.6       0.1
 1 C  dz2             0.3       0.8       0.0       0.0       0.3       0.0
 1 C  dxz             0.0       0.0       0.0       0.0       0.0       0.8
 1 C  dyz             0.0       0.0       1.6       0.0       0.0       0.0
 1 C  dx2y2           1.0       0.0       0.0       0.0       0.5       0.0
 1 C  dxy             0.5       0.0       0.0       0.4       0.2       0.0
 2 S  s              12.0       0.2       0.0       0.2       0.9       0.0
 2 S  pz              0.2       0.0       0.2       0.0       0.0       0.5
 2 S  px              5.5      10.2       0.0       0.3       0.8       0.0
 2 S  py             19.2       2.0       0.0       0.4       0.4       0.0
 2 S  dz2             3.4       0.1       0.0       0.6       0.0       0.0
 2 S  dxz             0.0       0.0       0.9       0.0       0.0       2.1
 2 S  dx2y2           1.3       2.1       0.0       0.0       0.0       0.0
 2 S  dxy             0.4       0.8       0.0       0.1       0.7       0.0
 3 H  s               1.3       7.9      10.0      11.4      10.4      24.3
 4 H  s               2.8      17.2       0.0       3.9      41.3       0.0
 5 H  s               1.3       7.9      10.1      11.3      10.4      24.2
 6 H  s               0.1       7.4      24.9      18.8       1.0       9.7
 7 H  s               0.1       7.4      24.6      19.1       0.9       9.7
 8 H  s              25.9       5.5       0.0       1.8       1.7       0.0

                     24        25        26        27        28        29   
                   0.17360   0.31606   0.38145   0.38795   0.39275   0.43842
                   0.00000   0.00000   0.00000   0.00000   0.00000   0.00000
                  --------  --------  --------  --------  --------  --------
 0 C  s               2.5       0.7       0.0       2.0       0.1       0.4
 0 C  pz              0.1       0.0      19.2       0.2       0.0       0.0
 0 C  px             19.5      11.1       0.0       4.4       5.8       9.4
 0 C  py             15.7       0.1       0.2      26.0       1.1       1.5
 0 C  dz2             1.5       0.1       0.2       3.9       0.9       0.9
 0 C  dyz             0.0       0.0       7.2       0.1       0.0       0.1
 0 C  dx2y2           0.0       0.8       0.1       0.5       0.4       0.9
 0 C  dxy             5.7       1.4       0.0       1.8       0.9       0.0
 1 C  s               4.2       0.3       0.0       0.7       0.8       2.0
 1 C  pz              0.1       0.0      10.3       0.1       0.1       0.3
 1 C  px             12.9       3.1       0.0      16.6       1.3      22.2
 1 C  py             16.3       3.1       0.1      10.5       7.2      23.0
 1 C  dz2             2.3       1.0       0.2       0.6       0.5       5.0
 1 C  dyz             0.1       0.0       6.6       0.0       0.0       0.1
 1 C  dx2y2           0.0       1.2       0.1       0.3       0.1       0.7
 1 C  dxy             4.9       0.1       0.0       3.0       0.1       2.4
 2 S  s               0.4       0.7       0.0       2.3      43.3       8.4
 2 S  pz              0.0       0.0       0.9       0.0       0.1       0.0
 2 S  px              0.6       3.2       0.0       2.1       0.3       0.1
 2 S  py              0.4       2.5       0.0       1.0       5.0       3.9
 2 S  dz2             0.1       6.5       0.0       0.0      17.3       2.0
 2 S  dxz             0.0       0.1       7.7       0.0       0.0       0.0
 2 S  dyz             0.1       0.2       0.0       0.1       0.7       0.0
 2 S  dx2y2           3.2       0.0       0.0      10.6       0.9       1.1
 2 S  dxy             1.1      12.3       0.1       0.0       0.2       1.4
 3 H  s               1.3       0.2      12.3       4.4       0.9       0.0
 4 H  s               1.9       6.2       0.0       0.3       4.6       0.4
 5 H  s               1.3       0.3      12.4       4.3       0.9       0.0
 6 H  s               1.7       1.9      11.2       0.4       0.5       6.9
 7 H  s               1.7       1.9      11.2       0.3       0.5       6.9
 8 H  s               0.5      41.1       0.0       3.5       5.5       0.0

                     30        31        32        33        34        35   
                   0.47661   0.48030   0.57275   0.61011   0.62150   0.64117
                   0.00000   0.00000   0.00000   0.00000   0.00000   0.00000
                  --------  --------  --------  --------  --------  --------
 0 C  s               0.0       0.0       9.9       0.0      10.6       0.0
 0 C  pz             24.7       0.2       0.1       0.6       0.0      35.6
 0 C  px              0.0       8.1      10.3       0.0       1.5       0.0
 0 C  py              0.3      15.3      18.0       0.0       2.5       0.3
 0 C  dz2             0.1       2.6       0.1       0.0       0.2       0.0
 0 C  dxz             1.9       0.0       0.0       0.0       0.0       0.5
 0 C  dyz             2.9       0.0       0.0       0.0       0.0       0.3
 0 C  dx2y2           0.0       0.7       0.1       0.0       0.0       0.0
 0 C  dxy             0.0       1.9       0.0       0.0       0.1       0.0
 1 C  s               0.0       0.8       2.8       0.0      31.5       0.0
 1 C  pz             17.6       0.0       0.0      16.0       0.1       3.2
 1 C  px              0.0       0.5      26.3       0.0       0.2       0.0
 1 C  py              0.2       1.5       7.5       0.2      11.7       0.0
 1 C  dz2             0.1       0.2       0.3       0.0       0.4       0.0
 1 C  dxz             3.1       0.0       0.0       0.0       0.0       0.0
 1 C  dyz             1.9       0.0       0.0       0.8       0.0       0.6
 1 C  dx2y2           0.0       1.3       0.0       0.0       0.0       0.0
 1 C  dxy             0.0       0.1       0.2       0.0       0.3       0.0
 2 S  s               0.0      21.7       1.2       0.0       1.0       0.0
 2 S  pz              0.7       0.0       0.0       1.7       0.0      30.6
 2 S  px              0.0       2.1       3.1       0.0       6.6       0.0
 2 S  py              0.0       2.3       0.2       0.0       3.2       0.3
 2 S  dz2             0.5       0.0       0.2       1.2       3.0       0.4
 2 S  dxz            22.9       0.0       0.0      18.2       0.0       2.6
 2 S  dyz            11.0       0.1       0.1      47.2       0.1      11.7
 2 S  dx2y2           0.1      15.6       3.0       0.6       0.0       0.1
 2 S  dxy             0.3       0.7       1.2       0.1       2.0       0.0
 3 H  s               3.9       1.1       2.4       0.2       2.2       4.8
 4 H  s               0.0      10.6       7.7       0.0       0.4       0.0
 5 H  s               3.9       1.1       2.4       0.2       2.2       4.8
 6 H  s               2.0       0.8       0.7       6.4      10.1       2.0
 7 H  s               2.0       0.8       0.7       6.4      10.1       2.0
 8 H  s               0.0       9.8       1.4       0.0       0.1       0.0

                     36        37        38        39        40        41   
                   0.64543   0.65473   0.66118   0.66671   0.70440   0.72263
                   0.00000   0.00000   0.00000   0.00000   0.00000   0.00000
                  --------  --------  --------  --------  --------  --------
 0 C  s              14.5      23.1       1.8       0.0       0.0      17.9
 0 C  pz              0.2       0.0       0.0      11.8      13.3       0.1
 0 C  px              1.6      19.4      11.1       0.0       0.0       0.8
 0 C  py             20.8       0.1       1.7       0.1       0.1       6.5
 0 C  dz2             1.2       0.1       0.6       0.1       0.0       0.0
 0 C  dxz             0.0       0.0       0.0       0.1       0.2       0.0
 0 C  dyz             0.0       0.0       0.0       2.7       0.3       0.0
 0 C  dx2y2           0.5       0.1       0.4       0.0       0.0       0.1
 0 C  dxy             0.3       0.4       0.4       0.0       0.0       0.4
 1 C  s               2.6       0.9       1.5       0.0       0.0      20.3
 1 C  pz              0.1       0.0       0.1      17.6      19.0       0.0
 1 C  px              8.1      11.7       1.9       0.0       0.0       1.5
 1 C  py              4.0       0.0      13.9       0.2       0.2       1.6
 1 C  dz2             0.3       0.0       0.8       0.0       0.0       0.2
 1 C  dxz             0.0       0.0       0.0       0.2       0.0       0.0
 1 C  dyz             0.0       0.0       0.0       1.4       0.0       0.0
 1 C  dx2y2           0.0       0.0       0.5       0.0       0.0       0.1
 1 C  dxy             0.2       0.0       0.4       0.0       0.0       0.1
 2 S  s               1.2       0.3       0.2       0.0       0.0       0.3
 2 S  pz              0.0       0.1       0.1       0.6      47.8       0.0
 2 S  px              0.9       8.7      14.4       0.0       0.0       7.0
 2 S  py              0.1       6.2      10.0       0.0       0.5       0.2
 2 S  dz2             0.2       8.6      15.9       0.5       0.0       1.8
 2 S  dxz             0.0       0.0       0.1       4.3       4.8       0.0
 2 S  dyz             0.0       0.1       0.5      18.6       0.0       0.0
 2 S  dx2y2           6.9       2.7       0.2       0.2       0.0       4.6
 2 S  dxy             5.5       0.1       3.2       0.0       0.0       2.7
 3 H  s              10.4       0.8       1.3      11.2       4.1       9.2
 4 H  s               3.6      13.8      11.5       0.0       0.0       7.1
 5 H  s              10.4       0.8       1.4      11.2       4.1       9.2
 6 H  s               2.9       0.9       3.0       9.6       2.7       3.5
 7 H  s               2.9       0.9       2.9       9.7       2.7       3.5
 8 H  s               0.5       0.3       0.0       0.0       0.0       1.2

                     42        43        44        45        46        47   
                   0.74100   0.81372   0.85410   0.97815   1.00121   1.07676
                   0.00000   0.00000   0.00000   0.00000   0.00000   0.00000
                  --------  --------  --------  --------  --------  --------
 0 C  s               2.9       2.4       0.0      28.8       0.1       0.6
 0 C  pz              0.1       0.1       3.4       0.0       0.0       0.0
 0 C  px              4.0       7.2       0.0       3.8       0.0       3.9
 0 C  py              5.9       4.4       0.0       0.3       0.1       0.3
 0 C  dz2             0.0       0.9       0.0       0.3       0.2       0.1
 0 C  dxz             0.0       0.0       7.3       0.0       0.0       0.0
 0 C  dx2y2           0.0       0.0       0.0       0.1       0.3       0.7
 0 C  dxy             0.0       0.6       0.1       0.2       0.0       0.0
 1 C  s               0.3      14.4       0.0      18.8       2.3      12.8
 1 C  pz              0.1       0.1      21.8       0.0       0.0       0.0
 1 C  px              4.0       1.4       0.0       0.0       1.3       2.4
 1 C  py             11.8       5.2       0.2       0.4       0.5       0.0
 1 C  dz2             1.6       0.1       0.1       0.1       0.3       0.3
 1 C  dxz             0.0       0.0       1.3       0.0       0.0       0.0
 1 C  dyz             0.1       0.0       4.7       0.0       0.0       0.0
 1 C  dx2y2           0.3       1.2       0.1       0.0       0.4       1.5
 1 C  dxy             0.0       0.2       0.0       0.1       0.3       1.2
 2 S  s               1.8       0.3       0.0       0.5       5.7      11.5
 2 S  pz              0.1       0.3      17.5       0.0       0.2       0.0
 2 S  px             14.5       0.3       0.0      10.9       2.7      25.4
 2 S  py             14.7      30.2       0.2       4.2      18.9       2.4
 2 S  dz2             1.3       1.2       0.3       4.1      19.0       9.2
 2 S  dxz             0.0       0.2      31.5       0.0       0.1       0.2
 2 S  dyz             0.4       0.1       6.3       0.1       1.0       0.0
 2 S  dx2y2          17.2       1.8       0.0       0.0       9.1      12.0
 2 S  dxy             4.8      18.2       0.3       6.0      16.0       8.8
 3 H  s               0.7       0.1       0.5       5.2       0.1       0.1
 4 H  s               5.0       0.7       0.0       3.6       0.0       0.1
 5 H  s               0.7       0.1       0.5       5.2       0.1       0.1
 6 H  s               0.4       2.2       1.9       2.4       0.5       3.1
 7 H  s               0.4       2.2       1.9       2.4       0.5       3.1
 8 H  s               7.0       4.1       0.0       2.5      20.3       0.4

                     48        49        50        51        52        53   
                   1.45118   1.50157   1.80881   1.86382   1.87090   2.07777
                   0.00000   0.00000   0.00000   0.00000   0.00000   0.00000
                  --------  --------  --------  --------  --------  --------
 0 C  s               0.0       0.0       2.1       0.0       0.0       0.0
 0 C  pz              0.0       0.3       0.0       4.2       0.0       1.4
 0 C  px              0.3       0.0       1.4       0.0       1.5       0.0
 0 C  py              0.3       0.0       1.4       0.0       1.7       0.0
 0 C  dz2             6.5       0.1      10.5       0.2      25.2       1.2
 0 C  dxz             0.0      34.5       0.2      42.7       0.1       5.2
 0 C  dyz             1.2       4.8       0.2       2.4       1.3      34.7
 0 C  dx2y2          40.9       0.1       0.1       0.0       5.7       0.3
 0 C  dxy             1.6       0.3      32.1       0.5       8.0       0.1
 1 C  s               0.3       0.0       2.0       0.0       0.1       0.0
 1 C  pz              0.0       3.8       0.0       4.4       0.0       1.7
 1 C  px              1.0       0.0       2.0       0.0       1.6       0.0
 1 C  py              0.2       0.0       1.5       0.0       2.8       0.0
 1 C  dz2             5.1       0.0       9.5       0.2      26.7       1.2
 1 C  dxz             0.0      46.8       0.2      34.8       0.1       4.3
 1 C  dyz             1.0       1.2       0.2       3.5       1.5      35.2
 1 C  dx2y2          32.9       0.0       0.0       0.0       7.0       0.3
 1 C  dxy             2.7       0.4      32.0       0.4       8.3       0.1
 2 S  s               1.0       0.0       0.1       0.0       0.7       0.0
 2 S  pz              0.0       0.9       0.0       0.0       0.0       0.0
 2 S  px              0.1       0.0       0.2       0.0       0.8       0.0
 2 S  py              1.5       0.0       0.0       0.0       0.0       0.0
 2 S  dz2             0.4       0.0       0.0       0.0       0.2       0.0
 2 S  dxz             0.0       3.5       0.0       0.2       0.0       0.1
 2 S  dyz             0.0       1.0       0.0       0.0       0.0       0.0
 2 S  dx2y2           0.6       0.0       0.4       0.0       1.4       0.0
 2 S  dxy             1.4       0.0       0.3       0.0       0.1       0.0
 3 H  s               0.1       0.3       0.7       1.5       0.6       3.6
 4 H  s               0.6       0.0       0.6       0.0       2.5       0.0
 5 H  s               0.1       0.3       0.7       1.5       0.6       3.6
 6 H  s               0.0       0.7       0.6       1.7       0.7       3.6
 7 H  s               0.0       0.7       0.6       1.7       0.7       3.6
 8 H  s               0.1       0.0       0.1       0.0       0.0       0.0

                     54        55        56        57   
                   2.09211   2.17384   2.17944   2.46517
                   0.00000   0.00000   0.00000   0.00000
                  --------  --------  --------  --------
 0 C  s               0.0       0.0       0.0       2.2
 0 C  pz              0.0       0.2       0.0       0.0
 0 C  px              1.3       0.0       0.1       2.8
 0 C  py              0.9       0.0       0.2       2.4
 0 C  dz2            18.8       1.0      10.4      10.1
 0 C  dxz             0.1       5.4       0.1       0.2
 0 C  dyz             0.5      37.9       0.0       0.2
 0 C  dx2y2           0.2       0.4      44.4       0.0
 0 C  dxy             6.1       0.0       4.4      30.9
 1 C  s               0.2       0.0       0.0       2.0
 1 C  pz              0.0       0.3       0.0       0.0
 1 C  px              0.6       0.0       0.1       2.8
 1 C  py              0.8       0.0       0.2       2.3
 1 C  dz2            30.1       1.0       0.2       9.3
 1 C  dxz             0.2       7.3       0.0       0.2
 1 C  dyz             0.3      37.2       0.2       0.2
 1 C  dx2y2          17.5       0.4      31.7       0.0
 1 C  dxy             8.5       0.0       0.0      31.7
 2 S  s               1.1       0.0       0.1       0.1
 2 S  px              1.4       0.0       0.1       0.2
 2 S  py              0.3       0.0       0.2       0.0
 2 S  dz2             0.9       0.0       0.1       0.0
 2 S  dx2y2           1.0       0.0       0.1       0.2
 2 S  dxy             1.1       0.0       0.8       0.1
 3 H  s               0.9       2.1       1.1       0.3
 4 H  s               2.9       0.0       4.2       0.4
 5 H  s               0.9       2.1       1.1       0.3
 6 H  s               1.5       2.3       0.1       0.3
 7 H  s               1.5       2.3       0.1       0.3


                      *****************************
                      * MAYER POPULATION ANALYSIS *
                      *****************************

  NA   - Mulliken gross atomic population
  ZA   - Total nuclear charge
  QA   - Mulliken gross atomic charge
  VA   - Mayer's total valence
  BVA  - Mayer's bonded valence
  FA   - Mayer's free valence

  ATOM       NA         ZA         QA         VA         BVA        FA
  0 C      6.2787     6.0000    -0.2787     3.9876     3.9876    -0.0000
  1 C      6.2921     6.0000    -0.2921     4.0688     4.0688     0.0000
  2 S     16.1918    16.0000    -0.1918     1.9878     1.9878    -0.0000
  3 H      0.8814     1.0000     0.1186     0.9566     0.9566    -0.0000
  4 H      0.8821     1.0000     0.1179     0.9517     0.9517    -0.0000
  5 H      0.8814     1.0000     0.1186     0.9566     0.9566    -0.0000
  6 H      0.8679     1.0000     0.1321     0.9313     0.9313    -0.0000
  7 H      0.8679     1.0000     0.1321     0.9313     0.9313     0.0000
  8 H      0.8566     1.0000     0.1434     0.9256     0.9256    -0.0000

  Mayer bond orders larger than 0.100000
B(  0-C ,  1-C ) :   1.1450 B(  0-C ,  3-H ) :   0.9528 B(  0-C ,  4-H ) :   0.9507 
B(  0-C ,  5-H ) :   0.9527 B(  1-C ,  2-S ) :   1.0531 B(  1-C ,  6-H ) :   0.9302 
B(  1-C ,  7-H ) :   0.9303 B(  2-S ,  8-H ) :   0.9101 

-------
TIMINGS
-------

Total SCF time: 0 days 0 hours 0 min 0 sec 

Total time                  ....       0.196 sec
Sum of individual times     ....       0.189 sec  ( 96.5%)

SCF preparation             ....       0.022 sec  ( 11.5%)
Fock matrix formation       ....       0.153 sec  ( 78.1%)
  Startup                   ....       0.000 sec  (  0.3% of F)
  Split-RI-J                ....       0.047 sec  ( 30.5% of F)
  XC integration            ....       0.104 sec  ( 68.2% of F)
    Basis function eval.    ....       0.047 sec  ( 44.9% of XC)
    Density eval.           ....       0.017 sec  ( 16.5% of XC)
    XC-Functional eval.     ....       0.015 sec  ( 14.6% of XC)
    XC-Potential eval.      ....       0.017 sec  ( 16.2% of XC)
Diagonalization             ....       0.000 sec  (  0.0%)
Density matrix formation    ....       0.001 sec  (  0.3%)
Total Energy calculation    ....       0.000 sec  (  0.1%)
Population analysis         ....       0.011 sec  (  5.4%)
Orbital Transformation      ....       0.001 sec  (  0.3%)
Orbital Orthonormalization  ....       0.000 sec  (  0.0%)
DIIS solution               ....       0.001 sec  (  0.3%)
  MO trafo                  ....       0.000 sec  (  0.0 % of DIIS)
  Orb grad                  ....       0.000 sec  (  0.0 % of DIIS)
  Energy W gradient         ....       0.000 sec  (  0.0 % of DIIS)
  DIIS error                ....       0.000 sec  (  7.7 % of DIIS)
  DIIS work                 ....       0.001 sec  ( 87.4 % of DIIS)
  Form Q                    ....       0.000 sec  (  0.0 % of DIIS)
  Form QpQm                 ....       0.000 sec  (  0.0 % of DIIS)
  Exp/Cayley                ....       0.000 sec  (  0.0 % of DIIS)
  Orb update                ....       0.000 sec  (  0.0 % of DIIS)
  Wake-sleep                ....       0.000 sec  (  4.7 % of DIIS)
SOSCF solution              ....       0.001 sec  (  0.6%)
  MO trafo                  ....       0.001 sec  ( 53.5 % of SOSCF)
  Orb grad                  ....       0.000 sec  (  2.0 % of SOSCF)
  Rot update                ....       0.000 sec  (  6.9 % of SOSCF)
  Step                      ....       0.000 sec  ( 34.6 % of SOSCF)
Finished LeanSCF after   0.2 sec

Maximum memory used throughout the entire LEANSCF-calculation: 6.5 MB


-------------------------------------------------------------------------------
                          DFT DISPERSION CORRECTION                            
                                                                               
                                DFTD4 V3.4.0                                   
-------------------------------------------------------------------------------
The PBE functional is recognized
Active option DFTDOPT                   ...         5   

-------------------------   ----------------
Dispersion correction           -0.005118660
-------------------------   ----------------

------------------   -----------------
gCP correction             0.036440338
------------------   -----------------

-------------------------   --------------------
FINAL SINGLE POINT ENERGY      -477.486111006581
-------------------------   --------------------


------------------------------------------------------------------------------
                              ORCA PROPERTY CALCULATIONS
------------------------------------------------------------------------------

GBWName                                 ... sp.gbw
Number of atoms                         ...      9
Number of basis functions               ...     58
Max core memory                         ...   1024 MB

Electric properties:
Dipole moment                           ... YES
Quadrupole moment                       ...  NO
Static polarizability (Dipole/Dipole)   ...  NO
Static polarizability (Dipole/Quad.)    ...  NO
Static polarizability (Quad./Quad.)     ...  NO
Static polarizability (Velocity)        ...  NO

Atomic electric properties:
Dipole moment                           ...  NO
Quadrupole moment                       ...  NO
Static polarizability                   ...  NO

Choice of electric origin               ... Center of mass
Position of electric origin             ...    -0.000017    -0.000005     0.000001

General magnetic properties:
Magnetizability                         ...  NO

EPR properties:
g-Tensor (aka g-matrix)                 ...  NO
Zero-Field splitting spin-orbit         ...  NO
Zero-field splitting spin-spin          ...  NO
Hyperfine couplings                     ...  NO (   0 nuclei)
Quadrupole couplings                    ...  NO (   0 nuclei)
Contact density                         ...  NO (   0 nuclei)

NMR properties:
Chemical shifts                         ...  NO (   0 nuclei)
Spin-rotation constants                 ...  NO (   0 nuclei)
Spin-spin couplings                     ...  NO (   0 nuclei,    0 pairs)

Choice of magnetic origin               ... GIAO
Position of magnetic origin             ...     0.000000     0.000000     0.000000

Properties with geometric perturbations:
SCF Hessian                             ...  NO
IR spectrum                             ...  NO
VCD spectrum                            ...  NO
X-ray spectroscopy properties:
SCF XES/XAS/RIXS spectra                ...  NO


-------------
DIPOLE MOMENT
-------------

Method             : SCF
Type of density    : Electron Density
Multiplicity       :   1
Irrep              :   0
Energy             :  -477.5174326851629871 Eh
Relativity type    : 
Basis              : AO
                                X                 Y                 Z
Electronic contribution:      4.833322086       0.924230410      -0.151063334
Nuclear contribution   :     -5.201172288      -1.431839943       0.206078985
                        -----------------------------------------
Total Dipole Moment    :     -0.367850202      -0.507609532       0.055015650
                        -----------------------------------------
Magnitude (a.u.)       :      0.629291610
Magnitude (Debye)      :      1.599532156



--------------------
Rotational spectrum 
--------------------
 
Rotational constants in cm-1:             0.966526             0.180618             0.161427 
Rotational constants in MHz :         28975.721532          5414.779620          4839.467288 

Dipole components along the rotational axes: 
x,y,z [a.u.] :    -0.354976    -0.519616    -0.000137 
x,y,z [Debye]:    -0.902276    -1.320758    -0.000347 

 

Dipole moment calculation done in   0.0 sec 

Maximum memory used throughout the entire PROP-calculation: 4.5 MB

--------------------------------
SUGGESTED CITATIONS FOR THIS RUN
--------------------------------

Below you find a list of papers that are relevant to this ORCA run
We neither can nor want to force you to cite these papers, but we appreciate if you do
You receive ORCA, which is the product of decades of hard work by many enthusiastic individuals, for free
The only thing we kindly ask in return is that you cite our papers,
We deeply appreciate it, if you show your appreciation for ORCA by not just citing the generic ORCA reference.

Please note that relegating all ORCA citations to the supporting information does *not* help us.
SI sections are not indexed - citations you put there will not count into any citation statistics
But we need these citations in order to attract the funding resources that allow us to do what we are doing

Therefore, if you are a happy ORCA user, please consider citing a few of the papers listed below in the main body of your paper

In addition to the list printed below, the program has created the file sp.bibtex that contains the list in bibtex format
You can import this file easily into all common literature databanks and citation aid programs


List of essential papers. We consider these as the minimum necessary citations

  1. Neese,F.
     Software update: the ORCA program system, version 5.0
     WIRES Comput. Molec. Sci., 2022 12(1)e1606
     doi.org/10.1002/wcms.1606

List of papers to cite with high priority. The work reported in these papers was absolutely
necessary for this run to complete.
Our perspective: the developers of density functionals and basis sets usually get cited in chemistry papers
Good! But without the algorithms to do something with them, the functionals or basis sets would not do anything.
Hence, in our opinion, the algorithm design and method developments papers are equally worthy of getting cited

  1. Neese,F.
     An improvement of the resolution of the identity approximation for the formation of the Coulomb matrix
     J. Comp. Chem., 2003 24(14)1740-1747
     doi.org/10.1002/jcc.10318
  2. Neese,F.
     The SHARK Integral Generation and Digestion System
     J. Comp. Chem., 2022  1-16
     doi.org/10.1002/jcc.26942
  3. Caldeweyher,E.; Bannwarth,C.; Grimme,S.
     Extension of the D3 dispersion coefficient model
     J. Chem. Phys., 2017 147 034112
     doi.org/10.1063/1.4993215
  4. Caldeweyher,E.; Ehlert,S.; Hansen,A.; Neugebauer,H.; Spicher,S.; Bannwarth,C.; Grimme,S.
     A generally applicable atomic-charge dependent London dispersion correction
     J. Chem. Phys., 2019 150 154122
     doi.org/10.1063/1.5090222
  5. Caldeweyher,E.; Mewes,J.; Ehlert,S.; Grimme,S.
     Extension and evaluation of the D4 London-dispersion model for periodic systems
     Phys. Chem. Chem. Phys., 2020 22(16)8499-8512
     doi.org/10.1039/D0CP00502A
  6. Wittmann,L.; Gordiy,I.; Friede,M.; Helmich-Paris,B.; Grimme,S.; Hansen,A.; Bursch,M.
     Extension of the D3 and D4 London Dispersion Corrections to the full Actinides Series
     Phys. Chem. Chem. Phys., 2024 26(32)21379-21394
     doi.org/https://doi.org/10.1039/D4CP01514B 

List of suggested additional citations. These are papers that are important in the 'surrounding' of 
of this run, or papers that preceded the highly important papers. If you like your results we are grateful for a citation.

  1. Neese,F.
     The ORCA program system
     WIRES Comput. Molec. Sci., 2012 2(1)73-78
     doi.org/10.1002/wcms.81
  2. Neese,F.
     Software update: the ORCA program system, version 4.0
     WIRES Comput. Molec. Sci., 2018 8(1)1-6
     doi.org/10.1002/wcms.1327
  3. Neese,F.; Wennmohs,F.; Becker,U.; Riplinger,C.
     The ORCA quantum chemistry program package
     J. Chem. Phys., 2020 152 Art. No. L224108
     doi.org/10.1063/5.0004608

List of optional additional citations

  1. Neese,F.
     Approximate second-order SCF convergence for spin unrestricted wavefunctions
     Chem. Phys. Lett., 2000 325(1-3)93-98
     doi.org/10.1016/s0009-2614(00)00662-x

Timings for individual modules:

Sum of individual times          ...        0.382 sec (=   0.006 min)
Startup calculation              ...        0.105 sec (=   0.002 min)  27.6 %
SCF iterations                   ...        0.243 sec (=   0.004 min)  63.5 %
Property calculations            ...        0.034 sec (=   0.001 min)   8.9 %
                             ****ORCA TERMINATED NORMALLY****
TOTAL RUN TIME: 0 days 0 hours 0 minutes 0 seconds 450 msec
