
                                 *****************
                                 * O   R   C   A *
                                 *****************

                                            #,                                       
                                            ###                                      
                                            ####                                     
                                            #####                                    
                                            ######                                   
                                           ########,                                 
                                     ,,################,,,,,                         
                               ,,#################################,,                 
                          ,,##########################################,,             
                       ,#########################################, ''#####,          
                    ,#############################################,,   '####,        
                  ,##################################################,,,,####,       
                ,###########''''           ''''###############################       
              ,#####''   ,,,,##########,,,,          '''####'''          '####       
            ,##' ,,,,###########################,,,                        '##       
           ' ,,###''''                  '''############,,,                           
         ,,##''                                '''############,,,,        ,,,,,,###''
      ,#''                                            '''#######################'''  
     '                                                          ''''####''''         
             ,#######,   #######,   ,#######,      ##                                
            ,#'     '#,  ##    ##  ,#'     '#,    #''#        ,####,   ,####,        
            ##       ##  ##   ,#'  ##            #'  '#       #'       #'  '#        
            ##       ##  #######   ##           ,######,      #####,   #    #        
            '#,     ,#'  ##    ##  '#,     ,#' ,#      #,     #,   #   #,  ,#        
             '#######'   ##     ##  '#######'  #'      '#     '####' # '####'        



                #########################################################
                #                        -***-                          #
                #          Department of theory and spectroscopy        #
                #                                                       #
                #                      Frank Neese                      #
                #                                                       #
                #     Directorship, Architecture, Infrastructure        #
                #                    SHARK, DRIVERS                     #
                #        Core code/Algorithms in most modules           #
                #                                                       #
                #        Max Planck Institute fuer Kohlenforschung      #
                #                Kaiser Wilhelm Platz 1                 #
                #                 D-45470 Muelheim/Ruhr                 #
                #                      Germany                          #
                #                                                       #
                #                  All rights reserved                  #
                #                        -***-                          #
                #########################################################


                         Program Version 6.0.1  -  RELEASE   -


 With contributions from (in alphabetic order):
[Max-Planck-Institut fuer Kohlenforschung]                               
  Daniel Aravena         : Magnetic Suceptibility                        
  Michael Atanasov       : Ab Initio Ligand Field Theory (pilot matlab implementation)
  Alexander A. Auer      : GIAO ZORA, VPT2 properties, NMR spectrum      
  Ute Becker             : All parallelization in ORCA, NUMFREQ, NUMCALC 
  Giovanni Bistoni       : ED, misc. LED, open-shell LED, HFLD           
  Martin Brehm           : Molecular dynamics                            
  Dmytro Bykov           : pre 5.0 version of the SCF Hessian            
  Marcos Casanova-Páez   : Triplet and SCS-CIS(D). UHF-(DLPNO)-IP/EA/STEOM-CCSD. UHF-CVS-IP/STEOM-CCSD   
  Vijay G. Chilkuri      : MRCI spin determinant printing, contributions to CSF-ICE 
  Pauline Colinet        : FMM embedding                                 
  Dipayan Datta          : RHF DLPNO-CCSD density                        
  Achintya Kumar Dutta   : EOM-CC, STEOM-CC                              
  Nicolas Foglia         : Exact transition moments, OPA infrastructure, MCD improvements    
  Dmitry Ganyushin       : Spin-Orbit,Spin-Spin,Magnetic field MRCI      
  Miquel Garcia-Rates    : C-PCM and meta-GGA Hessian, CCSD/C-PCM, Gaussian charge scheme 
  Tiago L. C. Gouveia    : GS-ROHF, GS-ROCIS                             
  Yang Guo               : DLPNO-NEVPT2, F12-NEVPT2, CIM, IAO-localization        
  Andreas Hansen         : Spin unrestricted coupled pair/coupled cluster methods 
  Ingolf Harden          : AUTO-CI MPn and infrastructure                
  Benjamin Helmich-Paris : MC-RPA, TRAH-(SCF,CASSCF), AVAS, COSX integrals, SCF dyn. polar. 
  Lee Huntington         : MR-EOM, pCC                                   
  Robert Izsak           : Overlap fitted RIJCOSX, COSX-SCS-MP3, EOM     
  Riya Kayal             : Wick's Theorem for AUTO-CI, AUTO-CI UHF-CCSDT 
  Emily Kempfer          : AUTO-CI, RHF CISDT and CCSDT                  
  Christian Kollmar      : KDIIS, OOCD, Brueckner-CCSD(T), CCSD density, CASPT2, CASPT2-K, improved NEVPT2 
  Axel Koslowski         : Symmetry handling                             
  Simone Kossmann        : meta-GGA functionals, TD-DFT gradient, OOMP2, (MP2 Hessian; deprecated post 5.0) 
  Lucas Lang             : DCDCAS                                        
  Marvin Lechner         : AUTO-CI (C++ implementation), FIC-MRCC        
  Spencer Leger          : CASSCF response                               
  Dagmar Lenk            : GEPOL surface, SMD, ORCA-2-JSON               
  Dimitrios Liakos       : Extrapolation schemes; Compound Job, initial MDCI parallelization 
  Dimitrios Manganas     : Further ROCIS development; embedding schemes. LFT, Crystal Embedding 
  Dimitrios Pantazis     : SARC Basis sets                               
  Anastasios Papadopoulos: AUTO-CI, single reference methods and gradients 
  Taras Petrenko         : pre 6.0 DFT Hessian and TD-DFT gradient, (ASA, deprecated), ECA, 1-Electron XAS/XES, NRVS 
  Peter Pinski           : DLPNO-MP2, DLPNO-MP2 Gradient                 
  Christoph Reimann      : Effective Core Potentials                     
  Marius Retegan         : Local ZFS, SOC                                
  Christoph Riplinger    : Optimizer, TS searches, QM/MM, DLPNO-CCSD(T), (RO)-DLPNO pert. Triples 
  Michael Roemelt        : Original ROCIS implementation                 
  Masaaki Saitow         : Open-shell DLPNO-CCSD energy and density      
  Barbara Sandhoefer     : DKH picture change effects                    
  Kantharuban Sivalingam : CASSCF convergence/infrastructure, NEVPT2 and variants, FIC-MRCI 
  Bernardo de Souza      : ESD, SOC TD-DFT                               
  Georgi L. Stoychev     : AutoAux, RI-MP2 NMR, DLPNO-MP2 response, X2C  
  Van Anh Tran           : RI-MP2 g-tensors                              
  Willem Van den Heuvel  : Paramagnetic NMR                              
  Zikuan Wang            : NOTCH, Electric field optimization            
  Frank Wennmohs         : Technical directorship and infrastructure     
  Hang Xu                : AUTO-CI-Response properties                   
                                                                         
[FACCTs GmbH]                                                            
  Markus Bursch, Miquel Garcia-Rates, Christoph Riplinger, Bernardo de Souza, Georgi L. Stoychev 
                                                                 
  APM, Basis sets (HGBS, AHGBS, def-TZVP (Ac-Lr), def2-XVPD (La-Lu)), CI-OPT, improved COSX, DLPNO-Multilevel,           
  DOCKER, DRACO, updates on ESD, GOAT, IRC, LR-CPCM, MBIS, meta-GGA TD-DFT gradient, ML-optimized integration grids, 
  MM, NACMEs, nearIR, NEB, NEB-TS, NL-DFT gradient (VV10), 2- and 3-layer-ONIOM, interface openCOSMO-RS, QMMM,   
  Crystal-QMMM, SF, symmetry and pop. for TD-DFT, r2SCAN hybrids, SOLVATOR                                   
                                                                         
[Other institutions]                                                     
  V. Asgeirsson          : NEB                                           
  Christoph Bannwarth    : sTDA-DFT, sTD-DFT, PBEh-3c, B97-3c, D3        
  Sebastian Ehlert       : rSCAN, r2SCAN, r2SCAN-3c, D4, dhf basis sets  
  Marvin Friede          : D4 for Fr, Ra, Ac-Lr                          
  Lars Goerigk           : TD-DFT with DH, B97 family of functionals     
  Stefan Grimme          : VdW corrections, initial TS optimization, DFT functionals, gCP, sTDA/sTD-DF 
  Waldemar Hujo          : DFT-NL                                        
  H. Jonsson             : NEB                                           
  Holger Kruse           : gCP                                           
  Marcel Mueller         : wB97X-3c, vDZP basis set                      
  Hagen Neugebauer       : wr2SCAN                                       
  Tobias Risthaus        : range-separated hybrid DFT                    
  Lukas Wittmann         : regularized MP2, r2SCAN double-hybrids, wr2SCAN        
                                                                         
We gratefully acknowledge several colleagues who have allowed us to      
interface, adapt or use parts of their codes:                            
  Ed Valeev, F. Pavosevic, A. Kumar             : LibInt (2-el integral package), F12 methods 
  Garnet Chan, S. Sharma, J. Yang, R. Olivares  : DMRG                   
  Ulf Ekstrom                                   : XCFun DFT Library      
  Mihaly Kallay                                 : mrcc  (arbitrary order and MRCC methods)
  Frank Weinhold                                : gennbo (NPA and NBO analysis)           
  Simon Mueller                                 : openCOSMO-RS                            
  Christopher J. Cramer and Donald G. Truhlar   : smd solvation model                     
  S Lehtola, MJT Oliveira, MAL Marques          : LibXC Library                           
  Liviu Ungur et al                             : ANISO software                          


 Your calculation uses the libint2 library for the computation of 2-el integrals
 For citations please refer to: http://libint.valeyev.net

 Your ORCA version has been built with support for libXC version: 6.2.2
 For citations please refer to: https://libxc.gitlab.io

 This ORCA versions uses:
   CBLAS   interface :  Fast vector & matrix operations
   LAPACKE interface :  Fast linear algebra routines
   SCALAPACK package :  Parallel linear algebra routines
   Shared memory     :  Shared parallel matrices
   BLAS/LAPACK       :  OpenBLAS 0.3.27  USE64BITINT DYNAMIC_ARCH NO_AFFINITY Zen SINGLE_THREADED
        Core in use  :  Zen
   Copyright (c) 2011-2014, The OpenBLAS Project


Your calculation utilizes the geometrical counterpoise correction gCP
Please cite in your paper:
H.Kruse, S. Grimme J.Chem.Phys., 136, (2012), 154101 
   

Your calculation utilizes the atom-pairwise dispersion correction
based on EEQ partial charges (D4)


================================================================================

----- Orbital basis set information -----
Your calculation utilizes the basis: def2-SV(P)
   F. Weigend and R. Ahlrichs, Phys. Chem. Chem. Phys. 7, 3297 (2005).

----- AuxJ basis set information -----
Your calculation utilizes the auxiliary basis: def2/J
   F. Weigend, Phys. Chem. Chem. Phys. 8, 1057 (2006).

================================================================================
                                        WARNINGS
                       Please study these warnings very carefully!
================================================================================

WARNING: Old DensityContainer found on disk!
         Will remove this file - 
         If you want to keep old densities, please start your calculation with a different basename. 


================================================================================
                                       INPUT FILE
================================================================================
NAME = sp.inp
|  1> ! pbe def2-sv(p) def2/J RI DEFGRID1 loosescf d4 GCP(DFT/SV(P)) printgap
|  2> %output
|  3>     printlevel normal
|  4> end
|  5> * xyz 0 1
|  6> C -1.2511040237 0.3046165749 -0.017332374
|  7> C -0.0076961462 -0.5749391016 -0.0173408397
|  8> N 1.185335481 0.2576111148 -0.017339819
|  9> H -1.2120148982 0.9934583892 -0.8563844996
| 10> H -2.1465832483 -0.3058028935 -0.0987143365
| 11> H -1.3065968694 0.8838786684 0.9021877303
| 12> H 0.0159736799 -1.1768545063 -0.9304816711
| 13> H -0.0528017914 -1.2683352277 0.8412676734
| 14> H 1.209386553 0.8317783258 0.8194439567
| 15> H 2.0210722908 -0.3167275122 -0.0231531496
| 16> *
| 17> 
| 18>                          ****END OF INPUT****
================================================================================

                       ****************************
                       * Single Point Calculation *
                       ****************************

---------------------------------
CARTESIAN COORDINATES (ANGSTROEM)
---------------------------------
  C     -1.251104    0.304617   -0.017332
  C     -0.007696   -0.574939   -0.017341
  N      1.185335    0.257611   -0.017340
  H     -1.212015    0.993458   -0.856384
  H     -2.146583   -0.305803   -0.098714
  H     -1.306597    0.883879    0.902188
  H      0.015974   -1.176855   -0.930482
  H     -0.052802   -1.268335    0.841268
  H      1.209387    0.831778    0.819444
  H      2.021072   -0.316728   -0.023153

----------------------------
CARTESIAN COORDINATES (A.U.)
----------------------------
  NO LB      ZA    FRAG     MASS         X           Y           Z
   0 C     6.0000    0    12.011   -2.364244    0.575642   -0.032753
   1 C     6.0000    0    12.011   -0.014544   -1.086477   -0.032769
   2 N     7.0000    0    14.007    2.239959    0.486814   -0.032768
   3 H     1.0000    0     1.008   -2.290376    1.877364   -1.618332
   4 H     1.0000    0     1.008   -4.056454   -0.577884   -0.186543
   5 H     1.0000    0     1.008   -2.469110    1.670289    1.704888
   6 H     1.0000    0     1.008    0.030186   -2.223933   -1.758356
   7 H     1.0000    0     1.008   -0.099781   -2.396806    1.589766
   8 H     1.0000    0     1.008    2.285409    1.571833    1.548525
   9 H     1.0000    0     1.008    3.819273   -0.598528   -0.043753

--------------------------------
INTERNAL COORDINATES (ANGSTROEM)
--------------------------------
 C      0   0   0     0.000000000000     0.00000000     0.00000000
 C      1   0   0     1.523050011642     0.00000000     0.00000000
 N      2   1   0     1.454807315877   109.81632697     0.00000000
 H      1   2   3     1.086296218503   109.68327783    55.11819459
 H      1   2   3     1.086792525238   110.38438447   175.41806202
 H      1   2   3     1.088182544935   110.42925765   295.61533835
 H      2   1   3     1.093932627291   109.59841205   242.38244698
 H      2   1   3     1.104554790713   109.21942983   124.59154876
 H      3   2   1     1.015112568894   110.06708812    61.35430292
 H      3   2   1     1.014078235903   110.59281315   180.35053915

---------------------------
INTERNAL COORDINATES (A.U.)
---------------------------
 C      0   0   0     0.000000000000     0.00000000     0.00000000
 C      1   0   0     2.878147410270     0.00000000     0.00000000
 N      2   1   0     2.749187404632   109.81632697     0.00000000
 H      1   2   3     2.052802353285   109.68327783    55.11819459
 H      1   2   3     2.053740237092   110.38438447   175.41806202
 H      1   2   3     2.056366993641   110.42925765   295.61533835
 H      2   1   3     2.067233074542   109.59841205   242.38244698
 H      2   1   3     2.087306054358   109.21942983   124.59154876
 H      3   2   1     1.918284750311   110.06708812    61.35430292
 H      3   2   1     1.916330144226   110.59281315   180.35053915

---------------------
BASIS SET INFORMATION
---------------------
There are 3 groups of distinct atoms

 Group   1 Type C   : 7s4p1d contracted to 3s2p1d pattern {511/31/1}
 Group   2 Type N   : 7s4p1d contracted to 3s2p1d pattern {511/31/1}
 Group   3 Type H   : 4s contracted to 2s pattern {31}

Atom   0C    basis set group =>   1
Atom   1C    basis set group =>   1
Atom   2N    basis set group =>   2
Atom   3H    basis set group =>   3
Atom   4H    basis set group =>   3
Atom   5H    basis set group =>   3
Atom   6H    basis set group =>   3
Atom   7H    basis set group =>   3
Atom   8H    basis set group =>   3
Atom   9H    basis set group =>   3
---------------------------------
AUXILIARY/J BASIS SET INFORMATION
---------------------------------
There are 3 groups of distinct atoms

 Group   1 Type C   : 12s5p4d2f1g contracted to 6s4p3d1f1g pattern {711111/2111/211/2/1}
 Group   2 Type N   : 12s5p4d2f1g contracted to 6s4p3d1f1g pattern {711111/2111/211/2/1}
 Group   3 Type H   : 5s2p1d contracted to 3s1p1d pattern {311/2/1}

Atom   0C    basis set group =>   1
Atom   1C    basis set group =>   1
Atom   2N    basis set group =>   2
Atom   3H    basis set group =>   3
Atom   4H    basis set group =>   3
Atom   5H    basis set group =>   3
Atom   6H    basis set group =>   3
Atom   7H    basis set group =>   3
Atom   8H    basis set group =>   3
Atom   9H    basis set group =>   3

Checking for AutoStart:
The File: sp.gbw exists
Trying to determine its content:
     ... Fine, the file contains calculation information
     ... Fine, the calculation information was read
     ... Fine, the file contains a basis set
     ... Fine, the basis set was read
     ... Fine, the file contains a geometry
     ... Fine, the geometry was read
     ... Fine, the file contains a set of orbitals
     ... Fine, the orbitals can be read
     => possible old guess file was deleted
     => GBW file was renamed to GES file
     => GES file is set as startup file
     => Guess is set to MORead
     ... now leaving AutoStart

------------------------------------------------------------------------------
                             ORCA STARTUP CALCULATIONS
                           -- RI-GTO INTEGRALS CHOSEN --
------------------------------------------------------------------------------
------------------------------------------------------------------------------
                   ___                                                        
                  /   \      - P O W E R E D   B Y -                         
                 /     \                                                     
                 |  |  |   _    _      __       _____    __    __             
                 |  |  |  | |  | |    /  \     |  _  \  |  |  /  |          
                  \  \/   | |  | |   /    \    | | | |  |  | /  /          
                 / \  \   | |__| |  /  /\  \   | |_| |  |  |/  /          
                |  |  |   |  __  | /  /__\  \  |    /   |      \           
                |  |  |   | |  | | |   __   |  |    \   |  |\   \          
                \     /   | |  | | |  |  |  |  | |\  \  |  | \   \       
                 \___/    |_|  |_| |__|  |__|  |_| \__\ |__|  \__/        
                                                                              
                      - O R C A' S   B I G   F R I E N D -                    
                                      &                                       
                       - I N T E G R A L  F E E D E R -                       
                                                                              
 v1 FN, 2020, v2 2021, v3 2022-2024                                           
------------------------------------------------------------------------------


----------------------
SHARK INTEGRAL PACKAGE
----------------------

Number of atoms                             ...     10
Number of basis functions                   ...     56
Number of shells                            ...     32
Maximum angular momentum                    ...      2
Integral batch strategy                     ... SHARK/LIBINT Hybrid
RI-J (if used) integral strategy            ... SPLIT-RIJ (Revised 2003 algorithm where possible)
Printlevel                                  ...      1
Contraction scheme used                     ... SEGMENTED contraction
Prescreening option                         ... SCHWARTZ
   Thresh                                   ... 1.000e-09
   Tcut                                     ... 1.000e-10
   Tpresel                                  ... 1.000e-10 
Coulomb Range Separation                    ... NOT USED
Exchange Range Separation                   ... NOT USED
Multipole approximations                    ... NOT USED
Finite Nucleus Model                        ... NOT USED
CABS basis                                  ... NOT available
Auxiliary Coulomb fitting basis             ... AVAILABLE
   # of basis functions in Aux-J            ...    224
   # of shells in Aux-J                     ...     80
   Maximum angular momentum in Aux-J        ...      4
Auxiliary J/K fitting basis                 ... NOT available
Auxiliary Correlation fitting basis         ... NOT available
Auxiliary 'external' fitting basis          ... NOT available

Checking pre-screening integrals            ... done (  0.0 sec) Dimension = 32
Check shell pair data                       ... done (  0.0 sec)
Shell pair information
Shell pair cut-off parameter TPreSel        ...   1.0e-10
Total number of shell pairs                 ...       528
Shell pairs after pre-screening             ...       527
Total number of primitive shell pairs       ...      2140
Primitive shell pairs kept                  ...      1760
          la=0 lb=0:    275 shell pairs
          la=1 lb=0:    138 shell pairs
          la=1 lb=1:     21 shell pairs
          la=2 lb=0:     69 shell pairs
          la=2 lb=1:     18 shell pairs
          la=2 lb=2:      6 shell pairs

Calculating one electron integrals          ... done (  0.0 sec)
Calculating RI/J V-Matrix + Cholesky decomp.... done (  0.0 sec)
Calculating Nuclear repulsion               ... done (  0.0 sec) ENN=     83.258545107634 Eh

Diagonalization of the overlap matrix:
Smallest eigenvalue                        ... 3.432e-03
Time for diagonalization                   ...    0.000 sec
Threshold for overlap eigenvalues          ... 1.000e-07
Number of eigenvalues below threshold      ... 0
Time for construction of square roots      ...    0.000 sec
Total time needed                          ...    0.001 sec

-------------------
DFT GRID GENERATION
-------------------

General Integration Accuracy     IntAcc      ... 4.159
Radial Grid Type                 RadialGrid  ... OptM3 with GC (2021)
Angular Grid (max. ang.)         AngularGrid ... 3 (Lebedev-194)
Angular grid pruning method      GridPruning ... 4 (adaptive)
Weight generation scheme         WeightScheme... mBecke (2022)
Basis function cutoff            BFCut       ... 1.0000e-10
Integration weight cutoff        WCut        ... 1.0000e-14
Partially contracted basis set               ... off
Rotationally invariant grid construction     ... off
Angular grids for H and He will be reduced by one unit

Total number of grid points                  ...    19923
Total number of batches                      ...      318
Average number of points per batch           ...       62
Average number of grid points per atom       ...     1992
Initializing property integral containers    ... done (  0.0 sec)

SHARK setup successfully completed in   0.1 seconds

Maximum memory used throughout the entire STARTUP-calculation: 10.1 MB
-------------------------------------------------------------------------------
                                 ORCA GUESS
                   Start orbitals & Density for SCF / CASSCF
-------------------------------------------------------------------------------

------------
SCF SETTINGS
------------
Hamiltonian:
 Density Functional     Method          .... DFT(GTOs)
 Exchange Functional    Exchange        .... PBE
   PBE kappa parameter   XKappa         ....  0.804000
   PBE mue parameter    XMuePBE         ....  0.219520
 Correlation Functional Correlation     .... PBE
   PBE beta parameter  CBetaPBE         ....  0.066725
 LDA part of GGA corr.  LDAOpt          .... PW91-LDA
 Gradients option       PostSCFGGA      .... off
   NL short-range parameter             ....  6.400000
 RI-approximation to the Coulomb term is turned on
   Number of AuxJ basis functions       .... 224


General Settings:
 Integral files         IntName         .... sp
 Hartree-Fock type      HFTyp           .... RHF
 Total Charge           Charge          ....    0
 Multiplicity           Mult            ....    1
 Number of Electrons    NEL             ....   26
 Basis Dimension        Dim             ....   56
 Nuclear Repulsion      ENuc            ....     83.2585451076 Eh

Convergence Acceleration:
 AO-DIIS                CNVDIIS         .... on
   Start iteration      DIISMaxIt       ....    12
   Startup error        DIISStart       ....  0.200000
   # of expansion vecs  DIISMaxEq       ....     5
   Bias factor          DIISBfac        ....   1.050
   Max. coefficient     DIISMaxC        ....  10.000
 MO-DIIS                CNVKDIIS        .... off
 Trust-Rad. Augm. Hess. CNVTRAH         .... auto
   Auto Start mean grad. ratio tolernc. ....  1.125000
   Auto Start start iteration           ....     1
   Auto Start num. interpolation iter.  ....    10
   Max. Number of Micro iterations      ....    24
   Max. Number of Macro iterations      .... Maxiter - #DIIS iter
   Number of Davidson start vectors     ....     2
   Converg. threshold    (grad. norm)   ....   1.000e-04
   Grad. Scal. Fac. for Micro threshold ....   0.100
   Minimum threshold for Micro iter.    ....   1.000e-02
   NR start threshold (gradient norm)   ....   1.000e-04
   Initial trust radius                 ....   0.400
   Minimum AH scaling param. (alpha)    ....   1.000
   Maximum AH scaling param. (alpha)    .... 1000.000
   Quad. conv. algorithm                .... NR
   White noise on init. David. guess    .... on
   Maximum white noise                  ....   0.010
   Pseudo random numbers                .... off
   Inactive MOs                         .... canonical
   Orbital update algorithm             .... Taylor
   Preconditioner                       .... Diag
   Full preconditioner red. dimension   ....   250
 SOSCF                  CNVSOSCF        .... on
   Start iteration      SOSCFMaxIt      ....   150
   Startup grad/error   SOSCFStart      ....  0.003300
   Hessian update       SOSCFHessUp     .... L-BFGS
 Level Shifting         CNVShift        .... on
   Level shift para.    LevelShift      ....    0.2500
   Turn off err/grad.   ShiftErr        ....    0.0010
 Zerner damping         CNVZerner       .... off
 Static damping         CNVDamp         .... on
   Fraction old density DampFac         ....    0.7000
   Max. Damping (<1)    DampMax         ....    0.9800
   Min. Damping (>=0)   DampMin         ....    0.0000
   Turn off err/grad.   DampErr         ....    0.1000

SCF Procedure:
 Maximum # iterations   MaxIter         ....   125
 SCF integral mode      SCFMode         .... Direct
   Integral package                     .... SHARK and LIBINT hybrid scheme
 Reset frequency        DirectResetFreq ....    20
 Integral Threshold     Thresh          ....  1.000e-09 Eh
 Primitive CutOff       TCut            ....  1.000e-10 Eh

Convergence Tolerance:
 Convergence Check Mode ConvCheckMode   .... Total+1el-Energy
 Convergence forced     ConvForced      .... 0
 Energy Change          TolE            ....  1.000e-05 Eh
 1-El. energy change                    ....  1.000e-02 Eh
 Orbital Gradient       TolG            ....  1.000e-04
 Orbital Rotation angle TolX            ....  1.000e-04
 DIIS Error             TolErr          ....  5.000e-04

---------------------
INITIAL GUESS: MOREAD
---------------------
Guess MOs are being read from file: sp.ges
Input Geometry matches current geometry (good)
Input basis set matches current basis set (good)
Occupation numbers will be reassigned to an Aufbau configuration
MOs were renormalized
MOs were reorthogonalized (Cholesky)
                      ------------------
                      INITIAL GUESS DONE (   0.0 sec)
                      ------------------
             **** ENERGY FILE WAS UPDATED (sp.en.tmp) ****
Finished Guess after   0.0 sec
Maximum memory used throughout the entire GUESS-calculation: 6.3 MB

-------------------------------------------------------------------------------------------
                                      ORCA LEAN-SCF
                              memory conserving SCF solver
-------------------------------------------------------------------------------------------

----------------------------------------D-I-I-S--------------------------------------------
Iteration    Energy (Eh)           Delta-E    RMSDP     MaxDP     DIISErr   Damp  Time(sec)
-------------------------------------------------------------------------------------------
               ***  Starting incremental Fock matrix formation  ***
                              *** Initializing SOSCF ***
---------------------------------------S-O-S-C-F--------------------------------------
Iteration    Energy (Eh)           Delta-E    RMSDP     MaxDP     MaxGrad    Time(sec)
--------------------------------------------------------------------------------------
    1    -134.8588200294516639     0.00e+00  2.28e-05  2.42e-04  1.63e-05     0.1
               *** Restarting incremental Fock matrix formation ***
    2    -134.8588200923297222    -6.29e-08  2.87e-05  2.68e-04  4.35e-05     0.1
    3    -134.8588200396995660     5.26e-08  1.44e-05  1.69e-04  8.36e-05     0.0
                 **** Energy Check signals convergence ****

               *****************************************************
               *                     SUCCESS                       *
               *           SCF CONVERGED AFTER   3 CYCLES          *
               *****************************************************

             **** ENERGY FILE WAS UPDATED (sp.en.tmp) ****

----------------
TOTAL SCF ENERGY
----------------

Total Energy       :       -134.85882003969957 Eh           -3669.69506 eV

Components:
Nuclear Repulsion  :         83.25854510763446 Eh            2265.58019 eV
Electronic Energy  :       -218.11736514733403 Eh           -5935.27525 eV
One Electron Energy:       -345.72647951495060 Eh           -9407.69579 eV
Two Electron Energy:        127.60911436761657 Eh            3472.42054 eV

Virial components:
Potential Energy   :       -268.57290243305937 Eh           -7308.24022 eV
Kinetic Energy     :        133.71408239335980 Eh            3638.54516 eV
Virial Ratio       :          2.00856108515909

DFT components:
N(Alpha)           :       12.999970186778 electrons
N(Beta)            :       12.999970186778 electrons
N(Total)           :       25.999940373557 electrons
E(X)               :      -19.345591001459 Eh       
E(C)               :       -0.843280375797 Eh       
E(XC)              :      -20.188871377255 Eh       

---------------
SCF CONVERGENCE
---------------

  Last Energy change         ...   -5.2630e-08  Tolerance :   1.0000e-05
  Last MAX-Density change    ...    1.6943e-04  Tolerance :   1.0000e-03
  Last RMS-Density change    ...    1.4422e-05  Tolerance :   1.0000e-04
  Last DIIS Error            ...    1.4348e-04  Tolerance :   5.0000e-04
  Last Orbital Gradient      ...    8.3568e-05  Tolerance :   1.0000e-04
  Last Orbital Rotation      ...    4.9443e-05  Tolerance :   1.0000e-04


----------------
ORBITAL ENERGIES
----------------

  NO   OCC          E(Eh)            E(eV) 
   0   2.0000     -13.956914      -379.7869 
   1   2.0000      -9.904680      -269.5200 
   2   2.0000      -9.870060      -268.5780 
   3   2.0000      -0.790114       -21.5001 
   4   2.0000      -0.649692       -17.6790 
   5   2.0000      -0.532543       -14.4912 
   6   2.0000      -0.436639       -11.8816 
   7   2.0000      -0.410297       -11.1647 
   8   2.0000      -0.375671       -10.2225 
   9   2.0000      -0.321216        -8.7407 
  10   2.0000      -0.314373        -8.5545 
  11   2.0000      -0.300078        -8.1655 
  12   2.0000      -0.178676        -4.8620 
  13   0.0000       0.035197         0.9577 
  14   0.0000       0.075842         2.0638 
  15   0.0000       0.081426         2.2157 
  16   0.0000       0.104488         2.8433 
  17   0.0000       0.121218         3.2985 
  18   0.0000       0.135411         3.6847 
  19   0.0000       0.143935         3.9167 
  20   0.0000       0.199279         5.4227 
  21   0.0000       0.208732         5.6799 
  22   0.0000       0.408770        11.1232 
  23   0.0000       0.416073        11.3219 
*Only the first 10 virtual orbitals were printed.

                    ********************************
                    * MULLIKEN POPULATION ANALYSIS *
                    ********************************

-----------------------
MULLIKEN ATOMIC CHARGES
-----------------------
   0 C :   -0.289377
   1 C :   -0.094445
   2 N :   -0.466893
   3 H :    0.108890
   4 H :    0.100179
   5 H :    0.094615
   6 H :    0.083766
   7 H :    0.065528
   8 H :    0.197080
   9 H :    0.200658
Sum of atomic charges:    0.0000000

--------------------------------
MULLIKEN REDUCED ORBITAL CHARGES
--------------------------------
  0 C s       :     3.102089  s :     3.102089
      pz      :     1.075520  p :     3.158829
      px      :     1.031209
      py      :     1.052100
      dz2     :     0.005234  d :     0.028459
      dxz     :     0.001920
      dyz     :     0.010010
      dx2y2   :     0.004046
      dxy     :     0.007249

  1 C s       :     3.046469  s :     3.046469
      pz      :     1.054679  p :     2.995569
      px      :     0.925071
      py      :     1.015818
      dz2     :     0.006864  d :     0.052406
      dxz     :     0.007201
      dyz     :     0.015107
      dx2y2   :     0.010942
      dxy     :     0.012292

  2 N s       :     3.526667  s :     3.526667
      pz      :     1.517358  p :     3.917133
      px      :     1.090171
      py      :     1.309604
      dz2     :     0.006301  d :     0.023093
      dxz     :     0.001655
      dyz     :     0.005080
      dx2y2   :     0.002251
      dxy     :     0.007806

  3 H s       :     0.891110  s :     0.891110

  4 H s       :     0.899821  s :     0.899821

  5 H s       :     0.905385  s :     0.905385

  6 H s       :     0.916234  s :     0.916234

  7 H s       :     0.934472  s :     0.934472

  8 H s       :     0.802920  s :     0.802920

  9 H s       :     0.799342  s :     0.799342


------------------------
MULLIKEN OVERLAP CHARGES
------------------------
B(  0-C ,  1-C ) :   0.9256 B(  0-C ,  2-N ) :  -0.1409 B(  0-C ,  3-H ) :   0.7202 
B(  0-C ,  4-H ) :   0.7075 B(  0-C ,  5-H ) :   0.7665 B(  0-C ,  7-H ) :  -0.0863 
B(  1-C ,  2-N ) :   0.7852 B(  1-C ,  5-H ) :  -0.0505 B(  1-C ,  6-H ) :   0.7234 
B(  1-C ,  7-H ) :   0.7139 B(  1-C ,  8-H ) :  -0.0748 B(  2-N ,  6-H ) :  -0.0659 
B(  2-N ,  7-H ) :  -0.0663 B(  2-N ,  8-H ) :   0.6407 B(  2-N ,  9-H ) :   0.6254 
B(  3-H ,  5-H ) :  -0.0619 B(  6-H ,  7-H ) :  -0.0970 B(  8-H ,  9-H ) :  -0.0655 



                     *******************************
                     * LOEWDIN POPULATION ANALYSIS *
                     *******************************

----------------------
LOEWDIN ATOMIC CHARGES
----------------------
   0 C :   -0.349732
   1 C :   -0.182138
   2 N :   -0.421877
   3 H :    0.122465
   4 H :    0.119772
   5 H :    0.113763
   6 H :    0.109968
   7 H :    0.086107
   8 H :    0.199450
   9 H :    0.202222

-------------------------------
LOEWDIN REDUCED ORBITAL CHARGES
-------------------------------
  0 C s       :     2.952347  s :     2.952347
      pz      :     1.129622  p :     3.327738
      px      :     1.087568
      py      :     1.110548
      dz2     :     0.013770  d :     0.069647
      dxz     :     0.003336
      dyz     :     0.023515
      dx2y2   :     0.009543
      dxy     :     0.019484

  1 C s       :     2.906269  s :     2.906269
      pz      :     1.107995  p :     3.156353
      px      :     0.991182
      py      :     1.057176
      dz2     :     0.016672  d :     0.119516
      dxz     :     0.013316
      dyz     :     0.035233
      dx2y2   :     0.021950
      dxy     :     0.032345

  2 N s       :     3.260237  s :     3.260237
      pz      :     1.561722  p :     4.115054
      px      :     1.167100
      py      :     1.386232
      dz2     :     0.011398  d :     0.046586
      dxz     :     0.002634
      dyz     :     0.009540
      dx2y2   :     0.005914
      dxy     :     0.017100

  3 H s       :     0.877535  s :     0.877535

  4 H s       :     0.880228  s :     0.880228

  5 H s       :     0.886237  s :     0.886237

  6 H s       :     0.890032  s :     0.890032

  7 H s       :     0.913893  s :     0.913893

  8 H s       :     0.800550  s :     0.800550

  9 H s       :     0.797778  s :     0.797778


---------------------------------
LOEWDIN BOND ORDERS (THRESH 0.050000)
---------------------------------
B(  0-C ,  1-C ) :   1.1404 B(  0-C ,  2-N ) :   0.0633 B(  0-C ,  3-H ) :   0.9388 
B(  0-C ,  4-H ) :   0.9379 B(  0-C ,  5-H ) :   0.9407 B(  1-C ,  2-N ) :   1.2013 
B(  1-C ,  6-H ) :   0.9158 B(  1-C ,  7-H ) :   0.9116 B(  2-N ,  8-H ) :   0.9221 
B(  2-N ,  9-H ) :   0.9211 

------------------------------------------
LOEWDIN REDUCED ORBITAL POPULATIONS PER MO
-------------------------------------------
THRESHOLD FOR PRINTING IS 0.1%%
                      0         1         2         3         4         5   
                 -13.95691  -9.90468  -9.87006  -0.79011  -0.64969  -0.53254
                   2.00000   2.00000   2.00000   2.00000   2.00000   2.00000
                  --------  --------  --------  --------  --------  --------
 0 C  s               0.0       0.0      99.7       2.9      32.1      11.1
 0 C  px              0.0       0.1       0.0       1.7       0.3       4.8
 0 C  py              0.0       0.0       0.0       0.3       0.5       4.5
 0 C  dxy             0.0       0.0       0.0       0.0       0.0       0.2
 1 C  s               0.0      99.6       0.0      16.5      11.1      17.0
 1 C  pz              0.0       0.0       0.0       0.0       0.0       0.3
 1 C  px              0.0       0.0       0.1       3.6      10.6       1.1
 1 C  py              0.0       0.0       0.0       2.5       0.1       7.5
 1 C  dz2             0.0       0.0       0.0       0.1       0.0       0.1
 1 C  dxy             0.0       0.0       0.0       0.2       0.4       0.0
 2 N  s              99.8       0.0       0.0      44.1       7.8       2.0
 2 N  pz              0.0       0.0       0.0       1.1       0.6       2.0
 2 N  px              0.0       0.1       0.0       0.4       3.9       5.5
 2 N  py              0.0       0.0       0.0       1.3       0.1       5.3
 2 N  dxy             0.0       0.0       0.0       0.0       0.1       0.2
 3 H  s               0.0       0.0       0.1       0.5       6.7       5.1
 4 H  s               0.0       0.0       0.1       0.4       7.5       4.5
 5 H  s               0.0       0.0       0.1       0.5       7.0       6.1
 6 H  s               0.0       0.1       0.0       2.4       2.6       9.4
 7 H  s               0.0       0.1       0.0       2.3       2.4       7.2
 8 H  s               0.0       0.0       0.0       9.5       2.6       4.4
 9 H  s               0.0       0.0       0.0       9.4       3.6       1.2

                      6         7         8         9        10        11   
                  -0.43664  -0.41030  -0.37567  -0.32122  -0.31437  -0.30008
                   2.00000   2.00000   2.00000   2.00000   2.00000   2.00000
                  --------  --------  --------  --------  --------  --------
 0 C  s               0.8       0.0       0.1       0.0       0.2       0.2
 0 C  pz              2.2       8.3      18.6       0.3      10.1      16.8
 0 C  px              6.8       2.9       0.0      21.6      12.3       3.2
 0 C  py              0.1       7.1       9.4      15.3      14.5       3.4
 0 C  dz2             0.0       0.0       0.2       0.2       0.1       0.1
 0 C  dyz             0.0       0.0       0.1       0.0       0.3       0.7
 0 C  dx2y2           0.0       0.0       0.0       0.3       0.1       0.0
 0 C  dxy             0.1       0.0       0.0       0.5       0.2       0.0
 1 C  s               0.3       0.2       0.0       0.2       0.1       0.1
 1 C  pz              7.0      16.2      11.0       0.0       2.2      16.9
 1 C  px              0.2       4.7       8.2       5.9      13.6       1.5
 1 C  py              5.8      13.8       1.2       2.4      12.4       6.1
 1 C  dz2             0.0       0.1       0.0       0.1       0.1       0.2
 1 C  dxz             0.0       0.0       0.1       0.0       0.1       0.1
 1 C  dyz             0.0       0.0       0.1       0.0       0.1       0.7
 1 C  dx2y2           0.2       0.0       0.0       0.3       0.2       0.1
 1 C  dxy             0.0       0.1       0.0       0.5       0.2       0.0
 2 N  s               0.1       0.4       0.1       1.0       0.3       0.0
 2 N  pz              9.6       7.0       2.4       0.2       5.5       0.1
 2 N  px             20.2      11.8       1.2      12.6       2.5       0.2
 2 N  py             14.1       0.7      16.0       1.2       0.1       4.7
 2 N  dz2             0.2       0.0       0.2       0.0       0.0       0.1
 2 N  dyz             0.0       0.0       0.2       0.0       0.0       0.2
 2 N  dx2y2           0.0       0.0       0.0       0.0       0.2       0.1
 2 N  dxy             0.2       0.1       0.0       0.1       0.1       0.0
 3 H  s               1.0       5.7       0.5       6.4      13.1       4.2
 4 H  s               3.4       2.5       1.8      23.3       0.4       0.0
 5 H  s               0.1       0.5      13.2       1.5       0.3      15.0
 6 H  s               2.9       0.3       5.6       1.2       0.3      18.3
 7 H  s               0.4      13.7       1.1       1.6       6.9       2.6
 8 H  s               8.1       2.2       8.0       0.4       1.1       2.8
 9 H  s              16.1       1.4       0.6       2.7       2.5       1.6

                     12        13        14        15        16        17   
                  -0.17868   0.03520   0.07584   0.08143   0.10449   0.12122
                   2.00000   0.00000   0.00000   0.00000   0.00000   0.00000
                  --------  --------  --------  --------  --------  --------
 0 C  s               0.4       5.0      15.9       1.1       3.0       2.3
 0 C  pz              0.0       0.3       0.0       3.9       3.6       0.6
 0 C  px              0.7       1.2       2.2       0.3       0.1       5.4
 0 C  py              0.3       0.5       0.5       2.8       1.3      10.0
 0 C  dz2             0.0       0.0       0.1       0.1       0.0       1.1
 0 C  dxz             0.0       0.0       0.0       0.1       0.3       0.0
 0 C  dyz             0.1       0.0       0.0       0.2       0.4       0.2
 0 C  dxy             0.0       0.3       0.0       0.2       0.1       0.0
 1 C  s               0.2       5.7       1.9       3.5       5.8       5.4
 1 C  pz              1.8       0.1       0.2       4.1      10.4       1.6
 1 C  px              0.1       0.7       2.4       0.1       0.1       0.1
 1 C  py              1.2       4.0       0.3       2.4       2.1       1.2
 1 C  dz2             0.0       0.2       0.0       0.0       0.0       0.1
 1 C  dxz             0.4       0.0       0.0       0.0       0.1       0.1
 1 C  dyz             0.8       0.0       0.0       0.4       0.6       0.0
 1 C  dx2y2           0.3       0.1       0.1       0.4       0.0       0.9
 1 C  dxy             0.2       0.1       0.8       0.0       0.0       0.0
 2 N  s               7.3      11.7       6.9       0.1       1.8       0.4
 2 N  pz             49.5       1.7       1.3       3.1       0.5       0.6
 2 N  px              0.0       2.0       1.2       1.0       0.1       0.4
 2 N  py             25.7       0.0       1.5       4.3       0.1       1.5
 2 N  dz2             0.0       0.0       0.1       0.0       0.0       0.2
 2 N  dxz             0.0       0.0       0.0       0.1       0.2       0.0
 2 N  dxy             0.0       0.1       0.1       0.1       0.0       0.0
 3 H  s               0.5       1.8      11.7       0.1      18.8       6.1
 4 H  s               0.1       5.2      14.1       2.0       0.2      38.0
 5 H  s               0.1       6.3       9.4      17.5       0.5       0.0
 6 H  s               1.4       5.7       3.9      24.8       0.7      15.5
 7 H  s               7.5      10.7       0.8       0.4      43.0       1.5
 8 H  s               0.8      18.3       6.2      19.1       2.5       1.4
 9 H  s               0.8      18.0      18.4       7.8       3.3       5.3

                     18        19        20        21        22        23   
                   0.13541   0.14394   0.19928   0.20873   0.40877   0.41607
                   0.00000   0.00000   0.00000   0.00000   0.00000   0.00000
                  --------  --------  --------  --------  --------  --------
 0 C  s               1.9       0.0       2.6       0.1       0.6       0.3
 0 C  pz              0.3      18.9       0.1       0.0      19.0       5.1
 0 C  px              5.5       0.2      22.3       3.1       6.7       3.6
 0 C  py              4.1       0.1       8.0       3.9       1.0      26.5
 0 C  dz2             0.1       0.0       1.1       0.6       1.2       4.8
 0 C  dxz             0.2       0.5       0.0       0.0       0.1       0.1
 0 C  dyz             0.0       0.8       0.0       0.0       5.4       2.9
 0 C  dx2y2           0.0       0.0       1.9       0.7       0.0       0.8
 0 C  dxy             0.9       0.1       4.5       0.9       1.5       0.4
 1 C  s               0.6       0.0       8.1       1.5       0.1       0.3
 1 C  pz              2.4       8.7       0.1       0.1       4.2       0.8
 1 C  px              1.8       0.0       2.9      36.5       0.6       1.4
 1 C  py              0.0       0.1      25.7       5.3       0.1       9.2
 1 C  dz2             0.0       0.0       5.4       1.3       0.2       0.8
 1 C  dxz             0.1       0.5       0.0       0.0       0.3       0.4
 1 C  dyz             0.1       0.0       0.0       0.0       4.2       0.3
 1 C  dx2y2           0.0       0.0       0.3       0.1       0.7       1.2
 1 C  dxy             0.8       0.0       0.4       8.0       0.1       0.2
 2 N  s               0.2       0.2       1.1       2.6       0.1       0.6
 2 N  pz              4.2       0.1       0.0       1.0       0.2       0.9
 2 N  px              5.4       0.0       4.3      13.7       1.2       3.1
 2 N  py              4.2       0.8       0.1       7.6       1.0       2.0
 2 N  dz2             0.0       0.0       0.0       0.4       0.6       0.8
 2 N  dxz             0.0       0.3       0.0       0.0       0.2       0.0
 2 N  dyz             0.0       0.1       0.0       0.0       0.2       0.2
 2 N  dx2y2           0.1       0.0       1.1       0.0       0.3       0.1
 2 N  dxy             0.1       0.0       0.5       1.6       0.6       0.7
 3 H  s               5.5      23.2       1.0       1.1       6.1      14.8
 4 H  s               9.0       0.5       0.5       1.5       5.1       8.5
 5 H  s               9.6      22.4       1.9       1.5      14.5       0.0
 6 H  s               5.2      12.1       2.6       0.9      12.2       0.8
 7 H  s               1.2       9.0       2.2       0.2       4.2       1.3
 8 H  s              18.4       1.1       0.5       4.6       2.9       2.1
 9 H  s              18.2       0.1       0.7       1.3       4.5       5.0

                     24        25        26        27        28        29   
                   0.42163   0.45617   0.53527   0.58723   0.61431   0.64317
                   0.00000   0.00000   0.00000   0.00000   0.00000   0.00000
                  --------  --------  --------  --------  --------  --------
 0 C  s               3.3       0.0       0.2       9.6       2.3      12.1
 0 C  pz              5.2       0.1      17.8       0.1       2.7       7.5
 0 C  px             18.9       0.7       1.4      14.4       3.0       3.2
 0 C  py             11.3       0.5       0.1       9.0       5.0       1.8
 0 C  dz2             1.1       0.1       0.5       0.4       1.0       0.6
 0 C  dxz             0.0       0.0       1.6       0.0       0.1       0.5
 0 C  dyz             1.6       0.0       0.9       0.0       0.1       0.2
 0 C  dx2y2           0.0       0.5       0.0       0.0       0.1       0.1
 0 C  dxy             2.5       0.2       0.4       1.0       0.3       0.0
 1 C  s               0.6      13.7       1.2       3.8       5.7      13.1
 1 C  pz              0.2       0.3      13.4       0.1       3.6      15.8
 1 C  px             10.5      30.6       4.2      25.1       8.9       0.9
 1 C  py             12.8      18.1       2.0       9.4       5.4       8.0
 1 C  dz2             3.3       1.0       0.0       0.0       0.1       0.2
 1 C  dxz             0.2       0.1       1.1       0.0       0.0       0.0
 1 C  dyz             0.3       0.3       5.1       0.0       0.0       0.0
 1 C  dx2y2           0.7       0.1       0.1       0.0       0.2       0.0
 1 C  dxy             1.9       0.2       0.0       0.0       0.3       0.0
 2 N  s               0.4       0.4       3.2       1.1       2.5       0.4
 2 N  pz              0.9       0.8       4.6       1.2       7.3       0.5
 2 N  px              0.0       6.7       0.7       2.0       2.0       0.5
 2 N  py              0.5       4.4       1.4       1.4       5.5       1.9
 2 N  dz2             0.3       1.7       0.1       0.2       0.4       0.0
 2 N  dxz             0.0       0.0       0.4       0.0       0.0       0.1
 2 N  dyz             0.2       0.5       3.0       0.1       0.6       0.3
 2 N  dx2y2           0.9       0.4       0.0       0.0       0.1       0.0
 2 N  dxy             0.3       4.1       0.1       0.3       1.3       0.0
 3 H  s               0.3       0.6       0.5       4.3       1.3       0.4
 4 H  s               2.6       1.8       1.1       0.2       6.4       0.2
 5 H  s               6.6       0.8       0.8       4.4       0.0      12.3
 6 H  s               0.9       0.9       6.6       4.2       0.9      14.2
 7 H  s               5.6       4.9       8.7       4.5       3.6       1.0
 8 H  s               2.1       4.7      18.0       1.0       6.1       2.6
 9 H  s               4.0       1.0       0.4       2.3      23.1       1.7

                     30        31        32        33        34        35   
                   0.64780   0.66590   0.67876   0.69021   0.69446   0.71381
                   0.00000   0.00000   0.00000   0.00000   0.00000   0.00000
                  --------  --------  --------  --------  --------  --------
 0 C  s               9.5      19.2       3.4       0.0       1.1      18.0
 0 C  pz              6.7       0.2      11.0      23.8       3.8       3.8
 0 C  px              3.1      13.0       0.5       1.9      17.5       0.9
 0 C  py              0.4       1.9      10.2       0.4      33.6       1.0
 0 C  dz2             0.3       0.1       0.6       0.1       0.1       0.0
 0 C  dxz             0.7       0.0       0.2       0.6       0.1       0.0
 0 C  dyz             0.2       0.2       0.1       2.5       0.0       0.3
 0 C  dx2y2           0.0       0.0       0.1       0.0       0.5       0.0
 0 C  dxy             1.0       0.3       0.3       0.0       0.0       0.1
 1 C  s               0.6       8.1       1.7       4.1       0.0      19.9
 1 C  pz             19.6       3.9      16.9      16.3       1.9       0.4
 1 C  px              1.3       2.1       1.1       2.2       0.1       1.2
 1 C  py              4.1      14.9       4.7       0.1       3.9       1.5
 1 C  dz2             0.1       0.1       0.0       0.0       0.5       0.1
 1 C  dyz             0.0       0.2       1.2       1.1       0.4       0.0
 1 C  dx2y2           0.0       0.1       0.0       0.1       0.1       0.1
 1 C  dxy             0.2       0.0       0.0       0.0       0.0       0.0
 2 N  s               1.4       0.5       0.5       2.9       0.7       8.4
 2 N  pz              0.6       2.3       4.0       2.9       0.5       9.1
 2 N  px              2.1       0.3       0.8       3.0       1.7       3.3
 2 N  py              1.3       0.2       1.7       0.5       1.9       1.3
 2 N  dz2             0.7       0.0       0.9       0.8       0.8       0.0
 2 N  dxz             0.1       0.0       0.0       0.3       0.0       0.0
 2 N  dyz             0.1       0.2       0.6       0.1       0.2       0.4
 2 N  dx2y2           0.0       0.0       0.2       0.1       0.0       0.1
 2 N  dxy             1.2       0.2       0.1       0.1       0.2       0.0
 3 H  s               7.7       0.1       2.2      18.2       9.1       1.7
 4 H  s              15.4       8.6       3.1       0.2       7.8       4.3
 5 H  s               0.3       2.6       5.9       6.5       2.0      10.7
 6 H  s               0.5       1.3      10.6       0.2       1.1       7.4
 7 H  s               5.8      14.4       4.7       3.3       2.2       3.3
 8 H  s               1.2       2.5      11.8       5.1       4.2       1.7
 9 H  s              13.4       2.5       1.0       2.4       4.0       0.9

                     36        37        38        39        40        41   
                   0.79986   0.84122   0.89298   1.03899   1.13799   1.44217
                   0.00000   0.00000   0.00000   0.00000   0.00000   0.00000
                  --------  --------  --------  --------  --------  --------
 0 C  s               0.8      13.8       0.1      20.7       0.2       0.0
 0 C  pz              1.4       0.1       1.3       0.1       0.0       0.3
 0 C  px              0.8       0.5       1.0       5.2       1.0       0.1
 0 C  py              0.4       1.5       0.1       1.2       0.7       0.2
 0 C  dz2             0.1       0.6       0.3       0.8       0.0       4.2
 0 C  dxz             1.0       0.0       1.9       1.0       0.6      16.0
 0 C  dyz             0.0       0.0       0.1       0.1       0.0       1.4
 0 C  dx2y2           0.0       0.5       0.0       1.2       0.0      16.8
 0 C  dxy             0.0       0.1       0.2       0.1       0.0       0.2
 1 C  s               0.8      12.0       3.8       5.6      19.1       0.0
 1 C  pz              5.4       0.2       2.4       0.1       0.1       0.5
 1 C  px              2.1       0.6       1.2       0.2       0.1       0.1
 1 C  py              0.3       0.3       1.1       0.4       0.4       0.2
 1 C  dz2             0.1       0.0       0.1       0.3       0.5       3.4
 1 C  dxz             0.0       0.0       1.3       1.1       0.9      23.4
 1 C  dyz             1.5       0.0       1.3       0.0       0.0       0.2
 1 C  dx2y2           0.0       0.4       0.0       1.9       0.2      19.0
 1 C  dxy             0.0       0.1       0.2       0.0       0.4       0.0
 2 N  s              19.8       4.8       6.8       0.4      45.0       2.2
 2 N  pz             12.0       4.9      49.2       1.0       0.5       0.7
 2 N  px             19.4       5.1      15.1      26.9       7.1       0.4
 2 N  py             22.9      30.9       2.7      15.0       5.5       0.8
 2 N  dz2             0.0       1.0       0.1       0.4       3.0       0.6
 2 N  dxz             0.6       0.0       1.0       0.0       0.0       4.4
 2 N  dyz             0.0       0.1       1.1       1.0       3.5       0.2
 2 N  dx2y2           0.1       0.1       0.2       0.0       1.9       2.3
 2 N  dxy             0.1       0.1       0.8       1.8       1.3       0.1
 3 H  s               0.3       2.7       0.1       5.1       0.2       0.0
 4 H  s               0.8       5.8       0.1       1.6       0.2       0.3
 5 H  s               0.7       2.5       1.4       3.3       0.0       0.4
 6 H  s               1.3       3.7       2.4       1.6       1.4       0.3
 7 H  s               0.2       2.5       0.1       0.8       2.8       0.0
 8 H  s               3.7       3.0       1.8       0.1       1.7       0.4
 9 H  s               3.5       2.3       0.7       1.0       1.6       0.8

                     42        43        44        45        46        47   
                   1.47652   1.76006   1.84290   1.85148   1.98550   2.04900
                   0.00000   0.00000   0.00000   0.00000   0.00000   0.00000
                  --------  --------  --------  --------  --------  --------
 0 C  s               0.6       1.5       0.7       0.2       0.0       0.0
 0 C  pz              0.2       0.0       0.6       2.6       0.2       1.8
 0 C  px              0.2       2.3       0.4       0.1       0.0       0.0
 0 C  py              0.2       0.4       1.8       0.6       0.2       0.0
 0 C  dz2             1.6       0.1      19.0      13.5       1.9       1.1
 0 C  dxz            16.1       0.2      11.5      28.5       1.7       5.6
 0 C  dyz             0.3       0.2       1.4       1.3       1.6      24.4
 0 C  dx2y2          15.2      25.2       2.1       0.9       7.0       1.2
 0 C  dxy             1.1      13.3       6.7       0.7       1.2       0.1
 1 C  s               0.2       0.4       1.0       0.3       0.4       0.1
 1 C  pz              0.6       0.0       2.0       5.8       0.1       1.9
 1 C  px              0.2       3.9       0.4       0.1       0.7       0.0
 1 C  py              0.1       0.1       2.7       0.6       0.9       0.1
 1 C  dz2             2.2       0.0      24.7      10.0      16.9       4.5
 1 C  dxz            22.2       0.0       3.7      12.2       0.4       4.0
 1 C  dyz             0.1       0.1       5.3       6.7       3.6      25.6
 1 C  dx2y2          19.7       7.4       0.9       0.8       9.0       0.4
 1 C  dxy             0.1      24.8       3.3       0.8      17.0       2.0
 2 N  s               0.4       1.0       0.2       0.1       1.7       0.2
 2 N  pz              1.9       0.0       0.1       0.1       0.0       0.6
 2 N  px              2.1       1.5       0.1       0.0       1.8       0.3
 2 N  py              1.9       0.1       0.1       0.0       1.6       0.1
 2 N  dz2             1.9       0.2       0.1       0.0      12.8       0.5
 2 N  dxz             6.5       0.0       3.5       5.4       2.9      12.0
 2 N  dyz             0.0       0.0       0.1       0.4       1.4       0.1
 2 N  dx2y2           2.6      15.4       1.7       1.1       3.7       0.1
 2 N  dxy             0.0       0.4       0.0       0.0       8.2       1.5
 3 H  s               0.1       0.2       1.6       0.1       0.3       2.8
 4 H  s               0.4       0.9       0.1       0.1       0.0       0.0
 5 H  s               0.2       0.1       0.2       1.7       0.1       2.8
 6 H  s               0.0       0.0       0.0       4.0       0.3       4.5
 7 H  s               0.2       0.0       3.8       1.0       2.2       1.5
 8 H  s               0.8       0.1       0.1       0.0       0.0       0.2
 9 H  s               0.3       0.1       0.1       0.0       0.0       0.1

                     48        49        50        51        52        53   
                   2.09343   2.14850   2.26687   2.33647   2.43893   2.54773
                   0.00000   0.00000   0.00000   0.00000   0.00000   0.00000
                  --------  --------  --------  --------  --------  --------
 0 C  s               0.0       0.0       0.2       0.6       0.3       0.8
 0 C  pz              0.0       0.4       0.0       0.0       0.0       0.0
 0 C  px              1.6       0.0       0.1       0.8       0.5       1.6
 0 C  py              1.2       0.0       0.0       0.8       0.3       0.8
 0 C  dz2            24.9       1.6       0.7       9.1       2.6       3.2
 0 C  dxz             0.5       7.4       2.3       0.4       0.0       0.0
 0 C  dyz             2.8      45.0       2.1       0.2       1.4       0.1
 0 C  dx2y2           4.7       0.4       2.5      12.7       1.0       0.0
 0 C  dxy            34.2       1.0       0.0       2.6       4.4      15.6
 1 C  s               0.4       0.0       0.0       1.2       1.0       1.1
 1 C  pz              0.0       0.0       0.0       0.1       0.3       0.0
 1 C  px              0.2       0.0       0.2       0.9       0.2       0.7
 1 C  py              0.1       0.0       0.1       2.3       0.6       0.4
 1 C  dz2             2.5       0.4       0.0       5.9       5.0       6.1
 1 C  dxz             0.1      12.3       0.1       1.2      11.2       1.6
 1 C  dyz             0.1       8.9      20.3       4.5       5.5       0.3
 1 C  dx2y2           0.3       0.2       2.4       6.5       0.3      14.3
 1 C  dxy             0.2       0.3       0.8       4.3       2.3      11.3
 2 N  s               0.3       1.0       1.9       0.2       1.1       0.1
 2 N  pz              0.0       0.5       0.6       0.4       0.3       0.1
 2 N  px              0.3       0.0       0.3       0.7       0.0       0.4
 2 N  py              0.1       0.0       0.2       0.6       0.2       1.1
 2 N  dz2             1.2       0.8      10.8       6.0       6.7      10.2
 2 N  dxz             0.0       1.9      21.6      12.7      24.1       1.5
 2 N  dyz             0.2       8.1      20.6       1.8      26.7      15.6
 2 N  dx2y2          12.2       0.1       1.1      16.9       1.2       9.1
 2 N  dxy             0.1       1.0       5.1       3.5       0.6       0.2
 3 H  s               2.2       2.6       0.3       0.9       0.0       0.1
 4 H  s               8.4       0.2       0.0       0.2       0.0       0.4
 5 H  s               0.9       3.8       0.0       0.5       0.4       0.0
 6 H  s               0.2       0.7       1.0       0.1       0.5       0.2
 7 H  s               0.1       0.3       1.5       0.4       0.0       0.5
 8 H  s               0.0       0.9       1.1       0.5       0.4       2.1
 9 H  s               0.0       0.4       2.1       0.5       0.8       0.2

                     54        55   
                   2.61730   2.86823
                   0.00000   0.00000
                  --------  --------
 0 C  s               0.0       0.2
 0 C  px              0.0       0.4
 0 C  dz2             0.0       0.2
 0 C  dx2y2           2.0       0.9
 0 C  dxy             1.8       0.5
 1 C  s               0.0       1.9
 1 C  px              0.1       3.8
 1 C  py              0.2       0.9
 1 C  dz2             0.2       2.8
 1 C  dxz             0.2       0.0
 1 C  dx2y2           8.2       1.6
 1 C  dxy             0.7      16.7
 2 N  s               0.1       2.1
 2 N  pz              0.7       0.1
 2 N  px              0.3       4.0
 2 N  py              0.9       1.0
 2 N  dz2            22.8      12.2
 2 N  dyz            11.3       0.2
 2 N  dx2y2          22.0       4.5
 2 N  dxy            18.7      44.3
 4 H  s               0.1       0.0
 8 H  s               4.4       0.5
 9 H  s               5.1       0.8


                      *****************************
                      * MAYER POPULATION ANALYSIS *
                      *****************************

  NA   - Mulliken gross atomic population
  ZA   - Total nuclear charge
  QA   - Mulliken gross atomic charge
  VA   - Mayer's total valence
  BVA  - Mayer's bonded valence
  FA   - Mayer's free valence

  ATOM       NA         ZA         QA         VA         BVA        FA
  0 C      6.2894     6.0000    -0.2894     4.0185     4.0185     0.0000
  1 C      6.0944     6.0000    -0.0944     4.1373     4.1373     0.0000
  2 N      7.4669     7.0000    -0.4669     2.9469     2.9469     0.0000
  3 H      0.8911     1.0000     0.1089     0.9669     0.9669    -0.0000
  4 H      0.8998     1.0000     0.1002     0.9539     0.9539     0.0000
  5 H      0.9054     1.0000     0.0946     0.9563     0.9563     0.0000
  6 H      0.9162     1.0000     0.0838     0.9452     0.9452     0.0000
  7 H      0.9345     1.0000     0.0655     0.9361     0.9361    -0.0000
  8 H      0.8029     1.0000     0.1971     0.9179     0.9179     0.0000
  9 H      0.7993     1.0000     0.2007     0.9137     0.9137     0.0000

  Mayer bond orders larger than 0.100000
B(  0-C ,  1-C ) :   1.1602 B(  0-C ,  3-H ) :   0.9506 B(  0-C ,  4-H ) :   0.9510 
B(  0-C ,  5-H ) :   0.9569 B(  1-C ,  2-N ) :   1.1000 B(  1-C ,  6-H ) :   0.9342 
B(  1-C ,  7-H ) :   0.9239 B(  2-N ,  8-H ) :   0.9065 B(  2-N ,  9-H ) :   0.9065 


-------
TIMINGS
-------

Total SCF time: 0 days 0 hours 0 min 0 sec 

Total time                  ....       0.193 sec
Sum of individual times     ....       0.186 sec  ( 96.4%)

SCF preparation             ....       0.021 sec  ( 11.1%)
Fock matrix formation       ....       0.152 sec  ( 78.5%)
  Startup                   ....       0.000 sec  (  0.3% of F)
  Split-RI-J                ....       0.044 sec  ( 28.9% of F)
  XC integration            ....       0.106 sec  ( 69.8% of F)
    XC Preparation          ....       0.000 sec  (  0.0% of XC)
    Basis function eval.    ....       0.048 sec  ( 45.7% of XC)
    Density eval.           ....       0.017 sec  ( 16.4% of XC)
    XC-Functional eval.     ....       0.015 sec  ( 14.2% of XC)
    XC-Potential eval.      ....       0.017 sec  ( 16.3% of XC)
Diagonalization             ....       0.000 sec  (  0.0%)
Density matrix formation    ....       0.001 sec  (  0.3%)
Total Energy calculation    ....       0.000 sec  (  0.1%)
Population analysis         ....       0.010 sec  (  5.3%)
Orbital Transformation      ....       0.001 sec  (  0.3%)
Orbital Orthonormalization  ....       0.000 sec  (  0.0%)
DIIS solution               ....       0.001 sec  (  0.3%)
  MO trafo                  ....       0.000 sec  (  0.2 % of DIIS)
  Orb grad                  ....       0.000 sec  (  0.0 % of DIIS)
  Energy W gradient         ....       0.000 sec  (  0.0 % of DIIS)
  DIIS error                ....       0.000 sec  (  6.2 % of DIIS)
  DIIS work                 ....       0.000 sec  ( 89.2 % of DIIS)
  Form Q                    ....       0.000 sec  (  0.0 % of DIIS)
  Form QpQm                 ....       0.000 sec  (  0.0 % of DIIS)
  Exp/Cayley                ....       0.000 sec  (  0.0 % of DIIS)
  Orb update                ....       0.000 sec  (  0.0 % of DIIS)
  Wake-sleep                ....       0.000 sec  (  4.4 % of DIIS)
SOSCF solution              ....       0.001 sec  (  0.6%)
  MO trafo                  ....       0.001 sec  ( 59.1 % of SOSCF)
  Orb grad                  ....       0.000 sec  (  2.5 % of SOSCF)
  Rot update                ....       0.000 sec  (  8.4 % of SOSCF)
  Step                      ....       0.000 sec  ( 27.4 % of SOSCF)
Finished LeanSCF after   0.2 sec

Maximum memory used throughout the entire LEANSCF-calculation: 6.4 MB


-------------------------------------------------------------------------------
                          DFT DISPERSION CORRECTION                            
                                                                               
                                DFTD4 V3.4.0                                   
-------------------------------------------------------------------------------
The PBE functional is recognized
Active option DFTDOPT                   ...         5   

-------------------------   ----------------
Dispersion correction           -0.004480001
-------------------------   ----------------

------------------   -----------------
gCP correction             0.043965310
------------------   -----------------

-------------------------   --------------------
FINAL SINGLE POINT ENERGY      -134.819334731611
-------------------------   --------------------


------------------------------------------------------------------------------
                              ORCA PROPERTY CALCULATIONS
------------------------------------------------------------------------------

GBWName                                 ... sp.gbw
Number of atoms                         ...     10
Number of basis functions               ...     56
Max core memory                         ...   1024 MB

Electric properties:
Dipole moment                           ... YES
Quadrupole moment                       ...  NO
Static polarizability (Dipole/Dipole)   ...  NO
Static polarizability (Dipole/Quad.)    ...  NO
Static polarizability (Quad./Quad.)     ...  NO
Static polarizability (Velocity)        ...  NO

Atomic electric properties:
Dipole moment                           ...  NO
Quadrupole moment                       ...  NO
Static polarizability                   ...  NO

Choice of electric origin               ... Center of mass
Position of electric origin             ...     0.000009     0.000002     0.000003

General magnetic properties:
Magnetizability                         ...  NO

EPR properties:
g-Tensor (aka g-matrix)                 ...  NO
Zero-Field splitting spin-orbit         ...  NO
Zero-field splitting spin-spin          ...  NO
Hyperfine couplings                     ...  NO (   0 nuclei)
Quadrupole couplings                    ...  NO (   0 nuclei)
Contact density                         ...  NO (   0 nuclei)

NMR properties:
Chemical shifts                         ...  NO (   0 nuclei)
Spin-rotation constants                 ...  NO (   0 nuclei)
Spin-spin couplings                     ...  NO (   0 nuclei,    0 pairs)

Choice of magnetic origin               ... GIAO
Position of magnetic origin             ...     0.000000     0.000000     0.000000

Properties with geometric perturbations:
SCF Hessian                             ...  NO
IR spectrum                             ...  NO
VCD spectrum                            ...  NO
X-ray spectroscopy properties:
SCF XES/XAS/RIXS spectra                ...  NO


-------------
DIPOLE MOMENT
-------------

Method             : SCF
Type of density    : Electron Density
Multiplicity       :   1
Irrep              :   0
Energy             :  -134.8588200396995660 Eh
Relativity type    : 
Basis              : AO
                                X                 Y                 Z
Electronic contribution:      1.484594826       0.066693338      -0.188726495
Nuclear contribution   :     -1.374090062      -0.335021989       0.613618573
                        -----------------------------------------
Total Dipole Moment    :      0.110504764      -0.268328651       0.424892078
                        -----------------------------------------
Magnitude (a.u.)       :      0.514533619
Magnitude (Debye)      :      1.307840524



--------------------
Rotational spectrum 
--------------------
 
Rotational constants in cm-1:             1.089346             0.302331             0.264584 
Rotational constants in MHz :         32657.785376          9063.669748          7932.021876 

Dipole components along the rotational axes: 
x,y,z [a.u.] :    -0.128640     0.223962    -0.445014 
x,y,z [Debye]:    -0.326976     0.569266    -1.131137 

 

Dipole moment calculation done in   0.0 sec 

Maximum memory used throughout the entire PROP-calculation: 4.4 MB

--------------------------------
SUGGESTED CITATIONS FOR THIS RUN
--------------------------------

Below you find a list of papers that are relevant to this ORCA run
We neither can nor want to force you to cite these papers, but we appreciate if you do
You receive ORCA, which is the product of decades of hard work by many enthusiastic individuals, for free
The only thing we kindly ask in return is that you cite our papers,
We deeply appreciate it, if you show your appreciation for ORCA by not just citing the generic ORCA reference.

Please note that relegating all ORCA citations to the supporting information does *not* help us.
SI sections are not indexed - citations you put there will not count into any citation statistics
But we need these citations in order to attract the funding resources that allow us to do what we are doing

Therefore, if you are a happy ORCA user, please consider citing a few of the papers listed below in the main body of your paper

In addition to the list printed below, the program has created the file sp.bibtex that contains the list in bibtex format
You can import this file easily into all common literature databanks and citation aid programs


List of essential papers. We consider these as the minimum necessary citations

  1. Neese,F.
     Software update: the ORCA program system, version 5.0
     WIRES Comput. Molec. Sci., 2022 12(1)e1606
     doi.org/10.1002/wcms.1606

List of papers to cite with high priority. The work reported in these papers was absolutely
necessary for this run to complete.
Our perspective: the developers of density functionals and basis sets usually get cited in chemistry papers
Good! But without the algorithms to do something with them, the functionals or basis sets would not do anything.
Hence, in our opinion, the algorithm design and method developments papers are equally worthy of getting cited

  1. Neese,F.
     An improvement of the resolution of the identity approximation for the formation of the Coulomb matrix
     J. Comp. Chem., 2003 24(14)1740-1747
     doi.org/10.1002/jcc.10318
  2. Neese,F.
     The SHARK Integral Generation and Digestion System
     J. Comp. Chem., 2022  1-16
     doi.org/10.1002/jcc.26942
  3. Caldeweyher,E.; Bannwarth,C.; Grimme,S.
     Extension of the D3 dispersion coefficient model
     J. Chem. Phys., 2017 147 034112
     doi.org/10.1063/1.4993215
  4. Caldeweyher,E.; Ehlert,S.; Hansen,A.; Neugebauer,H.; Spicher,S.; Bannwarth,C.; Grimme,S.
     A generally applicable atomic-charge dependent London dispersion correction
     J. Chem. Phys., 2019 150 154122
     doi.org/10.1063/1.5090222
  5. Caldeweyher,E.; Mewes,J.; Ehlert,S.; Grimme,S.
     Extension and evaluation of the D4 London-dispersion model for periodic systems
     Phys. Chem. Chem. Phys., 2020 22(16)8499-8512
     doi.org/10.1039/D0CP00502A
  6. Wittmann,L.; Gordiy,I.; Friede,M.; Helmich-Paris,B.; Grimme,S.; Hansen,A.; Bursch,M.
     Extension of the D3 and D4 London Dispersion Corrections to the full Actinides Series
     Phys. Chem. Chem. Phys., 2024 26(32)21379-21394
     doi.org/https://doi.org/10.1039/D4CP01514B 

List of suggested additional citations. These are papers that are important in the 'surrounding' of 
of this run, or papers that preceded the highly important papers. If you like your results we are grateful for a citation.

  1. Neese,F.
     The ORCA program system
     WIRES Comput. Molec. Sci., 2012 2(1)73-78
     doi.org/10.1002/wcms.81
  2. Neese,F.
     Software update: the ORCA program system, version 4.0
     WIRES Comput. Molec. Sci., 2018 8(1)1-6
     doi.org/10.1002/wcms.1327
  3. Neese,F.; Wennmohs,F.; Becker,U.; Riplinger,C.
     The ORCA quantum chemistry program package
     J. Chem. Phys., 2020 152 Art. No. L224108
     doi.org/10.1063/5.0004608

List of optional additional citations

  1. Neese,F.
     Approximate second-order SCF convergence for spin unrestricted wavefunctions
     Chem. Phys. Lett., 2000 325(1-3)93-98
     doi.org/10.1016/s0009-2614(00)00662-x

Timings for individual modules:

Sum of individual times          ...        0.372 sec (=   0.006 min)
Startup calculation              ...        0.107 sec (=   0.002 min)  28.7 %
SCF iterations                   ...        0.236 sec (=   0.004 min)  63.3 %
Property calculations            ...        0.030 sec (=   0.001 min)   8.1 %
                             ****ORCA TERMINATED NORMALLY****
TOTAL RUN TIME: 0 days 0 hours 0 minutes 0 seconds 439 msec
