 Entering Gaussian System
 *********************************************
 Gaussian 98:
 frequency output generated by the xtb code
 *********************************************
                         Standard orientation:
 --------------------------------------------------------------------
  Center     Atomic     Atomic              Coordinates (Angstroms)
  Number     Number      Type              X           Y           Z
 --------------------------------------------------------------------
    1          6             0       -2.486718   -0.065199   -0.062598
    2          6             0       -1.226027    0.780124    0.048278
    3          6             0        0.024419   -0.066235   -0.020520
    4          8             0        0.063140   -1.265334   -0.074177
    5          8             0        1.120736    0.708607   -0.009843
    6          6             0        2.367784    0.029259   -0.062360
    7          1             0       -2.505633   -0.591276   -1.013356
    8          1             0       -2.512398   -0.806502    0.731558
    9          1             0       -3.370920    0.562440    0.010685
   10          1             0       -1.204592    1.323573    0.995602
   11          1             0       -1.175651    1.520726   -0.752160
   12          1             0        2.435512   -0.568938   -0.973261
   13          1             0        2.476155   -0.631803    0.799871
   14          1             0        3.134413    0.799505   -0.052469
 --------------------------------------------------------------------
     1 basis functions        1 primitive gaussians
     1 alpha electrons        1 beta electrons

 Harmonic frequencies (cm**-1), IR intensities (km*mol⁻¹),
 Raman scattering activities (A**4/amu), Raman depolarization ratios,
 reduced masses (AMU), force constants (mDyne/A) and normal coordinates:
                      1                      2                      3
                        a                      a                      a 
 Frequencies --    13.7039                55.7087               149.0721
 Red. masses --     2.0733                 1.1075                 1.5154
 Frc consts  --     0.0000                 0.0000                 0.0000
 IR Inten    --     0.0621                 0.1378                 2.8252
 Raman Activ --     0.0000                 0.0000                 0.0000
 Depolar     --     0.0000                 0.0000                 0.0000
 Atom AN      X      Y      Z        X      Y      Z        X      Y      Z
   1   6     0.01   0.05  -0.44    -0.00  -0.00   0.07    -0.02   0.01   0.15
   2   6    -0.00  -0.03   0.34     0.00   0.00  -0.00     0.01  -0.01  -0.01
   3   6     0.00  -0.02   0.17    -0.00   0.00  -0.04     0.00  -0.00  -0.21
   4   8     0.01  -0.03   0.37    -0.01   0.01  -0.26     0.01  -0.01  -0.03
   5   8    -0.01   0.00  -0.15     0.00  -0.01   0.11    -0.01   0.01  -0.40
   6   6    -0.01   0.02  -0.23     0.00  -0.00   0.10     0.01  -0.00   0.36
   7   1     0.03   0.22  -0.24    -0.01  -0.01   0.03    -0.24   0.30  -0.11
   8   1    -0.02  -0.16  -0.29     0.00   0.01   0.03     0.22  -0.24  -0.18
   9   1     0.00  -0.00  -0.02     0.00   0.00   0.02    -0.00  -0.04   0.46
  10   1    -0.06  -0.18   0.20     0.01   0.01  -0.01     0.05  -0.05   0.02
  11   1     0.06   0.14   0.24    -0.01  -0.01  -0.01    -0.04   0.04   0.03
  12   1    -0.07  -0.09  -0.01    -0.22  -0.43   0.30     0.14  -0.05   0.15
  13   1     0.07   0.09  -0.01     0.23   0.41   0.32    -0.12   0.05   0.16
  14   1    -0.01   0.01  -0.20    -0.01   0.02  -0.51     0.00  -0.00   0.17
                      4                      5                      6
                        a                      a                      a 
 Frequencies --   188.0132               201.1486               297.8206
 Red. masses --     2.7930                 1.8028                 4.2051
 Frc consts  --     0.0000                 0.0000                 0.0000
 IR Inten    --     2.1133                 5.5807                16.7049
 Raman Activ --     0.0000                 0.0000                 0.0000
 Depolar     --     0.0000                 0.0000                 0.0000
 Atom AN      X      Y      Z        X      Y      Z        X      Y      Z
   1   6     0.25  -0.39  -0.03    -0.07   0.09  -0.01     0.30  -0.13  -0.01
   2   6    -0.10   0.15  -0.06     0.02  -0.01  -0.34     0.08   0.17   0.02
   3   6    -0.01   0.31   0.04     0.00  -0.09   0.10    -0.07  -0.05   0.00
   4   8    -0.12   0.34   0.03     0.02  -0.10   0.11    -0.68  -0.07  -0.00
   5   8     0.14   0.13   0.11    -0.02  -0.06   0.48     0.01  -0.23  -0.03
   6   6    -0.14  -0.38  -0.07     0.04   0.11  -0.25     0.27   0.28   0.01
   7   1     0.09  -0.04  -0.05    -0.26   0.24  -0.12     0.15  -0.04  -0.00
   8   1     0.23  -0.18  -0.07     0.17  -0.15  -0.16     0.15  -0.04  -0.01
   9   1    -0.01  -0.25   0.10     0.00   0.02   0.35     0.02  -0.13  -0.01
  10   1    -0.09   0.07  -0.03     0.01   0.12  -0.17     0.01   0.04   0.01
  11   1    -0.09   0.02  -0.04     0.04  -0.11  -0.19     0.01   0.04   0.00
  12   1    -0.15  -0.11  -0.03    -0.09   0.09  -0.12     0.17   0.10  -0.00
  13   1    -0.09  -0.13  -0.03     0.16  -0.01  -0.12     0.16   0.10   0.01
  14   1     0.05  -0.20  -0.04    -0.02   0.06  -0.13    -0.02   0.19   0.01
                      7                      8                      9
                        a                      a                      a 
 Frequencies --   431.6778               566.9624               646.0516
 Red. masses --     4.1277                 2.5850                 4.1597
 Frc consts  --     0.0000                 0.0000                 0.0000
 IR Inten    --     0.1297                11.2104                 3.4934
 Raman Activ --     0.0000                 0.0000                 0.0000
 Depolar     --     0.0000                 0.0000                 0.0000
 Atom AN      X      Y      Z        X      Y      Z        X      Y      Z
   1   6    -0.46  -0.10  -0.01    -0.03   0.00  -0.04     0.01  -0.05  -0.01
   2   6    -0.30  -0.14  -0.00    -0.04   0.02   0.14     0.29  -0.46  -0.03
   3   6     0.06   0.18  -0.01    -0.00  -0.03   0.68     0.26   0.01   0.06
   4   8    -0.12   0.21   0.03     0.04   0.02  -0.29    -0.47  -0.01  -0.01
   5   8     0.40  -0.08   0.00     0.00  -0.02  -0.28     0.13   0.43  -0.00
   6   6     0.47  -0.06  -0.01     0.03  -0.01   0.01    -0.13   0.06   0.00
   7   1    -0.18  -0.03  -0.00     0.03   0.08  -0.06    -0.13   0.01  -0.01
   8   1    -0.19  -0.02   0.00    -0.04  -0.06  -0.07    -0.14  -0.01  -0.00
   9   1    -0.09   0.04   0.00    -0.01  -0.01  -0.00     0.14   0.18   0.02
  10   1    -0.13  -0.06   0.01    -0.16   0.34  -0.16     0.06  -0.09  -0.03
  11   1    -0.15  -0.01   0.02     0.12  -0.28  -0.22     0.08  -0.14  -0.02
  12   1     0.15  -0.01  -0.01     0.07  -0.02   0.02    -0.13  -0.00   0.01
  13   1     0.16  -0.01  -0.00    -0.04   0.02   0.03    -0.13  -0.00   0.00
  14   1     0.10   0.01  -0.00     0.00   0.00   0.04     0.09  -0.11  -0.00
                     10                     11                     12
                        a                      a                      a 
 Frequencies --   815.1155               876.0837              1007.9473
 Red. masses --     1.3710                 2.9201                 4.4689
 Frc consts  --     0.0000                 0.0000                 0.0000
 IR Inten    --    34.8462                25.6082                13.9344
 Raman Activ --     0.0000                 0.0000                 0.0000
 Depolar     --     0.0000                 0.0000                 0.0000
 Atom AN      X      Y      Z        X      Y      Z        X      Y      Z
   1   6    -0.00   0.01  -0.10     0.19  -0.06   0.00     0.31   0.07   0.01
   2   6     0.01   0.03  -0.32     0.18  -0.31  -0.03    -0.15  -0.16  -0.01
   3   6     0.01  -0.02   0.40    -0.12   0.28   0.02    -0.40  -0.04  -0.01
   4   8     0.00   0.01  -0.11     0.07   0.45   0.02     0.04  -0.02   0.00
   5   8    -0.01  -0.01  -0.08    -0.17  -0.43  -0.02    -0.36   0.30   0.02
   6   6    -0.01   0.00  -0.01    -0.14  -0.05   0.00     0.53  -0.17  -0.02
   7   1    -0.29  -0.24   0.12    -0.12   0.02  -0.01    -0.03   0.04  -0.00
   8   1     0.28   0.20   0.18    -0.14   0.00   0.00    -0.02   0.04   0.02
   9   1     0.01  -0.01   0.15     0.24   0.25   0.03     0.20   0.18   0.03
  10   1    -0.22  -0.35   0.14     0.01  -0.07  -0.01    -0.08  -0.04  -0.00
  11   1     0.21   0.31   0.22    -0.01  -0.08  -0.01    -0.05  -0.05  -0.01
  12   1     0.01  -0.00   0.00     0.12   0.02  -0.01     0.01  -0.05  -0.00
  13   1    -0.01   0.00   0.00     0.12   0.02   0.01     0.01  -0.05  -0.00
  14   1    -0.00   0.00   0.01    -0.24   0.20   0.01     0.22  -0.14  -0.01
                     13                     14                     15
                        a                      a                      a 
 Frequencies --  1046.5620              1061.0036              1111.3882
 Red. masses --     1.5601                 1.4717                 2.9222
 Frc consts  --     0.0000                 0.0000                 0.0000
 IR Inten    --     4.5658                 5.5015                 5.6047
 Raman Activ --     0.0000                 0.0000                 0.0000
 Depolar     --     0.0000                 0.0000                 0.0000
 Atom AN      X      Y      Z        X      Y      Z        X      Y      Z
   1   6     0.29  -0.09  -0.01    -0.01   0.01  -0.22     0.24   0.44   0.05
   2   6    -0.25   0.23   0.02     0.01  -0.03   0.39    -0.40  -0.44  -0.04
   3   6     0.19  -0.07  -0.02    -0.01   0.02  -0.37    -0.02   0.00   0.00
   4   8     0.01  -0.21  -0.01    -0.00   0.01   0.07    -0.03  -0.01  -0.00
   5   8     0.18  -0.08  -0.00     0.03  -0.01   0.05     0.28   0.01  -0.01
   6   6    -0.17   0.13   0.01    -0.02   0.01   0.00    -0.17   0.01   0.01
   7   1    -0.19   0.04  -0.03    -0.25  -0.20   0.07     0.28   0.07   0.03
   8   1    -0.20   0.02   0.03     0.22   0.17   0.11     0.29   0.09  -0.00
   9   1     0.31   0.32   0.04     0.01  -0.01   0.13    -0.10  -0.13  -0.01
  10   1    -0.39   0.06   0.01    -0.40   0.24  -0.04    -0.14  -0.11  -0.01
  11   1    -0.40   0.07  -0.01     0.41  -0.22  -0.08    -0.13  -0.12  -0.02
  12   1    -0.07   0.01   0.01     0.00   0.00   0.00     0.05   0.02  -0.01
  13   1    -0.07   0.01  -0.01     0.00   0.00   0.00     0.06   0.02   0.00
  14   1     0.02  -0.03  -0.00    -0.01   0.01  -0.00    -0.11   0.07   0.00
                     16                     17                     18
                        a                      a                      a 
 Frequencies --  1123.7491              1143.8709              1159.8301
 Red. masses --     1.2904                 3.1575                 2.2111
 Frc consts  --     0.0000                 0.0000                 0.0000
 IR Inten    --     1.5312               231.6985               128.8662
 Raman Activ --     0.0000                 0.0000                 0.0000
 Depolar     --     0.0000                 0.0000                 0.0000
 Atom AN      X      Y      Z        X      Y      Z        X      Y      Z
   1   6    -0.00   0.01  -0.00    -0.03   0.07  -0.01     0.03  -0.14  -0.00
   2   6    -0.00  -0.00  -0.01    -0.02   0.04   0.02     0.02   0.12  -0.00
   3   6     0.01   0.00  -0.01     0.59   0.04  -0.02    -0.37  -0.11   0.01
   4   8    -0.00   0.00   0.01    -0.07  -0.06  -0.00     0.01  -0.16  -0.01
   5   8    -0.00  -0.01   0.23    -0.44   0.19   0.01     0.34   0.39   0.01
   6   6    -0.01   0.01  -0.43     0.12  -0.36  -0.01    -0.17  -0.27  -0.01
   7   1     0.00  -0.00   0.00     0.02  -0.00   0.01    -0.08  -0.00  -0.02
   8   1     0.00   0.00  -0.00     0.04   0.02  -0.00    -0.10  -0.02   0.01
   9   1    -0.00  -0.00  -0.00    -0.05  -0.04  -0.00     0.09   0.08   0.01
  10   1     0.01  -0.01   0.00    -0.16   0.02  -0.00     0.10   0.02   0.00
  11   1    -0.01   0.00   0.00    -0.17   0.01  -0.01     0.10   0.04   0.01
  12   1     0.48  -0.31   0.15     0.18   0.01  -0.04     0.29   0.04  -0.05
  13   1    -0.48   0.30   0.19     0.19   0.00   0.03     0.28   0.04   0.04
  14   1     0.01  -0.01   0.24    -0.29   0.22   0.01    -0.35   0.25   0.02
                     19                     20                     21
                        a                      a                      a 
 Frequencies --  1217.3261              1316.7534              1387.3515
 Red. masses --     1.2323                 1.7611                 1.1514
 Frc consts  --     0.0000                 0.0000                 0.0000
 IR Inten    --     1.0359                44.1371                 7.5382
 Raman Activ --     0.0000                 0.0000                 0.0000
 Depolar     --     0.0000                 0.0000                 0.0000
 Atom AN      X      Y      Z        X      Y      Z        X      Y      Z
   1   6    -0.01  -0.03   0.37     0.12  -0.12  -0.01     0.01  -0.01  -0.00
   2   6     0.01   0.02  -0.23    -0.59   0.08  -0.00    -0.04   0.01   0.00
   3   6     0.02   0.01  -0.10     0.27   0.03  -0.00     0.08  -0.01  -0.00
   4   8    -0.00   0.00   0.01    -0.03   0.01   0.00    -0.00   0.04   0.00
   5   8    -0.01  -0.00   0.01    -0.04  -0.05  -0.00    -0.13   0.02   0.00
   6   6     0.00  -0.00  -0.00     0.01  -0.00  -0.00    -0.32   0.09   0.01
   7   1     0.26   0.23  -0.05    -0.02   0.06  -0.05    -0.00   0.01  -0.00
   8   1    -0.24  -0.21  -0.11    -0.03   0.04   0.06    -0.00   0.00   0.00
   9   1    -0.01   0.01  -0.15     0.16   0.16   0.02     0.01   0.01   0.00
  10   1    -0.53  -0.10   0.01     0.46  -0.05   0.03     0.03  -0.02   0.01
  11   1     0.49   0.10   0.05     0.49  -0.05  -0.02     0.03  -0.01  -0.01
  12   1     0.00  -0.00   0.00    -0.05   0.00  -0.00     0.51  -0.04   0.07
  13   1    -0.00   0.00   0.00    -0.05   0.00   0.01     0.50  -0.04  -0.10
  14   1    -0.00   0.00   0.00    -0.03   0.03   0.00     0.39  -0.42  -0.03
                     22                     23                     24
                        a                      a                      a 
 Frequencies --  1410.5022              1442.8270              1442.9579
 Red. masses --     1.2104                 1.0684                 1.0889
 Frc consts  --     0.0000                 0.0000                 0.0000
 IR Inten    --     5.1573                 8.0858                10.8241
 Raman Activ --     0.0000                 0.0000                 0.0000
 Depolar     --     0.0000                 0.0000                 0.0000
 Atom AN      X      Y      Z        X      Y      Z        X      Y      Z
   1   6    -0.36  -0.20  -0.02     0.06   0.03   0.00    -0.09  -0.04  -0.00
   2   6     0.05  -0.06  -0.01    -0.04  -0.15  -0.02     0.07   0.23   0.03
   3   6    -0.02   0.01  -0.00     0.02   0.01   0.00    -0.03  -0.01   0.00
   4   8     0.01  -0.03  -0.00    -0.00  -0.01  -0.00     0.00   0.01  -0.00
   5   8    -0.00   0.00   0.00    -0.01  -0.01   0.03     0.01   0.01   0.02
   6   6    -0.00   0.00   0.00     0.00  -0.01   0.18     0.01  -0.01   0.12
   7   1     0.45   0.15  -0.11    -0.06  -0.03   0.02     0.10   0.05  -0.03
   8   1     0.47   0.12   0.14    -0.07  -0.02  -0.03     0.10   0.04   0.04
   9   1     0.28   0.43   0.04    -0.03  -0.05  -0.00     0.04   0.08   0.01
  10   1    -0.04   0.15  -0.09     0.04   0.31  -0.18    -0.05  -0.46   0.28
  11   1    -0.05   0.13   0.12     0.03   0.26   0.25    -0.05  -0.39  -0.38
  12   1     0.01   0.00   0.00     0.35   0.17  -0.07     0.22   0.11  -0.05
  13   1     0.01   0.00  -0.00    -0.35  -0.15  -0.06    -0.24  -0.11  -0.04
  14   1     0.00  -0.00  -0.00    -0.01   0.02  -0.60    -0.02   0.02  -0.40
                     25                     26                     27
                        a                      a                      a 
 Frequencies --  1464.9273              1486.4824              1497.7984
 Red. masses --     1.0575                 1.0517                 1.0574
 Frc consts  --     0.0000                 0.0000                 0.0000
 IR Inten    --     4.4144                 3.4667                 4.4610
 Raman Activ --     0.0000                 0.0000                 0.0000
 Depolar     --     0.0000                 0.0000                 0.0000
 Atom AN      X      Y      Z        X      Y      Z        X      Y      Z
   1   6     0.00  -0.00  -0.00    -0.00   0.02  -0.21    -0.09   0.19   0.02
   2   6     0.00  -0.00  -0.00     0.00   0.01  -0.04    -0.05   0.04   0.00
   3   6    -0.00   0.02   0.00     0.00  -0.00  -0.00     0.01   0.02   0.00
   4   8    -0.01  -0.03  -0.00     0.00   0.00   0.00     0.00  -0.02  -0.00
   5   8    -0.00   0.06   0.00    -0.00  -0.00   0.00     0.00   0.00   0.00
   6   6     0.05   0.21   0.01     0.00  -0.00  -0.00    -0.00   0.00  -0.00
   7   1    -0.00   0.00  -0.00     0.45  -0.13   0.05     0.12  -0.56   0.32
   8   1    -0.00   0.00   0.00    -0.44   0.15   0.11     0.10  -0.46  -0.44
   9   1    -0.00  -0.00   0.00    -0.00  -0.09   0.71     0.17   0.25   0.05
  10   1     0.00   0.00  -0.00    -0.03  -0.02  -0.00     0.03  -0.01   0.01
  11   1     0.00   0.00   0.00     0.03   0.01  -0.00     0.03  -0.01  -0.01
  12   1     0.04  -0.55   0.37    -0.00   0.00  -0.00     0.00  -0.00   0.00
  13   1     0.01  -0.53  -0.41     0.00   0.00   0.00     0.00  -0.00  -0.00
  14   1    -0.16   0.18   0.01     0.00  -0.00   0.00    -0.00  -0.00   0.00
                     28                     29                     30
                        a                      a                      a 
 Frequencies --  1785.5076              2970.0175              2975.9044
 Red. masses --    12.1061                 1.0927                 1.0941
 Frc consts  --     0.0000                 0.0000                 0.0000
 IR Inten    --   410.2794                11.3376                17.9736
 Raman Activ --     0.0000                 0.0000                 0.0000
 Depolar     --     0.0000                 0.0000                 0.0000
 Atom AN      X      Y      Z        X      Y      Z        X      Y      Z
   1   6     0.00   0.00  -0.00    -0.00   0.00   0.02    -0.00   0.00   0.00
   2   6     0.04  -0.05  -0.00     0.00  -0.02  -0.29     0.00  -0.00  -0.02
   3   6    -0.07   0.79   0.04     0.00  -0.00  -0.01     0.00  -0.00   0.00
   4   8     0.03  -0.59  -0.03    -0.00   0.00   0.00     0.00   0.00  -0.00
   5   8    -0.02  -0.05  -0.00    -0.00   0.00   0.00    -0.00   0.00  -0.00
   6   6    -0.01   0.01   0.00     0.00   0.00   0.02    -0.01   0.01  -0.29
   7   1    -0.01   0.01  -0.00    -0.00  -0.04  -0.06    -0.00  -0.00  -0.01
   8   1    -0.01   0.01   0.01     0.00   0.03  -0.03    -0.00   0.00  -0.00
   9   1    -0.02  -0.02  -0.00     0.01  -0.01   0.00     0.00  -0.00   0.00
  10   1     0.03  -0.02   0.01     0.01   0.42   0.71     0.00   0.03   0.05
  11   1     0.04  -0.02  -0.02    -0.02  -0.34   0.33    -0.00  -0.02   0.01
  12   1     0.02   0.02  -0.00     0.00  -0.03  -0.04    -0.03   0.38   0.54
  13   1     0.02   0.02   0.00    -0.00   0.02  -0.03     0.06  -0.43   0.53
  14   1     0.03  -0.02  -0.00     0.00   0.00   0.00    -0.00   0.00  -0.04
                     31                     32                     33
                        a                      a                      a 
 Frequencies --  2986.7119              2988.3163              3044.6022
 Red. masses --     1.0492                 1.0465                 1.0764
 Frc consts  --     0.0000                 0.0000                 0.0000
 IR Inten    --     8.8445                22.0625                12.1784
 Raman Activ --     0.0000                 0.0000                 0.0000
 Depolar     --     0.0000                 0.0000                 0.0000
 Atom AN      X      Y      Z        X      Y      Z        X      Y      Z
   1   6    -0.01   0.01  -0.00    -0.01   0.01  -0.00    -0.03   0.03   0.00
   2   6    -0.01  -0.16   0.04    -0.01  -0.13   0.03    -0.00   0.00   0.00
   3   6     0.00  -0.01   0.00    -0.00  -0.01   0.00     0.00  -0.00  -0.00
   4   8     0.00   0.00   0.00    -0.00   0.00   0.00     0.00   0.00   0.00
   5   8    -0.01   0.01   0.00     0.01  -0.01  -0.00    -0.01  -0.00   0.00
   6   6    -0.02   0.12   0.01     0.02  -0.15  -0.01    -0.17  -0.19  -0.00
   7   1    -0.00  -0.01  -0.02    -0.00  -0.01  -0.02    -0.00  -0.00  -0.01
   8   1    -0.00  -0.03   0.04    -0.00  -0.03   0.03    -0.00  -0.00   0.01
   9   1     0.03  -0.02  -0.00     0.02  -0.01  -0.00     0.11  -0.08  -0.01
  10   1     0.00   0.17   0.35     0.00   0.14   0.28     0.00  -0.00  -0.01
  11   1     0.03   0.43  -0.50     0.02   0.34  -0.39    -0.00  -0.00   0.00
  12   1     0.02  -0.23  -0.38    -0.03   0.28   0.47    -0.02  -0.00   0.04
  13   1     0.04  -0.24   0.34    -0.05   0.31  -0.44    -0.02  -0.00  -0.04
  14   1     0.03   0.04   0.00    -0.04  -0.05  -0.00     0.67   0.68   0.01
                     34                     35                     36
                        a                      a                      a 
 Frequencies --  3045.6726              3050.8861              3056.8397
 Red. masses --     1.0746                 1.0932                 1.0484
 Frc consts  --     0.0000                 0.0000                 0.0000
 IR Inten    --    30.5527                25.0183                16.6925
 Raman Activ --     0.0000                 0.0000                 0.0000
 Depolar     --     0.0000                 0.0000                 0.0000
 Atom AN      X      Y      Z        X      Y      Z        X      Y      Z
   1   6     0.20  -0.15  -0.03    -0.01   0.02  -0.29     0.01   0.20  -0.01
   2   6     0.00  -0.01  -0.00    -0.00   0.00  -0.03     0.00   0.02  -0.00
   3   6    -0.00  -0.00  -0.00     0.00  -0.00  -0.00     0.00   0.00   0.00
   4   8    -0.00   0.00   0.00     0.00   0.00   0.00    -0.00  -0.00  -0.00
   5   8    -0.00   0.00   0.00    -0.00  -0.00   0.00    -0.00  -0.00   0.00
   6   6    -0.03  -0.03  -0.00     0.00   0.00  -0.00     0.00   0.00   0.00
   7   1     0.03   0.01   0.05     0.00   0.38   0.65    -0.00  -0.26  -0.54
   8   1     0.03  -0.02  -0.01    -0.01  -0.41   0.41    -0.01  -0.51   0.58
   9   1    -0.77   0.56   0.06     0.04  -0.03  -0.04    -0.04   0.05   0.00
  10   1    -0.00   0.02   0.03    -0.00   0.03   0.05     0.00  -0.02  -0.03
  11   1     0.00   0.02  -0.02    -0.00  -0.04   0.04    -0.00  -0.03   0.04
  12   1    -0.00  -0.00   0.01    -0.00   0.00   0.00     0.00  -0.00  -0.00
  13   1    -0.00   0.00  -0.01     0.00  -0.00   0.00     0.00  -0.00   0.00
  14   1     0.10   0.10   0.00    -0.00  -0.00  -0.00    -0.01  -0.01  -0.00
