      -----------------------------------------------------------      
     |                   =====================                   |     
     |                           x T B                           |     
     |                   =====================                   |     
     |                         S. Grimme                         |     
     |          Mulliken Center for Theoretical Chemistry        |     
     |                    University of Bonn                     |     
      -----------------------------------------------------------      

   * xtb version 6.7.1 (41059b4) compiled by 'michael@archlinux' on 2025-03-24

   xtb is free software: you can redistribute it and/or modify it under
   the terms of the GNU Lesser General Public License as published by
   the Free Software Foundation, either version 3 of the License, or
   (at your option) any later version.
   
   xtb is distributed in the hope that it will be useful,
   but WITHOUT ANY WARRANTY; without even the implied warranty of
   MERCHANTABILITY or FITNESS FOR A PARTICULAR PURPOSE.  See the
   GNU Lesser General Public License for more details.
   
   Cite this work as:
   * C. Bannwarth, E. Caldeweyher, S. Ehlert, A. Hansen, P. Pracht,
     J. Seibert, S. Spicher, S. Grimme, WIREs Comput. Mol. Sci., 2020, 11,
     e01493. DOI: 10.1002/wcms.1493
   
   for GFN2-xTB:
   * C. Bannwarth, S. Ehlert and S. Grimme., J. Chem. Theory Comput., 2019,
     15, 1652-1671. DOI: 10.1021/acs.jctc.8b01176
   for GFN1-xTB:
   * S. Grimme, C. Bannwarth, P. Shushkov, J. Chem. Theory Comput., 2017,
     13, 1989-2009. DOI: 10.1021/acs.jctc.7b00118
   for GFN0-xTB:
   * P. Pracht, E. Caldeweyher, S. Ehlert, S. Grimme, ChemRxiv, 2019, preprint.
     DOI: 10.26434/chemrxiv.8326202.v1
   for GFN-FF:
   * S. Spicher and S. Grimme, Angew. Chem. Int. Ed., 2020, 59, 15665-15673.
     DOI: 10.1002/anie.202004239
   
   for ALPB and GBSA implicit solvation:
   * S. Ehlert, M. Stahn, S. Spicher, S. Grimme, J. Chem. Theory Comput.,
     2021, 17, 4250-4261. DOI: 10.1021/acs.jctc.1c00471
   
   for ddCOSMO and CPCM-X implicit solvation:
   * M. Stahn, S. Ehlert, S. Grimme, J. Phys. Chem. A,
     2023, XX, XXXX-XXXX. DOI: 10.1021/acs.jpca.3c04382
   
   for DFT-D4:
   * E. Caldeweyher, C. Bannwarth and S. Grimme, J. Chem. Phys., 2017,
     147, 034112. DOI: 10.1063/1.4993215
   * E. Caldeweyher, S. Ehlert, A. Hansen, H. Neugebauer, S. Spicher,
     C. Bannwarth and S. Grimme, J. Chem. Phys., 2019, 150, 154122.
     DOI: 10.1063/1.5090222
   * E. Caldeweyher, J.-M. Mewes, S. Ehlert and S. Grimme, Phys. Chem. Chem. Phys.
     2020, 22, 8499-8512. DOI: 10.1039/D0CP00502A
   
   for sTDA-xTB:
   * S. Grimme and C. Bannwarth, J. Chem. Phys., 2016, 145, 054103.
     DOI: 10.1063/1.4959605
   
   in the mass-spec context:
   * V. Asgeirsson, C. Bauer and S. Grimme, Chem. Sci., 2017, 8, 4879.
     DOI: 10.1039/c7sc00601b
   * J. Koopman and S. Grimme, ACS Omega 2019, 4, 12, 15120-15133.
     DOI: 10.1021/acsomega.9b02011
   
   for metadynamics refer to:
   * S. Grimme, J. Chem. Theory Comput., 2019, 155, 2847-2862
     DOI: 10.1021/acs.jctc.9b00143
   
   for SPH calculations refer to:
   * S. Spicher and S. Grimme, J. Chem. Theory Comput., 2021, 17, 1701-1714
     DOI: 10.1021/acs.jctc.0c01306
   
   for ONIOM refer to:
   * C. Plett, A. Katbashev, S. Ehlert, S. Grimme, M. Bursch,
     Phys. Chem. Chem. Phys., 2023, 25, 17860-17868. DOI: 10.1039/D3CP02178E
   
   for DIPRO refer to:
   * J. Kohn, N. Gildemeister, S. Grimme, D. Fazzi, A. Hansen,
     J. Chem. Phys., 2023, just accepted.
   
   for PTB refer to:
   * S. Grimme, M. Mueller, A. Hansen, J. Chem. Phys., 2023, 158, 124111.
     DOI: 10.1063/5.0137838
   
   with help from (in alphabetical order)
   P. Atkinson, C. Bannwarth, F. Bohle, G. Brandenburg, E. Caldeweyher
   M. Checinski, S. Dohm, S. Ehlert, S. Ehrlich, I. Gerasimov, C. Hölzer
   A. Katbashev, J. Kohn, J. Koopman, C. Lavigne, S. Lehtola, F. März, M. Müller,
   F. Musil, H. Neugebauer, J. Pisarek, C. Plett, P. Pracht, F. Pultar,
   J. Seibert, P. Shushkov, S. Spicher, M. Stahn, M. Steiner, T. Strunk,
   J. Stückrath, T. Rose, and J. Unsleber
   
 * started run on 2025/04/09 at 03:10:55.770     
   ID    Z sym.   atoms
    1    6 C      1-3
    2    1 H      4-11

           -------------------------------------------------
          |                Calculation Setup                |
           -------------------------------------------------

          program call               : /usr/bin/xtb xtb_rrho.coord --gfn2 --ohess vtight --chrg 0 --enso --norestart -I rrho-xcontrol-inp --parallel 1
          coordinate file            : xtb_rrho.coord
          omp threads                :                     1


           -------------------------------------------------
          |                 G F N 2 - x T B                 |
           -------------------------------------------------

        Reference                      10.1021/acs.jctc.8b01176
      * Hamiltonian:
        H0-scaling (s, p, d)           1.850000    2.230000    2.230000
        zeta-weighting                 0.500000
      * Dispersion:
        s8                             2.700000
        a1                             0.520000
        a2                             5.000000
        s9                             5.000000
      * Repulsion:
        kExp                           1.500000    1.000000
        rExp                           1.000000
      * Coulomb:
        alpha                          2.000000
        third order                    shell-resolved
        anisotropic                    true
        a3                             3.000000
        a5                             4.000000
        cn-shift                       1.200000
        cn-exp                         4.000000
        max-rad                        5.000000


          ...................................................
          :                      SETUP                      :
          :.................................................:
          :  # basis functions                  20          :
          :  # atomic orbitals                  20          :
          :  # shells                           14          :
          :  # electrons                        20          :
          :  max. iterations                   250          :
          :  Hamiltonian                  GFN2-xTB          :
          :  restarted?                      false          :
          :  GBSA solvation                  false          :
          :  PC potential                    false          :
          :  electronic temp.          300.0000000     K    :
          :  accuracy                    1.0000000          :
          :  -> integral cutoff          0.2500000E+02      :
          :  -> integral neglect         0.1000000E-07      :
          :  -> SCF convergence          0.1000000E-05 Eh   :
          :  -> wf. convergence          0.1000000E-03 e    :
          :  Broyden damping             0.4000000          :
          :  net charge                          0          :
          :  unpaired electrons                  0          :
          ...................................................

 iter      E             dE          RMSdq      gap      omega  full diag
   1    -10.6201369 -0.106201E+02  0.255E+00   14.17       0.0  T
   2    -10.6518862 -0.317493E-01  0.130E+00   13.78       1.0  T
   3    -10.6522064 -0.320249E-03  0.698E-01   13.76       1.0  T
   4    -10.6522976 -0.911370E-04  0.994E-02   13.76       1.0  T
   5    -10.6523086 -0.110128E-04  0.559E-02   13.76       1.0  T
   6    -10.6523089 -0.328006E-06  0.256E-03   13.76      11.8  T
   7    -10.6523089 -0.656845E-08  0.836E-04   13.76      36.1  T
   8    -10.6523089 -0.641169E-09  0.172E-04   13.76     174.9  T

   *** convergence criteria satisfied after 8 iterations ***

         #    Occupation            Energy/Eh            Energy/eV
      -------------------------------------------------------------
         1        2.0000           -0.6112899             -16.6340
       ...           ...                  ...                  ...
         4        2.0000           -0.5045127             -13.7285
         5        2.0000           -0.4960847             -13.4992
         6        2.0000           -0.4732240             -12.8771
         7        2.0000           -0.4619018             -12.5690
         8        2.0000           -0.4376518             -11.9091
         9        2.0000           -0.4353787             -11.8473
        10        2.0000           -0.4199855             -11.4284 (HOMO)
        11                          0.0857298               2.3328 (LUMO)
        12                          0.1204892               3.2787
        13                          0.1243479               3.3837
        14                          0.1554238               4.2293
        15                          0.1673872               4.5548
       ...                                ...                  ...
        20                          0.3089567               8.4071
      -------------------------------------------------------------
                  HL-Gap            0.5057153 Eh           13.7612 eV
             Fermi-level           -0.1671279 Eh           -4.5478 eV

 SCC (total)                   0 d,  0 h,  0 min,  0.002 sec
 SCC setup                      ...        0 min,  0.000 sec (  2.727%)
 Dispersion                     ...        0 min,  0.000 sec (  1.309%)
 classical contributions        ...        0 min,  0.000 sec (  0.518%)
 integral evaluation            ...        0 min,  0.000 sec ( 12.315%)
 iterations                     ...        0 min,  0.001 sec ( 50.856%)
 molecular gradient             ...        0 min,  0.001 sec ( 29.642%)
 printout                       ...        0 min,  0.000 sec (  2.350%)

         :::::::::::::::::::::::::::::::::::::::::::::::::::::
         ::                     SUMMARY                     ::
         :::::::::::::::::::::::::::::::::::::::::::::::::::::
         :: total energy             -10.496151734636 Eh    ::
         :: gradient norm              0.013287060010 Eh/a0 ::
         :: HOMO-LUMO gap             13.761212435134 eV    ::
         ::.................................................::
         :: SCC energy               -10.652307399995 Eh    ::
         :: -> isotropic ES            0.002451064283 Eh    ::
         :: -> anisotropic ES          0.004343660609 Eh    ::
         :: -> anisotropic XC          0.007442644363 Eh    ::
         :: -> dispersion             -0.003933926495 Eh    ::
         :: repulsion energy           0.156155665359 Eh    ::
         :: add. restraining           0.000000000000 Eh    ::
         :: total charge               0.000000000000 e     ::
         :::::::::::::::::::::::::::::::::::::::::::::::::::::

      ----------------------------------------------------------- 
     |                   =====================                   |
     |                        A N C O P T                        |
     |                   =====================                   |
     |               Approximate Normal Coordinate               |
     |                Rational Function Optimizer                |
      ----------------------------------------------------------- 

          ...................................................
          :                      SETUP                      :
          :.................................................:
          :   optimization level         verytight          :
          :   max. optcycles                   220          :
          :   ANC micro-cycles                  20          :
          :   degrees of freedom                27          :
          :.................................................:
          :   RF solver                   davidson          :
          :   write xtbopt.log                true          :
          :   linear?                        false          :
          :   energy convergence         0.1000000E-06 Eh   :
          :   grad. convergence          0.2000000E-03 Eh/α :
          :   maximum RF displ.          1.0000000          :
          :   Hlow (freq-cutoff)         0.1000000E-01      :
          :   Hmax (freq-cutoff)         5.0000000          :
          :   S6 in model hess.         20.0000000          :
          ...................................................

generating ANC from exact Hessian ...
Using Lindh-Hessian (1995)
 Shifting diagonal of input Hessian by    1.6588040569875395E-003
 Lowest  eigenvalues of input Hessian
    0.000000    0.000000    0.000000    0.000000    0.000000    0.000000
    0.010000    0.012007    0.012904    0.037582    0.048841    0.050373
    0.054330    0.057371    0.066888    0.075783    0.099525    0.122010
 Highest eigenvalues
    1.066009    1.082682    1.083393    1.147372    1.186374    1.234851


........................................................................
.............................. CYCLE    1 ..............................
........................................................................

 iter      E             dE          RMSdq      gap      omega  full diag
   1    -10.6523089 -0.106523E+02  0.403E-05   13.76       0.0  T
   2    -10.6523089 -0.128786E-11  0.224E-05   13.76    1343.8  T
   3    -10.6523089 -0.426326E-13  0.653E-06   13.76    4616.0  T
     SCC iter.                  ...        0 min,  0.000 sec
     gradient                   ...        0 min,  0.001 sec
 * total energy  :   -10.4961517 Eh     change       -0.6240342E-11 Eh
   gradient norm :     0.0132863 Eh/α   predicted     0.0000000E+00 (-100.00%)
   displ. norm   :     0.1146319 α      lambda       -0.8423689E-03
   maximum displ.:     0.0812953 α      in ANC's #7, #3, #10, ...

........................................................................
.............................. CYCLE    2 ..............................
........................................................................

 iter      E             dE          RMSdq      gap      omega  full diag
   1    -10.6587371 -0.106587E+02  0.153E-01   14.21       0.0  T
   2    -10.6587402 -0.302870E-05  0.879E-02   14.22       1.0  T
   3    -10.6587404 -0.212370E-06  0.736E-03   14.22       4.1  T
   4    -10.6587404 -0.136852E-07  0.178E-03   14.22      16.9  T
   5    -10.6587404 -0.537449E-09  0.805E-04   14.22      37.4  T
   6    -10.6587404 -0.495421E-09  0.105E-04   14.22     286.8  T
     SCC iter.                  ...        0 min,  0.001 sec
     gradient                   ...        0 min,  0.001 sec
 * total energy  :   -10.4965771 Eh     change       -0.4253726E-03 Eh
   gradient norm :     0.0044426 Eh/α   predicted    -0.4267192E-03 (   0.32%)
   displ. norm   :     0.0231655 α      lambda       -0.4735275E-04
   maximum displ.:     0.0144793 α      in ANC's #3, #10, #18, ...

........................................................................
.............................. CYCLE    3 ..............................
........................................................................

 iter      E             dE          RMSdq      gap      omega  full diag
   1    -10.6603183 -0.106603E+02  0.323E-02   14.16       0.0  T
   2    -10.6603188 -0.472780E-06  0.188E-02   14.16       1.6  T
   3    -10.6603188 -0.147222E-07  0.267E-03   14.16      11.3  T
   4    -10.6603188 -0.177342E-08  0.621E-04   14.16      48.6  T
   5    -10.6603188 -0.934097E-10  0.300E-04   14.16     100.6  T
     SCC iter.                  ...        0 min,  0.001 sec
     gradient                   ...        0 min,  0.001 sec
 * total energy  :   -10.4965998 Eh     change       -0.2265049E-04 Eh
   gradient norm :     0.0014030 Eh/α   predicted    -0.2369053E-04 (   4.59%)
   displ. norm   :     0.0160593 α      lambda       -0.4212072E-05
   maximum displ.:     0.0114650 α      in ANC's #1, #2, #10, ...

........................................................................
.............................. CYCLE    4 ..............................
........................................................................

 iter      E             dE          RMSdq      gap      omega  full diag
   1    -10.6603514 -0.106604E+02  0.110E-02   14.16       0.0  T
   2    -10.6603514 -0.230487E-07  0.660E-03   14.16       4.6  T
   3    -10.6603514 -0.306587E-09  0.489E-04   14.16      61.7  T
   4    -10.6603514 -0.486592E-09  0.134E-04   14.16     224.7  T
     SCC iter.                  ...        0 min,  0.001 sec
     gradient                   ...        0 min,  0.001 sec
 * total energy  :   -10.4966031 Eh     change       -0.3358597E-05 Eh
   gradient norm :     0.0004609 Eh/α   predicted    -0.2106667E-05 ( -37.28%)
   displ. norm   :     0.0267717 α      lambda       -0.2640592E-05
   maximum displ.:     0.0198986 α      in ANC's #1, #2, #4, ...

........................................................................
.............................. CYCLE    5 ..............................
........................................................................

 iter      E             dE          RMSdq      gap      omega  full diag
   1    -10.6602296 -0.106602E+02  0.951E-03   14.15       0.0  T
   2    -10.6602296 -0.789000E-08  0.570E-03   14.15       5.3  T
   3    -10.6602296  0.251251E-09  0.504E-04   14.15      59.8  T
   4    -10.6602296 -0.130292E-08  0.138E-04   14.15     219.0  T
     SCC iter.                  ...        0 min,  0.000 sec
     gradient                   ...        0 min,  0.001 sec
 * total energy  :   -10.4966073 Eh     change       -0.4174260E-05 Eh
   gradient norm :     0.0009533 Eh/α   predicted    -0.1321931E-05 ( -68.33%)
   displ. norm   :     0.0339288 α      lambda       -0.4313313E-05
   maximum displ.:     0.0255094 α      in ANC's #1, #2, #4, ...

........................................................................
.............................. CYCLE    6 ..............................
........................................................................

 iter      E             dE          RMSdq      gap      omega  full diag
   1    -10.6602775 -0.106603E+02  0.111E-02   14.15       0.0  T
   2    -10.6602775 -0.197318E-08  0.669E-03   14.15       4.5  T
   3    -10.6602775 -0.535875E-09  0.165E-04   14.15     183.1  T
   4    -10.6602775 -0.272724E-10  0.900E-05   14.15     335.2  T
     SCC iter.                  ...        0 min,  0.000 sec
     gradient                   ...        0 min,  0.001 sec
 * total energy  :   -10.4966149 Eh     change       -0.7602099E-05 Eh
   gradient norm :     0.0012248 Eh/α   predicted    -0.2158373E-05 ( -71.61%)
   displ. norm   :     0.0474954 α      lambda       -0.8090819E-05
   maximum displ.:     0.0358146 α      in ANC's #1, #2, #4, ...

........................................................................
.............................. CYCLE    7 ..............................
........................................................................

 iter      E             dE          RMSdq      gap      omega  full diag
   1    -10.6602176 -0.106602E+02  0.154E-02   14.15       0.0  T
   2    -10.6602177 -0.554734E-08  0.930E-03   14.15       3.2  T
   3    -10.6602177 -0.838586E-09  0.338E-04   14.15      89.3  T
   4    -10.6602177 -0.463201E-09  0.150E-04   14.15     201.2  T
     SCC iter.                  ...        0 min,  0.001 sec
     gradient                   ...        0 min,  0.001 sec
 * total energy  :   -10.4966292 Eh     change       -0.1431848E-04 Eh
   gradient norm :     0.0017106 Eh/α   predicted    -0.4050095E-05 ( -71.71%)
   displ. norm   :     0.0638549 α      lambda       -0.1506675E-04
   maximum displ.:     0.0481976 α      in ANC's #1, #2, #4, ...

........................................................................
.............................. CYCLE    8 ..............................
........................................................................

 iter      E             dE          RMSdq      gap      omega  full diag
   1    -10.6601634 -0.106602E+02  0.207E-02   14.15       0.0  T
   2    -10.6601634 -0.870860E-08  0.125E-02   14.15       2.4  T
   3    -10.6601634 -0.175578E-08  0.382E-04   14.15      78.8  T
   4    -10.6601634 -0.400492E-09  0.187E-04   14.15     160.8  T
     SCC iter.                  ...        0 min,  0.000 sec
     gradient                   ...        0 min,  0.001 sec
 * total energy  :   -10.4966557 Eh     change       -0.2653447E-04 Eh
   gradient norm :     0.0023209 Eh/α   predicted    -0.7547888E-05 ( -71.55%)
   displ. norm   :     0.0567405 α      lambda       -0.2726734E-04
   maximum displ.:     0.0427741 α      in ANC's #1, #2, #4, ...

........................................................................
.............................. CYCLE    9 ..............................
........................................................................

 iter      E             dE          RMSdq      gap      omega  full diag
   1    -10.6600864 -0.106601E+02  0.184E-02   14.15       0.0  T
   2    -10.6600864 -0.952841E-08  0.111E-02   14.15       2.7  T
   3    -10.6600864 -0.133447E-08  0.407E-04   14.15      74.0  T
   4    -10.6600864 -0.562297E-09  0.180E-04   14.15     167.2  T
     SCC iter.                  ...        0 min,  0.000 sec
     gradient                   ...        0 min,  0.001 sec
 * total energy  :   -10.4966859 Eh     change       -0.3015849E-04 Eh
   gradient norm :     0.0028797 Eh/α   predicted    -0.1367616E-04 ( -54.65%)
   displ. norm   :     0.0672781 α      lambda       -0.3987594E-04
   maximum displ.:     0.0506290 α      in ANC's #1, #2, #4, ...

........................................................................
.............................. CYCLE   10 ..............................
........................................................................

 iter      E             dE          RMSdq      gap      omega  full diag
   1    -10.6599661 -0.106600E+02  0.218E-02   14.15       0.0  T
   2    -10.6599661 -0.170469E-07  0.131E-02   14.15       2.3  T
   3    -10.6599661 -0.201584E-08  0.523E-04   14.15      57.7  T
   4    -10.6599661 -0.821611E-09  0.221E-04   14.15     136.4  T
     SCC iter.                  ...        0 min,  0.000 sec
     gradient                   ...        0 min,  0.001 sec
 * total energy  :   -10.4967295 Eh     change       -0.4363588E-04 Eh
   gradient norm :     0.0035411 Eh/α   predicted    -0.2002691E-04 ( -54.10%)
   displ. norm   :     0.0772695 α      lambda       -0.5591787E-04
   maximum displ.:     0.0579262 α      in ANC's #1, #2, #4, ...

........................................................................
.............................. CYCLE   11 ..............................
........................................................................

 iter      E             dE          RMSdq      gap      omega  full diag
   1    -10.6598093 -0.106598E+02  0.250E-02   14.15       0.0  T
   2    -10.6598094 -0.284063E-07  0.150E-02   14.15       2.0  T
   3    -10.6598094 -0.279486E-08  0.660E-04   14.15      45.7  T
   4    -10.6598094 -0.119058E-08  0.263E-04   14.15     114.8  T
     SCC iter.                  ...        0 min,  0.000 sec
     gradient                   ...        0 min,  0.001 sec
 * total energy  :   -10.4967899 Eh     change       -0.6032298E-04 Eh
   gradient norm :     0.0042993 Eh/α   predicted    -0.2812585E-04 ( -53.37%)
   displ. norm   :     0.0849093 α      lambda       -0.7428342E-04
   maximum displ.:     0.0632733 α      in ANC's #1, #2, #4, ...

........................................................................
.............................. CYCLE   12 ..............................
........................................................................

 iter      E             dE          RMSdq      gap      omega  full diag
   1    -10.6596368 -0.106596E+02  0.275E-02   14.15       0.0  T
   2    -10.6596368 -0.397539E-07  0.165E-02   14.15       1.8  T
   3    -10.6596368 -0.353772E-08  0.761E-04   14.15      39.6  T
   4    -10.6596368 -0.138080E-08  0.290E-04   14.15     103.9  T
     SCC iter.                  ...        0 min,  0.000 sec
     gradient                   ...        0 min,  0.001 sec
 * total energy  :   -10.4968687 Eh     change       -0.7884993E-04 Eh
   gradient norm :     0.0050916 Eh/α   predicted    -0.3740969E-04 ( -52.56%)
   displ. norm   :     0.0889681 α      lambda       -0.9287507E-04
   maximum displ.:     0.0657185 α      in ANC's #1, #2, #4, ...

........................................................................
.............................. CYCLE   13 ..............................
........................................................................

 iter      E             dE          RMSdq      gap      omega  full diag
   1    -10.6594839 -0.106595E+02  0.287E-02   14.15       0.0  T
   2    -10.6594839 -0.458273E-07  0.172E-02   14.15       1.8  T
   3    -10.6594839 -0.398115E-08  0.787E-04   14.15      38.3  T
   4    -10.6594839 -0.129456E-08  0.297E-04   14.15     101.6  T
     SCC iter.                  ...        0 min,  0.000 sec
     gradient                   ...        0 min,  0.001 sec
 * total energy  :   -10.4969657 Eh     change       -0.9703420E-04 Eh
   gradient norm :     0.0058253 Eh/α   predicted    -0.4680632E-04 ( -51.76%)
   displ. norm   :     0.0893627 α      lambda       -0.1094320E-03
   maximum displ.:     0.0652704 α      in ANC's #1, #2, #4, ...

........................................................................
.............................. CYCLE   14 ..............................
........................................................................

 iter      E             dE          RMSdq      gap      omega  full diag
   1    -10.6593833 -0.106594E+02  0.286E-02   14.16       0.0  T
   2    -10.6593834 -0.442164E-07  0.172E-02   14.16       1.8  T
   3    -10.6593834 -0.402061E-08  0.737E-04   14.16      40.9  T
   4    -10.6593834 -0.101327E-08  0.285E-04   14.16     105.9  T
     SCC iter.                  ...        0 min,  0.001 sec
     gradient                   ...        0 min,  0.001 sec
 * total energy  :   -10.4970785 Eh     change       -0.1127707E-03 Eh
   gradient norm :     0.0064147 Eh/α   predicted    -0.5515420E-04 ( -51.09%)
   displ. norm   :     0.0873054 α      lambda       -0.1224241E-03
   maximum displ.:     0.0629824 α      in ANC's #1, #2, #4, ...

........................................................................
.............................. CYCLE   15 ..............................
........................................................................

 iter      E             dE          RMSdq      gap      omega  full diag
   1    -10.6593434 -0.106593E+02  0.278E-02   14.17       0.0  T
   2    -10.6593435 -0.389624E-07  0.167E-02   14.17       1.8  T
   3    -10.6593435 -0.380244E-08  0.664E-04   14.17      45.4  T
   4    -10.6593435 -0.769045E-09  0.267E-04   14.17     112.8  T
     SCC iter.                  ...        0 min,  0.000 sec
     gradient                   ...        0 min,  0.001 sec
 * total energy  :   -10.4972033 Eh     change       -0.1247679E-03 Eh
   gradient norm :     0.0068388 Eh/α   predicted    -0.6167906E-04 ( -50.56%)
   displ. norm   :     0.0838830 α      lambda       -0.1313403E-03
   maximum displ.:     0.0597867 α      in ANC's #1, #2, #4, ...

........................................................................
.............................. CYCLE   16 ..............................
........................................................................

 iter      E             dE          RMSdq      gap      omega  full diag
   1    -10.6593593 -0.106594E+02  0.266E-02   14.18       0.0  T
   2    -10.6593594 -0.328530E-07  0.160E-02   14.18       1.9  T
   3    -10.6593594 -0.347299E-08  0.596E-04   14.18      50.6  T
   4    -10.6593594 -0.617721E-09  0.251E-04   14.18     120.4  T
     SCC iter.                  ...        0 min,  0.000 sec
     gradient                   ...        0 min,  0.001 sec
 * total energy  :   -10.4973360 Eh     change       -0.1327263E-03 Eh
   gradient norm :     0.0071141 Eh/α   predicted    -0.6613194E-04 ( -50.17%)
   displ. norm   :     0.0798613 α      lambda       -0.1364496E-03
   maximum displ.:     0.0563163 α      in ANC's #1, #2, #4, ...

........................................................................
.............................. CYCLE   17 ..............................
........................................................................

 iter      E             dE          RMSdq      gap      omega  full diag
   1    -10.6594201 -0.106594E+02  0.252E-02   14.20       0.0  T
   2    -10.6594202 -0.273201E-07  0.152E-02   14.19       2.0  T
   3    -10.6594202 -0.312824E-08  0.541E-04   14.19      55.7  T
   4    -10.6594202 -0.535506E-09  0.236E-04   14.19     127.6  T
     SCC iter.                  ...        0 min,  0.001 sec
     gradient                   ...        0 min,  0.001 sec
 * total energy  :   -10.4974730 Eh     change       -0.1370281E-03 Eh
   gradient norm :     0.0072727 Eh/α   predicted    -0.6866078E-04 ( -49.89%)
   displ. norm   :     0.0756119 α      lambda       -0.1384045E-03
   maximum displ.:     0.0528559 α      in ANC's #1, #2, #4, ...

........................................................................
.............................. CYCLE   18 ..............................
........................................................................

 iter      E             dE          RMSdq      gap      omega  full diag
   1    -10.6595164 -0.106595E+02  0.238E-02   14.21       0.0  T
   2    -10.6595165 -0.224678E-07  0.143E-02   14.21       2.1  T
   3    -10.6595165 -0.280321E-08  0.496E-04   14.21      60.7  T
   4    -10.6595165 -0.482903E-09  0.224E-04   14.21     134.7  T
     SCC iter.                  ...        0 min,  0.000 sec
     gradient                   ...        0 min,  0.001 sec
 * total energy  :   -10.4976114 Eh     change       -0.1383516E-03 Eh
   gradient norm :     0.0073406 Eh/α   predicted    -0.6959890E-04 ( -49.69%)
   displ. norm   :     0.9222669 α      lambda       -0.1999295E-02
   maximum displ.:     0.6266103 α      in ANC's #1, #2, #4, ...

........................................................................
.............................. CYCLE   19 ..............................
........................................................................

 iter      E             dE          RMSdq      gap      omega  full diag
   1    -10.6530516 -0.106531E+02  0.303E-01   14.29       0.0  T
   2    -10.6530925 -0.408507E-04  0.177E-01   14.28       1.0  T
   3    -10.6530937 -0.125958E-05  0.331E-02   14.28       1.0  T
   4    -10.6530942 -0.498458E-06  0.580E-03   14.28       5.2  T
   5    -10.6530942 -0.441236E-08  0.277E-03   14.28      10.9  T
   6    -10.6530942 -0.113524E-08  0.229E-04   14.28     131.9  T
   7    -10.6530942 -0.268088E-10  0.865E-05   14.28     348.4  T
     SCC iter.                  ...        0 min,  0.001 sec
     gradient                   ...        0 min,  0.001 sec
 * total energy  :   -10.4984965 Eh     change       -0.8851203E-03 Eh
   gradient norm :     0.0286683 Eh/α   predicted    -0.1849911E-02 ( 109.00%)
   displ. norm   :     0.4528837 α      lambda       -0.6020742E-02
   maximum displ.:     0.2825247 α      in ANC's #18, #17, #19, ...

........................................................................
.............................. CYCLE   20 ..............................
........................................................................

 iter      E             dE          RMSdq      gap      omega  full diag
   1    -10.6814767 -0.106815E+02  0.558E-01   14.43       0.0  T
   2    -10.6817763 -0.299598E-03  0.307E-01   14.44       1.0  T
   3    -10.6817969 -0.206233E-04  0.963E-02   14.45       1.0  T
   4    -10.6818007 -0.385673E-05  0.241E-02   14.45       1.3  T
   5    -10.6818008 -0.774179E-07  0.921E-03   14.45       3.3  T
   6    -10.6818008 -0.242003E-07  0.996E-04   14.45      30.3  T
   7    -10.6818008 -0.625697E-09  0.446E-04   14.45      67.5  T
     SCC iter.                  ...        0 min,  0.001 sec
     gradient                   ...        0 min,  0.001 sec
 * total energy  :   -10.4871911 Eh     change        0.1130543E-01 Eh
   gradient norm :     0.1103610 Eh/α   predicted    -0.3627812E-02 (-132.09%)
   displ. norm   :     0.2687694 α      lambda       -0.2374568E-01
   maximum displ.:     0.1508747 α      in ANC's #18, #1, #19, ...
 * RMSD in coord.:     0.6518107 α      energy gain   0.8960648E-02 Eh

generating ANC from exact Hessian ...
Using Lindh-Hessian (1995)
 Shifting diagonal of input Hessian by    7.4189318745110193E-004
 Lowest  eigenvalues of input Hessian
    0.000000    0.000000    0.000000    0.000000    0.000000    0.000000
    0.010000    0.012725    0.014036    0.040440    0.052631    0.054429
    0.058091    0.062511    0.072844    0.079789    0.105994    0.125252
 Highest eigenvalues
    1.082672    1.104682    1.115729    1.179637    1.231634    1.318869


........................................................................
.............................. CYCLE   21 ..............................
........................................................................

 iter      E             dE          RMSdq      gap      omega  full diag
   1    -10.6619044 -0.106619E+02  0.413E-01   14.51       0.0  T
   2    -10.6620649 -0.160457E-03  0.226E-01   14.50       1.0  T
   3    -10.6620742 -0.932627E-05  0.767E-02   14.50       1.0  T
   4    -10.6620779 -0.370534E-05  0.174E-02   14.50       1.7  T
   5    -10.6620779 -0.434519E-07  0.670E-03   14.50       4.5  T
   6    -10.6620780 -0.264317E-07  0.787E-04   14.50      38.3  T
   7    -10.6620780 -0.470671E-09  0.333E-04   14.50      90.6  T
     SCC iter.                  ...        0 min,  0.001 sec
     gradient                   ...        0 min,  0.001 sec
 * total energy  :   -10.4993054 Eh     change       -0.1211430E-01 Eh
   gradient norm :     0.0253808 Eh/α   predicted     0.0000000E+00 (-100.00%)
   displ. norm   :     0.1966542 α      lambda       -0.1430560E-02
   maximum displ.:     0.1497297 α      in ANC's #1, #2, #4, ...

........................................................................
.............................. CYCLE   22 ..............................
........................................................................

 iter      E             dE          RMSdq      gap      omega  full diag
   1    -10.6630319 -0.106630E+02  0.140E-01   14.61       0.0  T
   2    -10.6630349 -0.298890E-05  0.832E-02   14.61       1.0  T
   3    -10.6630351 -0.182937E-06  0.599E-03   14.61       5.0  T
   4    -10.6630352 -0.938755E-07  0.218E-03   14.61      13.8  T
   5    -10.6630352 -0.589146E-08  0.920E-04   14.61      32.8  T
   6    -10.6630352 -0.329768E-09  0.189E-04   14.61     159.7  T
     SCC iter.                  ...        0 min,  0.001 sec
     gradient                   ...        0 min,  0.001 sec
 * total energy  :   -10.5001887 Eh     change       -0.8833252E-03 Eh
   gradient norm :     0.0086189 Eh/α   predicted    -0.7429440E-03 ( -15.89%)
   displ. norm   :     0.1662787 α      lambda       -0.3512637E-03
   maximum displ.:     0.1494803 α      in ANC's #1, #2, #4, ...

........................................................................
.............................. CYCLE   23 ..............................
........................................................................

 iter      E             dE          RMSdq      gap      omega  full diag
   1    -10.6632724 -0.106633E+02  0.622E-02   14.52       0.0  T
   2    -10.6632734 -0.971701E-06  0.375E-02   14.52       1.0  T
   3    -10.6632734  0.197611E-07  0.509E-03   14.52       5.9  T
   4    -10.6632735 -0.919892E-07  0.101E-03   14.52      29.8  T
   5    -10.6632735 -0.938448E-09  0.463E-04   14.52      65.2  T
   6    -10.6632735 -0.502034E-10  0.761E-05   14.52     396.0  T
     SCC iter.                  ...        0 min,  0.001 sec
     gradient                   ...        0 min,  0.001 sec
 * total energy  :   -10.5004397 Eh     change       -0.2509503E-03 Eh
   gradient norm :     0.0034122 Eh/α   predicted    -0.1804895E-03 ( -28.08%)
   displ. norm   :     0.1363890 α      lambda       -0.1695426E-03
   maximum displ.:     0.1232814 α      in ANC's #1, #2, #5, ...

........................................................................
.............................. CYCLE   24 ..............................
........................................................................

 iter      E             dE          RMSdq      gap      omega  full diag
   1    -10.6638691 -0.106639E+02  0.460E-02   14.51       0.0  T
   2    -10.6638692 -0.184535E-06  0.275E-02   14.51       1.1  T
   3    -10.6638693 -0.104104E-07  0.161E-03   14.51      18.7  T
   4    -10.6638693 -0.729611E-08  0.534E-04   14.51      56.5  T
   5    -10.6638693 -0.257515E-09  0.264E-04   14.51     114.1  T
     SCC iter.                  ...        0 min,  0.001 sec
     gradient                   ...        0 min,  0.001 sec
 * total energy  :   -10.5005774 Eh     change       -0.1377108E-03 Eh
   gradient norm :     0.0038579 Eh/α   predicted    -0.8634701E-04 ( -37.30%)
   displ. norm   :     0.1439678 α      lambda       -0.1466268E-03
   maximum displ.:     0.1297046 α      in ANC's #1, #2, #5, ...

........................................................................
.............................. CYCLE   25 ..............................
........................................................................

 iter      E             dE          RMSdq      gap      omega  full diag
   1    -10.6644429 -0.106644E+02  0.459E-02   14.53       0.0  T
   2    -10.6644430 -0.498266E-07  0.276E-02   14.53       1.1  T
   3    -10.6644430 -0.160733E-07  0.981E-04   14.53      30.7  T
   4    -10.6644430 -0.150929E-08  0.515E-04   14.53      58.5  T
     SCC iter.                  ...        0 min,  0.000 sec
     gradient                   ...        0 min,  0.001 sec
 * total energy  :   -10.5006959 Eh     change       -0.1184888E-03 Eh
   gradient norm :     0.0033882 Eh/α   predicted    -0.7483421E-04 ( -36.84%)
   displ. norm   :     0.1450217 α      lambda       -0.1077895E-03
   maximum displ.:     0.1342734 α      in ANC's #1, #2, #18, ...

........................................................................
.............................. CYCLE   26 ..............................
........................................................................

 iter      E             dE          RMSdq      gap      omega  full diag
   1    -10.6645335 -0.106645E+02  0.457E-02   14.56       0.0  T
   2    -10.6645336 -0.956590E-07  0.275E-02   14.56       1.1  T
   3    -10.6645336 -0.102254E-07  0.121E-03   14.56      24.9  T
   4    -10.6645336 -0.634262E-08  0.484E-04   14.56      62.3  T
   5    -10.6645336 -0.124015E-09  0.215E-04   14.56     140.5  T
     SCC iter.                  ...        0 min,  0.001 sec
     gradient                   ...        0 min,  0.001 sec
 * total energy  :   -10.5007768 Eh     change       -0.8097916E-04 Eh
   gradient norm :     0.0018711 Eh/α   predicted    -0.5502990E-04 ( -32.04%)
   displ. norm   :     0.1718751 α      lambda       -0.5249741E-04
   maximum displ.:     0.1644159 α      in ANC's #1, #2, #18, ...

........................................................................
.............................. CYCLE   27 ..............................
........................................................................

 iter      E             dE          RMSdq      gap      omega  full diag
   1    -10.6646447 -0.106646E+02  0.542E-02   14.59       0.0  T
   2    -10.6646449 -0.164478E-06  0.326E-02   14.59       1.0  T
   3    -10.6646449 -0.137432E-07  0.165E-03   14.59      18.3  T
   4    -10.6646449 -0.106395E-07  0.599E-04   14.59      50.3  T
   5    -10.6646449 -0.140798E-09  0.260E-04   14.59     115.7  T
     SCC iter.                  ...        0 min,  0.001 sec
     gradient                   ...        0 min,  0.001 sec
 * total energy  :   -10.5008182 Eh     change       -0.4136164E-04 Eh
   gradient norm :     0.0016675 Eh/α   predicted    -0.2659407E-04 ( -35.70%)
   displ. norm   :     0.0263484 α      lambda       -0.5865969E-05
   maximum displ.:     0.0234677 α      in ANC's #1, #2, #18, ...

........................................................................
.............................. CYCLE   28 ..............................
........................................................................

 iter      E             dE          RMSdq      gap      omega  full diag
   1    -10.6652014 -0.106652E+02  0.103E-02   14.59       0.0  T
   2    -10.6652015 -0.660855E-07  0.593E-03   14.59       5.1  T
   3    -10.6652015 -0.213303E-08  0.132E-03   14.59      22.8  T
   4    -10.6652015 -0.291141E-09  0.230E-04   14.59     131.1  T
   5    -10.6652015 -0.226912E-10  0.114E-04   14.59     263.8  T
     SCC iter.                  ...        0 min,  0.001 sec
     gradient                   ...        0 min,  0.001 sec
 * total energy  :   -10.5008236 Eh     change       -0.5416794E-05 Eh
   gradient norm :     0.0007987 Eh/α   predicted    -0.2933592E-05 ( -45.84%)
   displ. norm   :     0.0524765 α      lambda       -0.4586323E-05
   maximum displ.:     0.0514421 α      in ANC's #1, #4, #18, ...

........................................................................
.............................. CYCLE   29 ..............................
........................................................................

 iter      E             dE          RMSdq      gap      omega  full diag
   1    -10.6649076 -0.106649E+02  0.180E-02   14.58       0.0  T
   2    -10.6649077 -0.395803E-07  0.108E-02   14.58       2.8  T
   3    -10.6649077 -0.252846E-08  0.103E-03   14.58      29.4  T
   4    -10.6649077 -0.307945E-08  0.337E-04   14.58      89.3  T
   5    -10.6649077 -0.249454E-10  0.108E-04   14.58     280.1  T
     SCC iter.                  ...        0 min,  0.001 sec
     gradient                   ...        0 min,  0.001 sec
 * total energy  :   -10.5008255 Eh     change       -0.1886797E-05 Eh
   gradient norm :     0.0005643 Eh/α   predicted    -0.2295084E-05 (  21.64%)
   displ. norm   :     0.0187098 α      lambda       -0.2273646E-05
   maximum displ.:     0.0170242 α      in ANC's #2, #1, #3, ...

........................................................................
.............................. CYCLE   30 ..............................
........................................................................

 iter      E             dE          RMSdq      gap      omega  full diag
   1    -10.6651132 -0.106651E+02  0.788E-03   14.58       0.0  T
   2    -10.6651132 -0.203722E-07  0.461E-03   14.58       6.5  T
   3    -10.6651132 -0.156987E-08  0.705E-04   14.58      42.8  T
   4    -10.6651132 -0.373491E-09  0.204E-04   14.58     147.6  T
     SCC iter.                  ...        0 min,  0.000 sec
     gradient                   ...        0 min,  0.001 sec
 * total energy  :   -10.5008273 Eh     change       -0.1781095E-05 Eh
   gradient norm :     0.0005592 Eh/α   predicted    -0.1135648E-05 ( -36.24%)
   displ. norm   :     0.0112717 α      lambda       -0.7105526E-06
   maximum displ.:     0.0078338 α      in ANC's #2, #1, #19, ...

........................................................................
.............................. CYCLE   31 ..............................
........................................................................

 iter      E             dE          RMSdq      gap      omega  full diag
   1    -10.6651681 -0.106652E+02  0.504E-03   14.58       0.0  T
   2    -10.6651681 -0.403974E-08  0.297E-03   14.58      10.1  T
   3    -10.6651681 -0.208184E-09  0.324E-04   14.58      93.1  T
   4    -10.6651681 -0.283128E-09  0.956E-05   14.58     315.3  T
     SCC iter.                  ...        0 min,  0.000 sec
     gradient                   ...        0 min,  0.001 sec
 * total energy  :   -10.5008279 Eh     change       -0.5966462E-06 Eh
   gradient norm :     0.0002919 Eh/α   predicted    -0.3555397E-06 ( -40.41%)
   displ. norm   :     0.0094036 α      lambda       -0.3190853E-06
   maximum displ.:     0.0088316 α      in ANC's #2, #1, #4, ...

........................................................................
.............................. CYCLE   32 ..............................
........................................................................

 iter      E             dE          RMSdq      gap      omega  full diag
   1    -10.6651002 -0.106651E+02  0.313E-03   14.59       0.0  T
   2    -10.6651002 -0.178667E-08  0.187E-03   14.59      16.1  T
   3    -10.6651002 -0.139535E-09  0.164E-04   14.59     183.7  T
   4    -10.6651002 -0.140137E-10  0.549E-05   14.59     549.0  T
     SCC iter.                  ...        0 min,  0.000 sec
     gradient                   ...        0 min,  0.001 sec
 * total energy  :   -10.5008281 Eh     change       -0.2583366E-06 Eh
   gradient norm :     0.0000806 Eh/α   predicted    -0.1589351E-06 ( -38.48%)
   displ. norm   :     0.0024069 α      lambda       -0.3194605E-07
   maximum displ.:     0.0017511 α      in ANC's #1, #2, #4, ...

........................................................................
.............................. CYCLE   33 ..............................
........................................................................

 iter      E             dE          RMSdq      gap      omega  full diag
   1    -10.6650670 -0.106651E+02  0.131E-03   14.58       0.0  T
   2    -10.6650670 -0.205645E-09  0.776E-04   14.58      38.9  T
   3    -10.6650670 -0.770406E-11  0.677E-05   14.58     445.3  T
     SCC iter.                  ...        0 min,  0.000 sec
     gradient                   ...        0 min,  0.001 sec
 * total energy  :   -10.5008282 Eh     change       -0.1238466E-07 Eh
   gradient norm :     0.0000432 Eh/α   predicted    -0.1510049E-07 (  21.93%)
   displ. norm   :     0.0005147 α      lambda       -0.7369942E-08
   maximum displ.:     0.0003443 α      in ANC's #2, #1, #7, ...

   *** GEOMETRY OPTIMIZATION CONVERGED AFTER 33 ITERATIONS ***

------------------------------------------------------------------------
 total energy gain   :        -0.0046764 Eh       -2.9345 kcal/mol
 total RMSD          :         0.8979398 a0        0.4752 Å
 total power (kW/mol):        -0.3720587 (step) -226.1675 (real)
------------------------------------------------------------------------

 ANCopt (total)                0 d,  0 h,  0 min,  0.054 sec
 optimizer setup                ...        0 min,  0.000 sec (  0.072%)
 model hessian                  ...        0 min,  0.002 sec (  2.944%)
 ANC generation                 ...        0 min,  0.000 sec (  0.381%)
 coordinate transformation      ...        0 min,  0.000 sec (  0.130%)
 single point calculation       ...        0 min,  0.049 sec ( 89.429%)
 optimization log               ...        0 min,  0.001 sec (  1.474%)
 hessian update                 ...        0 min,  0.000 sec (  0.155%)
 rational function              ...        0 min,  0.001 sec (  1.744%)

================
 final structure:
================
$coord
       -2.37320730996449        0.48049124337500       -0.27085701207503      C
       -0.00857293133127       -1.07404637836707        0.26112606493024      C
        2.37870667656835        0.52514314573293        0.07564400368908      C
       -4.05865799134952       -0.68757182779208       -0.13059015560520      H
       -2.53824201229320        2.02289941037007        1.07863525824182      H
       -2.29540568143224        1.28353253887552       -2.16197371604339      H
       -0.13865199781455       -1.89301977764091        2.15152682693754      H
        0.10446804234083       -2.63182531722221       -1.08860939753935      H
        2.56073483940956        1.32935246516763       -1.80786691977044      H
        4.04760409151808       -0.61139713496731        0.46011981788494      H
        2.31754437382014        2.06838351991752        1.43280955847653      H
$end

 Bond Distances (Angstroems)
 ---------------------------
C1-C2=1.5237         C1-H4=1.0877         C1-H5=1.0880         C1-H6=1.0880         C2-C1=1.5237         C2-C3=1.5237         
C2-H7=1.0924         C2-H8=1.0924         C3-C2=1.5237         C3-H9=1.0880         C3-H10=1.0877        C3-H11=1.0880        
H4-C1=1.0877         H5-C1=1.0880         H6-C1=1.0880         H7-C2=1.0924         H8-C2=1.0924         H9-C3=1.0880         
H10-C3=1.0877        H11-C3=1.0880        
 C  H  Rav=1.0890 sigma=0.0019  Rmin=1.0877  Rmax=1.0924     8
 C  C  Rav=1.5237 sigma=0.0000  Rmin=1.5237  Rmax=1.5237     2

 selected bond angles (degree)
 --------------------
H4-C1-C2=110.73                H5-C1-C2=110.47                H5-C1-H4=108.40                H6-C1-C2=110.47                
H6-C1-H4=108.41                H6-C1-H5=108.28                C3-C2-C1=111.66                H7-C2-C1=109.37                
H7-C2-C3=109.36                H8-C2-C1=109.36                H8-C2-C3=109.37                H8-C2-H7=107.63                
H9-C3-C2=110.47                H10-C3-C2=110.73               H10-C3-H9=108.41               H11-C3-C2=110.47               
H11-C3-H9=108.28               H11-C3-H10=108.40              

 selected dihedral angles (degree)
 ---------------------------------
C3-C2-C1-H4=180.01            C3-C2-C1-H5=300.12            C3-C2-C1-H6= 59.90            H7-C2-C1-H4=301.20            
H7-C2-C1-H5= 61.30            H7-C2-C1-H6=181.09            H8-C2-C1-H4= 58.83            H8-C2-C1-H5=178.93            
H8-C2-C1-H6=298.72            H9-C3-C2-C1=300.11            H9-C3-C2-H7=178.92            H9-C3-C2-H8= 61.29            
H10-C3-C2-C1=180.00           H10-C3-C2-H7= 58.81           H10-C3-C2-H8=301.18           H11-C3-C2-C1= 59.89           
H11-C3-C2-H7=298.71           H11-C3-C2-H8=181.07           
           -------------------------------------------------
          |                Final Singlepoint                |
           -------------------------------------------------

          ...................................................
          :                      SETUP                      :
          :.................................................:
          :  # basis functions                  20          :
          :  # atomic orbitals                  20          :
          :  # shells                           14          :
          :  # electrons                        20          :
          :  max. iterations                   250          :
          :  Hamiltonian                  GFN2-xTB          :
          :  restarted?                      false          :
          :  GBSA solvation                  false          :
          :  PC potential                    false          :
          :  electronic temp.          300.0000000     K    :
          :  accuracy                    1.0000000          :
          :  -> integral cutoff          0.2500000E+02      :
          :  -> integral neglect         0.1000000E-07      :
          :  -> SCF convergence          0.1000000E-05 Eh   :
          :  -> wf. convergence          0.1000000E-03 e    :
          :  Broyden damping             0.4000000          :
          :  net charge                          0          :
          :  unpaired electrons                  0          :
          ...................................................

 iter      E             dE          RMSdq      gap      omega  full diag
   1    -10.6650670 -0.106651E+02  0.202E-05   14.58       0.0  T
   2    -10.6650670 -0.161648E-12  0.116E-05   14.58    2598.3  T
   3    -10.6650670 -0.106581E-13  0.223E-06   14.58   13542.2  T

   *** convergence criteria satisfied after 3 iterations ***

         #    Occupation            Energy/Eh            Energy/eV
      -------------------------------------------------------------
         1        2.0000           -0.6139778             -16.7072
       ...           ...                  ...                  ...
         4        2.0000           -0.5076397             -13.8136
         5        2.0000           -0.4966400             -13.5143
         6        2.0000           -0.4755065             -12.9392
         7        2.0000           -0.4592350             -12.4964
         8        2.0000           -0.4372490             -11.8982
         9        2.0000           -0.4351288             -11.8405
        10        2.0000           -0.4239159             -11.5353 (HOMO)
        11                          0.1119838               3.0472 (LUMO)
        12                          0.1368908               3.7250
        13                          0.1420924               3.8665
        14                          0.1614673               4.3938
        15                          0.1723055               4.6887
       ...                                ...                  ...
        20                          0.3020343               8.2188
      -------------------------------------------------------------
                  HL-Gap            0.5358997 Eh           14.5826 eV
             Fermi-level           -0.1559660 Eh           -4.2441 eV

 SCC (total)                   0 d,  0 h,  0 min,  0.001 sec
 SCC setup                      ...        0 min,  0.000 sec (  1.942%)
 Dispersion                     ...        0 min,  0.000 sec (  0.994%)
 classical contributions        ...        0 min,  0.000 sec (  0.463%)
 integral evaluation            ...        0 min,  0.000 sec ( 18.591%)
 iterations                     ...        0 min,  0.000 sec ( 26.481%)
 molecular gradient             ...        0 min,  0.001 sec ( 48.422%)
 printout                       ...        0 min,  0.000 sec (  2.631%)

         :::::::::::::::::::::::::::::::::::::::::::::::::::::
         ::                     SUMMARY                     ::
         :::::::::::::::::::::::::::::::::::::::::::::::::::::
         :: total energy             -10.500828154459 Eh    ::
         :: gradient norm              0.000043253826 Eh/a0 ::
         :: HOMO-LUMO gap             14.582573963023 eV    ::
         ::.................................................::
         :: SCC energy               -10.665065592112 Eh    ::
         :: -> isotropic ES            0.002528259530 Eh    ::
         :: -> anisotropic ES          0.003982625632 Eh    ::
         :: -> anisotropic XC          0.007219930044 Eh    ::
         :: -> dispersion             -0.003957761816 Eh    ::
         :: repulsion energy           0.164237437653 Eh    ::
         :: add. restraining           0.000000000000 Eh    ::
         :: total charge               0.000000000000 e     ::
         :::::::::::::::::::::::::::::::::::::::::::::::::::::

           ------------------------------------------------- 
          |                Numerical Hessian                |
           ------------------------------------------------- 
step length          :   0.00500
SCC accuracy         :   0.30000
Hessian scale factor :   1.00000
frozen atoms in %    :   0.00000    0
RMS gradient         :   0.00004
estimated CPU  time      0.00 min
estimated wall time      0.00 min

writing file <hessian>, containing the non-mass-weighted Hessian matrix in atomic units (Eₕ/Bohr²).

 projected vibrational frequencies (cm⁻¹)
eigval :       -0.00    -0.00     0.00     0.00     0.00     0.00
eigval :      206.93   257.57   374.20   793.49   928.44   935.40
eigval :      952.25  1116.45  1167.87  1207.69  1272.51  1345.02
eigval :     1413.10  1420.92  1499.05  1500.06  1504.05  1509.60
eigval :     1510.87  2967.36  2981.74  3026.79  3027.61  3032.03
eigval :     3035.40  3036.99  3037.41
           -------------------------------------------------
          |                Property Printout                |
           -------------------------------------------------

    * Orbital Energies and Occupations

         #    Occupation            Energy/Eh            Energy/eV
      -------------------------------------------------------------
         1        2.0000           -0.6139778             -16.7072
         2        2.0000           -0.5841274             -15.8949
         3        2.0000           -0.5539253             -15.0731
         4        2.0000           -0.5076397             -13.8136
         5        2.0000           -0.4966400             -13.5143
         6        2.0000           -0.4755065             -12.9392
         7        2.0000           -0.4592350             -12.4964
         8        2.0000           -0.4372490             -11.8982
         9        2.0000           -0.4351288             -11.8405
        10        2.0000           -0.4239159             -11.5353 (HOMO)
        11                          0.1119838               3.0472 (LUMO)
        12                          0.1368908               3.7250
        13                          0.1420924               3.8665
        14                          0.1614673               4.3937
        15                          0.1723055               4.6887
        16                          0.2032941               5.5319
        17                          0.2316021               6.3022
        18                          0.2599254               7.0729
        19                          0.2689933               7.3197
        20                          0.3020343               8.2188
      -------------------------------------------------------------
                  HL-Gap            0.5358997 Eh           14.5826 eV
             Fermi-level           -0.1559660 Eh           -4.2441 eV

     #   Z          covCN         q      C6AA      α(0)
     1   6          3.752    -0.102    22.510     6.766
     2   6          3.799    -0.047    21.425     6.590
     3   6          3.752    -0.102    22.510     6.766
     4   1          0.925     0.031     2.575     2.509
     5   1          0.925     0.034     2.536     2.490
     6   1          0.925     0.034     2.536     2.490
     7   1          0.924     0.028     2.619     2.531
     8   1          0.924     0.028     2.619     2.531
     9   1          0.925     0.034     2.536     2.490
    10   1          0.925     0.031     2.575     2.509
    11   1          0.925     0.034     2.536     2.490

 Mol. C6AA /au·bohr⁶  :        723.109457
 Mol. C8AA /au·bohr⁸  :      14472.848204
 Mol. α(0) /au        :         40.162885


Wiberg/Mayer (AO) data.
largest (>0.10) Wiberg bond orders for each atom

 ---------------------------------------------------------------------------
     #   Z sym  total        # sym  WBO       # sym  WBO       # sym  WBO
 ---------------------------------------------------------------------------
     1   6      3.997 --     2      1.020     6      0.988     5      0.988
                             4      0.988
     2   6      3.998 --     3      1.020     1      1.020     8      0.980
                             7      0.980
     3   6      3.997 --     2      1.020     9      0.988    11      0.988
                            10      0.988
     4   1      0.999 --     1      0.988
     5   1      0.999 --     1      0.988
     6   1      0.999 --     1      0.988
     7   1      0.999 --     2      0.980
     8   1      0.999 --     2      0.980
     9   1      0.999 --     3      0.988
    10   1      0.999 --     3      0.988
    11   1      0.999 --     3      0.988
 ---------------------------------------------------------------------------

Topologies differ in total number of bonds
Writing topology from bond orders to xtbtopo.mol

molecular dipole:
                 x           y           z       tot (Debye)
 q only:        0.000       0.008      -0.002
   full:        0.000       0.008      -0.002       0.022
molecular quadrupole (traceless):
                xx          xy          yy          xz          yz          zz
 q only:        0.085       0.003       0.014       0.014      -0.027      -0.099
  q+dip:       -0.668      -0.017       0.056      -0.095       0.134       0.612
   full:       -0.299      -0.008       0.025      -0.042       0.060       0.274

           -------------------------------------------------
          |                Geometry Summary                 |
           -------------------------------------------------

      molecular mass/u    :       44.0957337
Molecule has the following symmetry elements: (C2) 2*(sigma) 
It seems to be the C2v point group
   center of mass at/Å    :       -0.0004503       0.0007881       0.0087028
  moments of inertia/u·Å² :        0.1719719E+02   0.5889592E+02   0.6668906E+02
rotational constants/cm⁻¹ :        0.9802552E+00   0.2862275E+00   0.2527796E+00

 * 10 selected distances

     #   Z          #   Z                                           value/Å
     1   6          2   6                                         1.5237263 (max)
     2   6          3   6                                         1.5237103
     1   6          4   1                                         1.0876865
     1   6          5   1                                         1.0880210
     1   6          6   1                                         1.0880032
     2   6          7   1                                         1.0923702
     2   6          8   1                                         1.0923684
     3   6          9   1                                         1.0880353
     3   6         10   1                                         1.0876832 (min)
     3   6         11   1                                         1.0880005

 * 2 distinct bonds (by element types)

   Z      Z             #   av. dist./Å        max./Å        min./Å
   1 H    6 C           8     1.0890210     1.0923702     1.0876832
   6 C    6 C           2     1.5237183     1.5237263     1.5237103

           -------------------------------------------------
          |               Frequency Printout                |
           -------------------------------------------------
 projected vibrational frequencies (cm⁻¹)
eigval :       -0.00    -0.00     0.00     0.00     0.00     0.00
eigval :      206.93   257.57   374.20   793.49   928.44   935.40
eigval :      952.25  1116.45  1167.87  1207.69  1272.51  1345.02
eigval :     1413.10  1420.92  1499.05  1500.06  1504.05  1509.60
eigval :     1510.87  2967.36  2981.74  3026.79  3027.61  3032.03
eigval :     3035.40  3036.99  3037.41
 reduced masses (amu)
    1:      2.79    2:      2.97    3:      3.47    4:      1.99    5:      2.35    6:      3.18
    7:      1.03    8:      1.14    9:      2.16   10:      1.08   11:      1.09   12:      2.36
   13:      1.20   14:      2.46   15:      1.87   16:      1.65   17:      1.12   18:      1.44
   19:      1.26   20:      1.22   21:      1.08   22:      1.05   23:      1.06   24:      1.05
   25:      1.07   26:      1.09   27:      1.05   28:      1.09   29:      1.09   30:      1.10
   31:      1.09   32:      1.03   33:      1.03
 IR intensities (km·mol⁻¹)
    1:      0.00    2:      0.00    3:      0.00    4:      0.00    5:      0.00    6:      0.00
    7:      0.00    8:      0.00    9:      0.64   10:      9.44   11:      0.00   12:      1.38
   13:      4.11   14:      1.53   15:      4.25   16:      1.64   17:      0.00   18:      3.19
   19:      2.47   20:      0.42   21:      0.31   22:      0.00   23:      1.06   24:      4.11
   25:      1.70   26:     36.18   27:     31.10   28:      0.03   29:     10.92   30:    113.73
   31:     69.05   32:     58.48   33:     26.94
 Raman intensities (Ä⁴*amu⁻¹)
    1:      0.00    2:      0.00    3:      0.00    4:      0.00    5:      0.00    6:      0.00
    7:      0.00    8:      0.00    9:      0.00   10:      0.00   11:      0.00   12:      0.00
   13:      0.00   14:      0.00   15:      0.00   16:      0.00   17:      0.00   18:      0.00
   19:      0.00   20:      0.00   21:      0.00   22:      0.00   23:      0.00   24:      0.00
   25:      0.00   26:      0.00   27:      0.00   28:      0.00   29:      0.00   30:      0.00
   31:      0.00   32:      0.00   33:      0.00
 output can be read by thermo (or use thermo option).
 writing <g98.out> molden fake output.
 recommended (thermochemical) frequency scaling factor: 1.0
           -------------------------------------------------
          |             Thermodynamic Functions             |
           -------------------------------------------------

c2v symmetry found (for desy threshold:  0.10E+00) used in thermo

          ...................................................
          :                      SETUP                      :
          :.................................................:
          :  # frequencies                          27      :
          :  # imaginary freq.                       0      :
          :  linear?                             false      :
          :  only rotor calc.                    false      :
          :  symmetry                              c2v      :
          :  rotational number                       2      :
          :  scaling factor                  1.0000000      :
          :  rotor cutoff                    0.0000000 cm⁻¹ :
          :  imag. cutoff                 -100.0000000 cm⁻¹ :
          :.................................................:

    mode    ω/cm⁻¹     T·S(HO)/kcal·mol⁻¹    T·S(FR)/kcal·mol⁻¹   T·S(vib)
   ------------------------------------------------------------------------
       1    206.93    -0.61734 (100.00%)    -0.63527 (  0.00%)    -0.61734
       2    257.57    -0.50036 (100.00%)    -0.57053 (  0.00%)    -0.50036
   ------------------------------------------------------------------------

   temp. (K)  partition function   enthalpy   heat capacity  entropy
                                   cal/mol     cal/K/mol   cal/K/mol   J/K/mol
 298.15  VIB   2.87                 1066.741      8.667      5.673
         ROT  0.993E+04              888.727      2.981     21.269
         INT  0.285E+05             1955.468     11.648     26.942
         TR   0.896E+25             1481.212      4.968     37.277
         TOT                        3436.6809    16.6158    64.2196   268.6948

       T/K    H(0)-H(T)+PV         H(T)/Eh          T*S/Eh         G(T)/Eh
   ------------------------------------------------------------------------
    298.15    0.547670E-02    0.108133E+00    0.305128E-01    0.776199E-01
   ------------------------------------------------------------------------

         :::::::::::::::::::::::::::::::::::::::::::::::::::::
         ::                  THERMODYNAMIC                  ::
         :::::::::::::::::::::::::::::::::::::::::::::::::::::
         :: total free energy         -10.423208209397 Eh   ::
         ::.................................................::
         :: total energy              -10.500828154459 Eh   ::
         :: zero point energy           0.102656045317 Eh   ::
         :: G(RRHO) w/o ZPVE           -0.025036100255 Eh   ::
         :: G(RRHO) contrib.            0.077619945063 Eh   ::
         :::::::::::::::::::::::::::::::::::::::::::::::::::::

optimized geometry written to: xtbopt.coord


           -------------------------------------------------
          | TOTAL ENERGY              -10.500828154459 Eh   |
          | TOTAL ENTHALPY            -10.392695409596 Eh   |
          | TOTAL FREE ENERGY         -10.423208209397 Eh   |
          | GRADIENT NORM               0.000043252201 Eh/α |
          | HOMO-LUMO GAP              14.582573988198 eV   |
           -------------------------------------------------

------------------------------------------------------------------------
 * finished run on 2025/04/09 at 03:10:55.934     
------------------------------------------------------------------------
 total:
 * wall-time:     0 d,  0 h,  0 min,  0.164 sec
 *  cpu-time:     0 d,  0 h,  0 min,  0.162 sec
 * ratio c/w:     0.988 speedup
 SCF:
 * wall-time:     0 d,  0 h,  0 min,  0.002 sec
 *  cpu-time:     0 d,  0 h,  0 min,  0.002 sec
 * ratio c/w:     0.992 speedup
 ANC optimizer:
 * wall-time:     0 d,  0 h,  0 min,  0.056 sec
 *  cpu-time:     0 d,  0 h,  0 min,  0.055 sec
 * ratio c/w:     0.986 speedup
 analytical hessian:
 * wall-time:     0 d,  0 h,  0 min,  0.102 sec
 *  cpu-time:     0 d,  0 h,  0 min,  0.100 sec
 * ratio c/w:     0.989 speedup

