 Entering Gaussian System
 *********************************************
 Gaussian 98:
 frequency output generated by the xtb code
 *********************************************
                         Standard orientation:
 --------------------------------------------------------------------
  Center     Atomic     Atomic              Coordinates (Angstroms)
  Number     Number      Type              X           Y           Z
 --------------------------------------------------------------------
    1          6             0        0.203750   -0.000323   -0.006493
    2          7             0       -1.337241    0.002609   -0.211455
    3          8             0       -1.847032    1.077006   -0.257920
    4          8             0       -1.851048   -1.069865   -0.258154
    5         17             0        0.861313   -1.460022   -0.721896
    6         17             0        0.866863    1.457685   -0.720174
    7         17             0        0.399916   -0.001756    1.760718
 --------------------------------------------------------------------
     1 basis functions        1 primitive gaussians
     1 alpha electrons        1 beta electrons

 Harmonic frequencies (cm**-1), IR intensities (km*mol⁻¹),
 Raman scattering activities (A**4/amu), Raman depolarization ratios,
 reduced masses (AMU), force constants (mDyne/A) and normal coordinates:
                      1                      2                      3
                        a                      a                      a 
 Frequencies --    31.7116               148.8599               171.1601
 Red. masses --    17.0396                24.6276                25.9417
 Frc consts  --     0.0000                 0.0000                 0.0000
 IR Inten    --     0.0102                 3.0208                 0.9038
 Raman Activ --     0.0000                 0.0000                 0.0000
 Depolar     --     0.0000                 0.0000                 0.0000
 Atom AN      X      Y      Z        X      Y      Z        X      Y      Z
   1   6    -0.00  -0.02  -0.00     0.03   0.00  -0.13    -0.00  -0.05  -0.00
   2   7    -0.00  -0.00   0.00     0.06  -0.00   0.15     0.00   0.14   0.00
   3   8    -0.04   0.01   0.67     0.04   0.00   0.38     0.25   0.27  -0.02
   4   8     0.04   0.01  -0.67     0.04  -0.00   0.39    -0.25   0.27   0.02
   5  17     0.02  -0.09   0.17     0.26   0.10  -0.21     0.46  -0.01   0.26
   6  17    -0.02  -0.09  -0.17     0.26  -0.10  -0.21    -0.46  -0.01  -0.26
   7  17     0.00   0.19   0.00    -0.63   0.00  -0.12    -0.00  -0.39  -0.00
                      4                      5                      6
                        a                      a                      a 
 Frequencies --   234.4183               234.5419               248.4106
 Red. masses --    26.4880                26.9491                22.0562
 Frc consts  --     0.0000                 0.0000                 0.0000
 IR Inten    --     7.4923                 6.6620                 5.5173
 Raman Activ --     0.0000                 0.0000                 0.0000
 Depolar     --     0.0000                 0.0000                 0.0000
 Atom AN      X      Y      Z        X      Y      Z        X      Y      Z
   1   6     0.00   0.24  -0.01    -0.13   0.01   0.19    -0.14   0.00  -0.16
   2   7     0.01   0.08  -0.00    -0.21   0.00   0.03    -0.33   0.00  -0.04
   3   8    -0.29  -0.06  -0.00    -0.22  -0.01  -0.11    -0.37  -0.00   0.08
   4   8     0.30  -0.06   0.01    -0.21   0.00  -0.11    -0.37   0.01   0.08
   5  17    -0.24   0.18   0.40     0.17   0.50  -0.18     0.30  -0.06   0.24
   6  17     0.23   0.21  -0.39     0.19  -0.49  -0.20     0.30   0.06   0.24
   7  17    -0.01  -0.50  -0.01     0.14  -0.02   0.38     0.18   0.00  -0.47
                      7                      8                      9
                        a                      a                      a 
 Frequencies --   406.9468               425.5971               594.0437
 Red. masses --    29.2127                18.4361                14.3727
 Frc consts  --     0.0000                 0.0000                 0.0000
 IR Inten    --     2.1993                 6.9311                 0.2558
 Raman Activ --     0.0000                 0.0000                 0.0000
 Depolar     --     0.0000                 0.0000                 0.0000
 Atom AN      X      Y      Z        X      Y      Z        X      Y      Z
   1   6     0.15  -0.00   0.02    -0.00  -0.16  -0.00    -0.01   0.00  -0.72
   2   7    -0.17   0.00  -0.01    -0.00  -0.38  -0.00     0.05  -0.00  -0.50
   3   8    -0.22  -0.03  -0.02     0.48  -0.18   0.04    -0.00   0.01   0.16
   4   8    -0.22   0.03  -0.02    -0.48  -0.18  -0.04    -0.00  -0.01   0.16
   5  17     0.16  -0.47  -0.24    -0.19   0.30   0.14    -0.05   0.10   0.08
   6  17     0.17   0.47  -0.24     0.19   0.30  -0.14    -0.05  -0.10   0.08
   7  17    -0.01  -0.00   0.49    -0.00  -0.02  -0.00     0.09  -0.00   0.36
                     10                     11                     12
                        a                      a                      a 
 Frequencies --   670.3903               749.6703               754.5571
 Red. masses --    12.8401                13.6192                15.0108
 Frc consts  --     0.0000                 0.0000                 0.0000
 IR Inten    --     4.8366                12.8477               125.2093
 Raman Activ --     0.0000                 0.0000                 0.0000
 Depolar     --     0.0000                 0.0000                 0.0000
 Atom AN      X      Y      Z        X      Y      Z        X      Y      Z
   1   6     0.92  -0.00   0.08    -0.13   0.00   0.55     0.08  -0.00  -0.12
   2   7    -0.13   0.00  -0.13    -0.07   0.00  -0.73    -0.64   0.00   0.12
   3   8    -0.14  -0.06   0.03     0.05   0.12   0.22     0.26   0.46  -0.03
   4   8    -0.14   0.06   0.03     0.05  -0.12   0.22     0.26  -0.46  -0.03
   5  17    -0.10   0.13   0.05     0.01  -0.04  -0.05     0.00  -0.01   0.00
   6  17    -0.10  -0.13   0.05     0.01   0.04  -0.05     0.00   0.01   0.00
   7  17    -0.06   0.00  -0.10     0.02  -0.00  -0.06    -0.01  -0.00   0.03
                     13                     14                     15
                        a                      a                      a 
 Frequencies --   775.5462              1323.9360              1794.2536
 Red. masses --    12.7693                15.3318                14.6337
 Frc consts  --     0.0000                 0.0000                 0.0000
 IR Inten    --     0.9337               148.7399               250.0212
 Raman Activ --     0.0000                 0.0000                 0.0000
 Depolar     --     0.0000                 0.0000                 0.0000
 Atom AN      X      Y      Z        X      Y      Z        X      Y      Z
   1   6    -0.00  -0.92  -0.00    -0.07   0.00  -0.01     0.00   0.00  -0.00
   2   7     0.00   0.16   0.00    -0.54   0.00  -0.06     0.00   0.81   0.00
   3   8    -0.18   0.08  -0.02     0.28  -0.52   0.03     0.18  -0.37   0.02
   4   8     0.18   0.08   0.02     0.28   0.52   0.03    -0.18  -0.37  -0.02
   5  17    -0.03   0.15   0.06     0.00  -0.00  -0.00     0.00  -0.00  -0.00
   6  17     0.03   0.15  -0.06     0.00   0.00  -0.00    -0.00  -0.00   0.00
   7  17     0.00   0.03  -0.00     0.00  -0.00   0.00     0.00   0.00   0.00
