
                                 *****************
                                 * O   R   C   A *
                                 *****************

                                            #,                                       
                                            ###                                      
                                            ####                                     
                                            #####                                    
                                            ######                                   
                                           ########,                                 
                                     ,,################,,,,,                         
                               ,,#################################,,                 
                          ,,##########################################,,             
                       ,#########################################, ''#####,          
                    ,#############################################,,   '####,        
                  ,##################################################,,,,####,       
                ,###########''''           ''''###############################       
              ,#####''   ,,,,##########,,,,          '''####'''          '####       
            ,##' ,,,,###########################,,,                        '##       
           ' ,,###''''                  '''############,,,                           
         ,,##''                                '''############,,,,        ,,,,,,###''
      ,#''                                            '''#######################'''  
     '                                                          ''''####''''         
             ,#######,   #######,   ,#######,      ##                                
            ,#'     '#,  ##    ##  ,#'     '#,    #''#        ,####,   ,####,        
            ##       ##  ##   ,#'  ##            #'  '#       #'       #'  '#        
            ##       ##  #######   ##           ,######,      #####,   #    #        
            '#,     ,#'  ##    ##  '#,     ,#' ,#      #,     #,   #   #,  ,#        
             '#######'   ##     ##  '#######'  #'      '#     '####' # '####'        



                #########################################################
                #                        -***-                          #
                #          Department of theory and spectroscopy        #
                #                                                       #
                #                      Frank Neese                      #
                #                                                       #
                #     Directorship, Architecture, Infrastructure        #
                #                    SHARK, DRIVERS                     #
                #        Core code/Algorithms in most modules           #
                #                                                       #
                #        Max Planck Institute fuer Kohlenforschung      #
                #                Kaiser Wilhelm Platz 1                 #
                #                 D-45470 Muelheim/Ruhr                 #
                #                      Germany                          #
                #                                                       #
                #                  All rights reserved                  #
                #                        -***-                          #
                #########################################################


                         Program Version 6.0.1  -  RELEASE   -


 With contributions from (in alphabetic order):
[Max-Planck-Institut fuer Kohlenforschung]                               
  Daniel Aravena         : Magnetic Suceptibility                        
  Michael Atanasov       : Ab Initio Ligand Field Theory (pilot matlab implementation)
  Alexander A. Auer      : GIAO ZORA, VPT2 properties, NMR spectrum      
  Ute Becker             : All parallelization in ORCA, NUMFREQ, NUMCALC 
  Giovanni Bistoni       : ED, misc. LED, open-shell LED, HFLD           
  Martin Brehm           : Molecular dynamics                            
  Dmytro Bykov           : pre 5.0 version of the SCF Hessian            
  Marcos Casanova-Páez   : Triplet and SCS-CIS(D). UHF-(DLPNO)-IP/EA/STEOM-CCSD. UHF-CVS-IP/STEOM-CCSD   
  Vijay G. Chilkuri      : MRCI spin determinant printing, contributions to CSF-ICE 
  Pauline Colinet        : FMM embedding                                 
  Dipayan Datta          : RHF DLPNO-CCSD density                        
  Achintya Kumar Dutta   : EOM-CC, STEOM-CC                              
  Nicolas Foglia         : Exact transition moments, OPA infrastructure, MCD improvements    
  Dmitry Ganyushin       : Spin-Orbit,Spin-Spin,Magnetic field MRCI      
  Miquel Garcia-Rates    : C-PCM and meta-GGA Hessian, CCSD/C-PCM, Gaussian charge scheme 
  Tiago L. C. Gouveia    : GS-ROHF, GS-ROCIS                             
  Yang Guo               : DLPNO-NEVPT2, F12-NEVPT2, CIM, IAO-localization        
  Andreas Hansen         : Spin unrestricted coupled pair/coupled cluster methods 
  Ingolf Harden          : AUTO-CI MPn and infrastructure                
  Benjamin Helmich-Paris : MC-RPA, TRAH-(SCF,CASSCF), AVAS, COSX integrals, SCF dyn. polar. 
  Lee Huntington         : MR-EOM, pCC                                   
  Robert Izsak           : Overlap fitted RIJCOSX, COSX-SCS-MP3, EOM     
  Riya Kayal             : Wick's Theorem for AUTO-CI, AUTO-CI UHF-CCSDT 
  Emily Kempfer          : AUTO-CI, RHF CISDT and CCSDT                  
  Christian Kollmar      : KDIIS, OOCD, Brueckner-CCSD(T), CCSD density, CASPT2, CASPT2-K, improved NEVPT2 
  Axel Koslowski         : Symmetry handling                             
  Simone Kossmann        : meta-GGA functionals, TD-DFT gradient, OOMP2, (MP2 Hessian; deprecated post 5.0) 
  Lucas Lang             : DCDCAS                                        
  Marvin Lechner         : AUTO-CI (C++ implementation), FIC-MRCC        
  Spencer Leger          : CASSCF response                               
  Dagmar Lenk            : GEPOL surface, SMD, ORCA-2-JSON               
  Dimitrios Liakos       : Extrapolation schemes; Compound Job, initial MDCI parallelization 
  Dimitrios Manganas     : Further ROCIS development; embedding schemes. LFT, Crystal Embedding 
  Dimitrios Pantazis     : SARC Basis sets                               
  Anastasios Papadopoulos: AUTO-CI, single reference methods and gradients 
  Taras Petrenko         : pre 6.0 DFT Hessian and TD-DFT gradient, (ASA, deprecated), ECA, 1-Electron XAS/XES, NRVS 
  Peter Pinski           : DLPNO-MP2, DLPNO-MP2 Gradient                 
  Christoph Reimann      : Effective Core Potentials                     
  Marius Retegan         : Local ZFS, SOC                                
  Christoph Riplinger    : Optimizer, TS searches, QM/MM, DLPNO-CCSD(T), (RO)-DLPNO pert. Triples 
  Michael Roemelt        : Original ROCIS implementation                 
  Masaaki Saitow         : Open-shell DLPNO-CCSD energy and density      
  Barbara Sandhoefer     : DKH picture change effects                    
  Kantharuban Sivalingam : CASSCF convergence/infrastructure, NEVPT2 and variants, FIC-MRCI 
  Bernardo de Souza      : ESD, SOC TD-DFT                               
  Georgi L. Stoychev     : AutoAux, RI-MP2 NMR, DLPNO-MP2 response, X2C  
  Van Anh Tran           : RI-MP2 g-tensors                              
  Willem Van den Heuvel  : Paramagnetic NMR                              
  Zikuan Wang            : NOTCH, Electric field optimization            
  Frank Wennmohs         : Technical directorship and infrastructure     
  Hang Xu                : AUTO-CI-Response properties                   
                                                                         
[FACCTs GmbH]                                                            
  Markus Bursch, Miquel Garcia-Rates, Christoph Riplinger, Bernardo de Souza, Georgi L. Stoychev 
                                                                 
  APM, Basis sets (HGBS, AHGBS, def-TZVP (Ac-Lr), def2-XVPD (La-Lu)), CI-OPT, improved COSX, DLPNO-Multilevel,           
  DOCKER, DRACO, updates on ESD, GOAT, IRC, LR-CPCM, MBIS, meta-GGA TD-DFT gradient, ML-optimized integration grids, 
  MM, NACMEs, nearIR, NEB, NEB-TS, NL-DFT gradient (VV10), 2- and 3-layer-ONIOM, interface openCOSMO-RS, QMMM,   
  Crystal-QMMM, SF, symmetry and pop. for TD-DFT, r2SCAN hybrids, SOLVATOR                                   
                                                                         
[Other institutions]                                                     
  V. Asgeirsson          : NEB                                           
  Christoph Bannwarth    : sTDA-DFT, sTD-DFT, PBEh-3c, B97-3c, D3        
  Sebastian Ehlert       : rSCAN, r2SCAN, r2SCAN-3c, D4, dhf basis sets  
  Marvin Friede          : D4 for Fr, Ra, Ac-Lr                          
  Lars Goerigk           : TD-DFT with DH, B97 family of functionals     
  Stefan Grimme          : VdW corrections, initial TS optimization, DFT functionals, gCP, sTDA/sTD-DF 
  Waldemar Hujo          : DFT-NL                                        
  H. Jonsson             : NEB                                           
  Holger Kruse           : gCP                                           
  Marcel Mueller         : wB97X-3c, vDZP basis set                      
  Hagen Neugebauer       : wr2SCAN                                       
  Tobias Risthaus        : range-separated hybrid DFT                    
  Lukas Wittmann         : regularized MP2, r2SCAN double-hybrids, wr2SCAN        
                                                                         
We gratefully acknowledge several colleagues who have allowed us to      
interface, adapt or use parts of their codes:                            
  Ed Valeev, F. Pavosevic, A. Kumar             : LibInt (2-el integral package), F12 methods 
  Garnet Chan, S. Sharma, J. Yang, R. Olivares  : DMRG                   
  Ulf Ekstrom                                   : XCFun DFT Library      
  Mihaly Kallay                                 : mrcc  (arbitrary order and MRCC methods)
  Frank Weinhold                                : gennbo (NPA and NBO analysis)           
  Simon Mueller                                 : openCOSMO-RS                            
  Christopher J. Cramer and Donald G. Truhlar   : smd solvation model                     
  S Lehtola, MJT Oliveira, MAL Marques          : LibXC Library                           
  Liviu Ungur et al                             : ANISO software                          


 Your calculation uses the libint2 library for the computation of 2-el integrals
 For citations please refer to: http://libint.valeyev.net

 Your ORCA version has been built with support for libXC version: 6.2.2
 For citations please refer to: https://libxc.gitlab.io

 This ORCA versions uses:
   CBLAS   interface :  Fast vector & matrix operations
   LAPACKE interface :  Fast linear algebra routines
   SCALAPACK package :  Parallel linear algebra routines
   Shared memory     :  Shared parallel matrices
   BLAS/LAPACK       :  OpenBLAS 0.3.27  USE64BITINT DYNAMIC_ARCH NO_AFFINITY Zen SINGLE_THREADED
        Core in use  :  Zen
   Copyright (c) 2011-2014, The OpenBLAS Project


Your calculation utilizes the geometrical counterpoise correction gCP
Please cite in your paper:
H.Kruse, S. Grimme J.Chem.Phys., 136, (2012), 154101 
   

Your calculation utilizes the atom-pairwise dispersion correction
based on EEQ partial charges (D4)


================================================================================

----- Orbital basis set information -----
Your calculation utilizes the basis: def2-mTZVPP
   Stefan Grimme, Andreas Hansen, Sebastian Ehlert, and Jan-Michael Mewes 
   J. Chem. Phys. 154, 064103 (2021). DOI: 10.1063/5.0040021

----- AuxJ basis set information -----
Your calculation utilizes the auxiliary basis: def2/J
   F. Weigend, Phys. Chem. Chem. Phys. 8, 1057 (2006).

================================================================================
                                        WARNINGS
                       Please study these warnings very carefully!
================================================================================

WARNING: Old DensityContainer found on disk!
         Will remove this file - 
         If you want to keep old densities, please start your calculation with a different basename. 



WARNING: SCAN, rSCAN, or r2SCAN functional requested.
  ===> : libXC variant has now been activated.



================================================================================
                                       INPUT FILE
================================================================================
NAME = sp.inp
|  1> ! r2scan-3c def2/J RI DEFGRID2 scfconv6 printgap
|  2> %output
|  3>     printlevel normal
|  4> end
|  5> * xyz 0 1
|  6> C -0.9272408982 1.0440753071 5.32296e-05
|  7> C 0.4343039721 1.3062307611 0.000157416
|  8> C 1.3678365775 0.2810223418 0.000198754
|  9> C 0.9140903325 -1.0292096508 0.0002669267
| 10> C -0.4405308495 -1.3250723754 9.77191e-05
| 11> C -1.3483371976 -0.2770090378 -3.35759e-05
| 12> Cl -3.0336788281 -0.6232433352 -4.80459e-05
| 13> Cl 2.0565683851 -2.3155761346 -0.0001146128
| 14> Cl 0.9770669935 2.9388127006 -9.25309e-05
| 15> H -1.6428984746 1.8496875133 8.18479e-05
| 16> H 2.4234402212 0.497776813 4.15848e-05
| 17> H -0.780466512 -2.3476712632 2.88242e-05
| 18> *
| 19> 
| 20>                          ****END OF INPUT****
================================================================================

                       ****************************
                       * Single Point Calculation *
                       ****************************

---------------------------------
CARTESIAN COORDINATES (ANGSTROEM)
---------------------------------
  C     -0.927241    1.044075    0.000053
  C      0.434304    1.306231    0.000157
  C      1.367837    0.281022    0.000199
  C      0.914090   -1.029210    0.000267
  C     -0.440531   -1.325072    0.000098
  C     -1.348337   -0.277009   -0.000034
  Cl    -3.033679   -0.623243   -0.000048
  Cl     2.056568   -2.315576   -0.000115
  Cl     0.977067    2.938813   -0.000093
  H     -1.642898    1.849688    0.000082
  H      2.423440    0.497777    0.000042
  H     -0.780467   -2.347671    0.000029

----------------------------
CARTESIAN COORDINATES (A.U.)
----------------------------
  NO LB      ZA    FRAG     MASS         X           Y           Z
   0 C     6.0000    0    12.011   -1.752231    1.973016    0.000101
   1 C     6.0000    0    12.011    0.820716    2.468418    0.000297
   2 C     6.0000    0    12.011    2.584837    0.531055    0.000376
   3 C     6.0000    0    12.011    1.727380   -1.944924    0.000504
   4 C     6.0000    0    12.011   -0.832483   -2.504024    0.000185
   5 C     6.0000    0    12.011   -2.547988   -0.523471   -0.000063
   6 Cl   17.0000    0    35.453   -5.732822   -1.177759   -0.000091
   7 Cl   17.0000    0    35.453    3.886351   -4.375805   -0.000217
   8 Cl   17.0000    0    35.453    1.846389    5.553551   -0.000175
   9 H     1.0000    0     1.008   -3.104628    3.495403    0.000155
  10 H     1.0000    0     1.008    4.579638    0.940662    0.000079
  11 H     1.0000    0     1.008   -1.474868   -4.436456    0.000054

--------------------------------
INTERNAL COORDINATES (ANGSTROEM)
--------------------------------
 C      0   0   0     0.000000000000     0.00000000     0.00000000
 C      1   0   0     1.386553254209     0.00000000     0.00000000
 C      2   1   0     1.386555238733   121.42180778     0.00000000
 C      3   2   1     1.386576191174   118.57821040     0.00000000
 C      4   3   2     1.386554480416   121.42196432     0.00000000
 C      5   4   3     1.386560183515   118.57780376     0.00000000
 Cl     6   5   4     1.720539043556   119.28905181   180.00749754
 Cl     4   3   2     1.720463593596   119.28885122   179.98344059
 Cl     2   1   3     1.720440510176   119.28824634   179.98741275
 H      1   2   3     1.077579135960   120.71745906   179.99630041
 H      3   2   1     1.077627754876   120.71666119   179.98526343
 H      5   4   3     1.077619944468   120.70849898   179.99231973

---------------------------
INTERNAL COORDINATES (A.U.)
---------------------------
 C      0   0   0     0.000000000000     0.00000000     0.00000000
 C      1   0   0     2.620205920552     0.00000000     0.00000000
 C      2   1   0     2.620209670759   121.42180778     0.00000000
 C      3   2   1     2.620249265135   118.57821040     0.00000000
 C      4   3   2     2.620208237748   121.42196432     0.00000000
 C      5   4   3     2.620219015044   118.57780376     0.00000000
 Cl     6   5   4     3.251347595040   119.28905181   180.00749754
 Cl     4   3   2     3.251205015278   119.28885122   179.98344059
 Cl     2   1   3     3.251161393936   119.28824634   179.98741275
 H      1   2   3     2.036329454592   120.71745906   179.99630041
 H      3   2   1     2.036421331029   120.71666119   179.98526343
 H      5   4   3     2.036406571496   120.70849898   179.99231973

---------------------
BASIS SET INFORMATION
---------------------
There are 3 groups of distinct atoms

 Group   1 Type C   : 11s6p1d contracted to 5s3p1d pattern {62111/411/1}
 Group   2 Type Cl  : 14s9p2d contracted to 5s4p2d pattern {73211/6111/11}
 Group   3 Type H   : 4s1p contracted to 2s1p pattern {31/1}

Atom   0C    basis set group =>   1
Atom   1C    basis set group =>   1
Atom   2C    basis set group =>   1
Atom   3C    basis set group =>   1
Atom   4C    basis set group =>   1
Atom   5C    basis set group =>   1
Atom   6Cl   basis set group =>   2
Atom   7Cl   basis set group =>   2
Atom   8Cl   basis set group =>   2
Atom   9H    basis set group =>   3
Atom  10H    basis set group =>   3
Atom  11H    basis set group =>   3
---------------------------------
AUXILIARY/J BASIS SET INFORMATION
---------------------------------
There are 3 groups of distinct atoms

 Group   1 Type C   : 12s5p4d2f1g contracted to 6s4p3d1f1g pattern {711111/2111/211/2/1}
 Group   2 Type Cl  : 14s5p5d2f1g contracted to 8s4p3d1f1g pattern {71111111/2111/311/2/1}
 Group   3 Type H   : 5s2p1d contracted to 3s1p1d pattern {311/2/1}

Atom   0C    basis set group =>   1
Atom   1C    basis set group =>   1
Atom   2C    basis set group =>   1
Atom   3C    basis set group =>   1
Atom   4C    basis set group =>   1
Atom   5C    basis set group =>   1
Atom   6Cl   basis set group =>   2
Atom   7Cl   basis set group =>   2
Atom   8Cl   basis set group =>   2
Atom   9H    basis set group =>   3
Atom  10H    basis set group =>   3
Atom  11H    basis set group =>   3

Checking for AutoStart:
The File: sp.gbw exists
Trying to determine its content:
     ... Fine, the file contains calculation information
     ... Fine, the calculation information was read
     ... Fine, the file contains a basis set
     ... Fine, the basis set was read
     ... Fine, the file contains a geometry
     ... Fine, the geometry was read
     ... Fine, the file contains a set of orbitals
     ... Fine, the orbitals can be read
     => possible old guess file was deleted
     => GBW file was renamed to GES file
     => GES file is set as startup file
     => Guess is set to MORead
     ... now leaving AutoStart

------------------------------------------------------------------------------
                             ORCA STARTUP CALCULATIONS
                           -- RI-GTO INTEGRALS CHOSEN --
------------------------------------------------------------------------------
------------------------------------------------------------------------------
                   ___                                                        
                  /   \      - P O W E R E D   B Y -                         
                 /     \                                                     
                 |  |  |   _    _      __       _____    __    __             
                 |  |  |  | |  | |    /  \     |  _  \  |  |  /  |          
                  \  \/   | |  | |   /    \    | | | |  |  | /  /          
                 / \  \   | |__| |  /  /\  \   | |_| |  |  |/  /          
                |  |  |   |  __  | /  /__\  \  |    /   |      \           
                |  |  |   | |  | | |   __   |  |    \   |  |\   \          
                \     /   | |  | | |  |  |  |  | |\  \  |  | \   \       
                 \___/    |_|  |_| |__|  |__|  |_| \__\ |__|  \__/        
                                                                              
                      - O R C A' S   B I G   F R I E N D -                    
                                      &                                       
                       - I N T E G R A L  F E E D E R -                       
                                                                              
 v1 FN, 2020, v2 2021, v3 2022-2024                                           
------------------------------------------------------------------------------


----------------------
SHARK INTEGRAL PACKAGE
----------------------

Number of atoms                             ...     12
Number of basis functions                   ...    210
Number of shells                            ...     96
Maximum angular momentum                    ...      2
Integral batch strategy                     ... SHARK/LIBINT Hybrid
RI-J (if used) integral strategy            ... SPLIT-RIJ (Revised 2003 algorithm where possible)
Printlevel                                  ...      1
Contraction scheme used                     ... SEGMENTED contraction
Prescreening option                         ... SCHWARTZ
   Thresh                                   ... 1.000e-10
   Tcut                                     ... 1.000e-11
   Tpresel                                  ... 1.000e-11 
Coulomb Range Separation                    ... NOT USED
Exchange Range Separation                   ... NOT USED
Multipole approximations                    ... NOT USED
Finite Nucleus Model                        ... NOT USED
CABS basis                                  ... NOT available
Auxiliary Coulomb fitting basis             ... AVAILABLE
   # of basis functions in Aux-J            ...    480
   # of shells in Aux-J                     ...    156
   Maximum angular momentum in Aux-J        ...      4
Auxiliary J/K fitting basis                 ... NOT available
Auxiliary Correlation fitting basis         ... NOT available
Auxiliary 'external' fitting basis          ... NOT available

Checking pre-screening integrals            ... done (  0.0 sec) Dimension = 96
Check shell pair data                       ... done (  0.0 sec)
Shell pair information
Shell pair cut-off parameter TPreSel        ...   1.0e-11
Total number of shell pairs                 ...      4656
Shell pairs after pre-screening             ...      4050
Total number of primitive shell pairs       ...     19962
Primitive shell pairs kept                  ...     11566
          la=0 lb=0:   1074 shell pairs
          la=1 lb=0:   1487 shell pairs
          la=1 lb=1:    517 shell pairs
          la=2 lb=0:    528 shell pairs
          la=2 lb=1:    369 shell pairs
          la=2 lb=2:     75 shell pairs

Calculating one electron integrals          ... done (  0.0 sec)
Calculating RI/J V-Matrix + Cholesky decomp.... done (  0.0 sec)
Calculating Nuclear repulsion               ... done (  0.0 sec) ENN=    618.527668455053 Eh

Diagonalization of the overlap matrix:
Smallest eigenvalue                        ... 3.071e-05
Time for diagonalization                   ...    0.003 sec
Threshold for overlap eigenvalues          ... 1.000e-07
Number of eigenvalues below threshold      ... 0
Time for construction of square roots      ...    0.001 sec
Total time needed                          ...    0.005 sec

-------------------
DFT GRID GENERATION
-------------------

General Integration Accuracy     IntAcc      ... 4.388
Radial Grid Type                 RadialGrid  ... OptM3 with GC (2021)
Angular Grid (max. ang.)         AngularGrid ... 4 (Lebedev-302)
Angular grid pruning method      GridPruning ... 4 (adaptive)
Weight generation scheme         WeightScheme... mBecke (2022)
Basis function cutoff            BFCut       ... 1.0000e-10
Integration weight cutoff        WCut        ... 1.0000e-14
Partially contracted basis set               ... off
Rotationally invariant grid construction     ... off
Angular grids for H and He will be reduced by one unit

Total number of grid points                  ...    67673
Total number of batches                      ...     1062
Average number of points per batch           ...       63
Average number of grid points per atom       ...     5639
Initializing property integral containers    ... done (  0.0 sec)

SHARK setup successfully completed in   0.4 seconds

Maximum memory used throughout the entire STARTUP-calculation: 32.6 MB
-------------------------------------------------------------------------------
                                 ORCA GUESS
                   Start orbitals & Density for SCF / CASSCF
-------------------------------------------------------------------------------

------------
SCF SETTINGS
------------
Hamiltonian:
 Density Functional     Method          .... DFT(GTOs)
  Functional kind                       .... Exchange
  Functional name                       .... Re-regularized SCAN exchange by Furness et al
  Functional family                     .... MGGA
  Functional refs                              
    [ 0] J. W. Furness, A. D. Kaplan, J. Ning, J. P. Perdew, and J. Sun.,  J. Phys. Chem. Lett. 11, 8208-8215 (2020), doi: 10.1021/acs.jpclett.0c02405
    [ 1] J. W. Furness, A. D. Kaplan, J. Ning, J. P. Perdew, and J. Sun.,  J. Phys. Chem. Lett. 11, 9248-9248 (2020), doi: 10.1021/acs.jpclett.0c03077
  Functional external parameters        .... 6
    Parameter  0 _c1        =  6.670000e-01 : c1 parameter        
    Parameter  1 _c2        =  8.000000e-01 : c2 parameter        
    Parameter  2 _d         =  1.240000e+00 : d parameter         
    Parameter  3 _k1        =  6.500000e-02 : k1 parameter        
    Parameter  4 _eta       =  1.000000e-03 : eta parameter       
    Parameter  5 _dp2       =  3.610000e-01 : dp2 parameter       
  Functional kind                       .... Correlation
  Functional name                       .... Re-regularized SCAN correlation by Furness et al
  Functional family                     .... MGGA
  Functional refs                              
    [ 0] J. W. Furness, A. D. Kaplan, J. Ning, J. P. Perdew, and J. Sun.,  J. Phys. Chem. Lett. 11, 8208-8215 (2020), doi: 10.1021/acs.jpclett.0c02405
    [ 1] J. W. Furness, A. D. Kaplan, J. Ning, J. P. Perdew, and J. Sun.,  J. Phys. Chem. Lett. 11, 9248-9248 (2020), doi: 10.1021/acs.jpclett.0c03077
  Functional external parameters        .... 1
    Parameter  0 _eta       =  1.000000e-03 : Regularization parameter
 Gradients option       PostSCFGGA      .... off
 RI-approximation to the Coulomb term is turned on
   Number of AuxJ basis functions       .... 480


General Settings:
 Integral files         IntName         .... sp
 Hartree-Fock type      HFTyp           .... RHF
 Total Charge           Charge          ....    0
 Multiplicity           Mult            ....    1
 Number of Electrons    NEL             ....   90
 Basis Dimension        Dim             ....  210
 Nuclear Repulsion      ENuc            ....    618.5276684551 Eh

Convergence Acceleration:
 AO-DIIS                CNVDIIS         .... on
   Start iteration      DIISMaxIt       ....    12
   Startup error        DIISStart       ....  0.200000
   # of expansion vecs  DIISMaxEq       ....     5
   Bias factor          DIISBfac        ....   1.050
   Max. coefficient     DIISMaxC        ....  10.000
 MO-DIIS                CNVKDIIS        .... off
 Trust-Rad. Augm. Hess. CNVTRAH         .... auto
   Auto Start mean grad. ratio tolernc. ....  1.125000
   Auto Start start iteration           ....     1
   Auto Start num. interpolation iter.  ....    10
   Max. Number of Micro iterations      ....    24
   Max. Number of Macro iterations      .... Maxiter - #DIIS iter
   Number of Davidson start vectors     ....     2
   Converg. threshold    (grad. norm)   ....   3.330e-04
   Grad. Scal. Fac. for Micro threshold ....   0.100
   Minimum threshold for Micro iter.    ....   1.000e-02
   NR start threshold (gradient norm)   ....   1.000e-04
   Initial trust radius                 ....   0.400
   Minimum AH scaling param. (alpha)    ....   1.000
   Maximum AH scaling param. (alpha)    .... 1000.000
   Quad. conv. algorithm                .... NR
   White noise on init. David. guess    .... on
   Maximum white noise                  ....   0.010
   Pseudo random numbers                .... off
   Inactive MOs                         .... canonical
   Orbital update algorithm             .... Taylor
   Preconditioner                       .... Diag
   Full preconditioner red. dimension   ....   250
   COSX micro iterations for RIJONX calc.... off
 SOSCF                  CNVSOSCF        .... on
   Start iteration      SOSCFMaxIt      ....   150
   Startup grad/error   SOSCFStart      ....  0.003300
   Hessian update       SOSCFHessUp     .... L-BFGS
 Level Shifting         CNVShift        .... on
   Level shift para.    LevelShift      ....    0.2500
   Turn off err/grad.   ShiftErr        ....    0.0010
 Zerner damping         CNVZerner       .... off
 Static damping         CNVDamp         .... on
   Fraction old density DampFac         ....    0.7000
   Max. Damping (<1)    DampMax         ....    0.9800
   Min. Damping (>=0)   DampMin         ....    0.0000
   Turn off err/grad.   DampErr         ....    0.1000

SCF Procedure:
 Maximum # iterations   MaxIter         ....   125
 SCF integral mode      SCFMode         .... Direct
   Integral package                     .... SHARK and LIBINT hybrid scheme
 Reset frequency        DirectResetFreq ....    20
 Integral Threshold     Thresh          ....  1.000e-10 Eh
 Primitive CutOff       TCut            ....  1.000e-11 Eh

Convergence Tolerance:
 Convergence Check Mode ConvCheckMode   .... Total+1el-Energy
 Convergence forced     ConvForced      .... 0
 Energy Change          TolE            ....  1.000e-06 Eh
 1-El. energy change                    ....  1.000e-03 Eh
 Orbital Gradient       TolG            ....  3.330e-04
 Orbital Rotation angle TolX            ....  3.330e-04
 DIIS Error             TolErr          ....  1.000e-06

---------------------
INITIAL GUESS: MOREAD
---------------------
Guess MOs are being read from file: sp.ges
Input Geometry matches current geometry (good)
Atom 0: N(Shells)= 9 and 6 - projection required
Input basis set needs projection
NBasis(read)= 144
NBasis(calc)= 210
Basis set overlap was calculated
Using GuessMode=FMatrix for the initial guess
C*T matrix was formed
Effective Fockian was calculated
Effective Fockian was diagonalized
Initial density was built
                      ------------------
                      INITIAL GUESS DONE (   0.0 sec)
                      ------------------
             **** ENERGY FILE WAS UPDATED (sp.en.tmp) ****
Finished Guess after   0.0 sec
Maximum memory used throughout the entire GUESS-calculation: 15.1 MB

-------------------------------------------------------------------------------------------
                                      ORCA LEAN-SCF
                              memory conserving SCF solver
-------------------------------------------------------------------------------------------

----------------------------------------D-I-I-S--------------------------------------------
Iteration    Energy (Eh)           Delta-E    RMSDP     MaxDP     DIISErr   Damp  Time(sec)
-------------------------------------------------------------------------------------------
               ***  Starting incremental Fock matrix formation  ***
    1    -1610.7521084298784899     0.00e+00  1.05e-02  4.39e-01  5.37e-01  0.700   1.0
    2    -1610.8024718165972899    -5.04e-02  8.07e-03  3.23e-01  3.76e-01  0.700   0.9
    3    -1610.8380237058797775    -3.56e-02  5.81e-03  2.29e-01  2.63e-01  0.700   0.9
                               ***Turning on AO-DIIS***
    4    -1610.8629707839043022    -2.49e-02  4.16e-03  1.62e-01  1.84e-01  0.700   0.9
    5    -1610.8804612214578356    -1.75e-02  2.94e-03  1.14e-01  1.29e-01  0.700   0.8
    6    -1610.8927240838972921    -1.23e-02  2.07e-03  7.96e-02  9.02e-02  0.700   0.8
    7    -1610.9013179469259285    -8.59e-03  4.83e-03  1.86e-01  6.32e-02  0.000   0.8
                              *** Initializing SOSCF ***
---------------------------------------S-O-S-C-F--------------------------------------
Iteration    Energy (Eh)           Delta-E    RMSDP     MaxDP     MaxGrad    Time(sec)
--------------------------------------------------------------------------------------
    8    -1610.9213981630252874    -2.01e-02  1.49e-05  2.03e-04  2.37e-04     0.9
               *** Restarting incremental Fock matrix formation ***
    9    -1610.9213984355758384    -2.73e-07  1.57e-05  2.88e-04  1.26e-04     1.0
   10    -1610.9213977035281005     7.32e-07  1.10e-05  2.19e-04  2.53e-04     0.7
                 **** Energy Check signals convergence ****

               *****************************************************
               *                     SUCCESS                       *
               *           SCF CONVERGED AFTER  10 CYCLES          *
               *****************************************************

             **** ENERGY FILE WAS UPDATED (sp.en.tmp) ****

----------------
TOTAL SCF ENERGY
----------------

Total Energy       :      -1610.92139770352810 Eh          -43835.39978 eV

Components:
Nuclear Repulsion  :        618.52766845505289 Eh           16830.99353 eV
Electronic Energy  :      -2229.44906615858099 Eh          -60666.39331 eV
One Electron Energy:      -3445.98038463581042 Eh          -93769.89344 eV
Two Electron Energy:       1216.53131847722943 Eh           33103.50013 eV

Virial components:
Potential Energy   :      -3217.83040702286689 Eh          -87561.61692 eV
Kinetic Energy     :       1606.90900931933857 Eh           43726.21714 eV
Virial Ratio       :          2.00249696053785

DFT components:
N(Alpha)           :       44.999993890366 electrons
N(Beta)            :       44.999993890366 electrons
N(Total)           :       89.999987780732 electrons
E(X)               :     -114.997580604067 Eh       
E(C)               :       -3.272780566863 Eh       
E(XC)              :     -118.270361170930 Eh       

---------------
SCF CONVERGENCE
---------------

  Last Energy change         ...   -7.3205e-07  Tolerance :   1.0000e-06
  Last MAX-Density change    ...    2.1869e-04  Tolerance :   1.0000e-05
  Last RMS-Density change    ...    1.0956e-05  Tolerance :   1.0000e-06
  Last DIIS Error            ...    2.3702e-04  Tolerance :   1.0000e-06
  Last Orbital Gradient      ...    2.5282e-04  Tolerance :   3.3300e-04
  Last Orbital Rotation      ...    1.8869e-04  Tolerance :   3.3300e-04


----------------
ORBITAL ENERGIES
----------------

  NO   OCC          E(Eh)            E(eV) 
   0   2.0000    -101.238059     -2754.8277 
   1   2.0000    -101.238057     -2754.8276 
   2   2.0000    -101.238053     -2754.8275 
   3   2.0000     -10.128063      -275.5986 
   4   2.0000     -10.128058      -275.5985 
   5   2.0000     -10.128053      -275.5983 
   6   2.0000     -10.071236      -274.0523 
   7   2.0000     -10.071234      -274.0522 
   8   2.0000     -10.071227      -274.0520 
   9   2.0000      -9.394188      -255.6288 
  10   2.0000      -9.394185      -255.6288 
  11   2.0000      -9.394183      -255.6287 
  12   2.0000      -7.140481      -194.3024 
  13   2.0000      -7.140481      -194.3024 
  14   2.0000      -7.140480      -194.3024 
  15   2.0000      -7.130427      -194.0288 
  16   2.0000      -7.130421      -194.0286 
  17   2.0000      -7.130421      -194.0286 
  18   2.0000      -7.129875      -194.0138 
  19   2.0000      -7.129872      -194.0137 
  20   2.0000      -7.129870      -194.0136 
  21   2.0000      -0.905161       -24.6307 
  22   2.0000      -0.862420       -23.4676 
  23   2.0000      -0.862405       -23.4672 
  24   2.0000      -0.793619       -21.5955 
  25   2.0000      -0.726055       -19.7570 
  26   2.0000      -0.726052       -19.7569 
  27   2.0000      -0.596831       -16.2406 
  28   2.0000      -0.596829       -16.2406 
  29   2.0000      -0.515357       -14.0236 
  30   2.0000      -0.489593       -13.3225 
  31   2.0000      -0.463155       -12.6031 
  32   2.0000      -0.433773       -11.8036 
  33   2.0000      -0.433765       -11.8033 
  34   2.0000      -0.415773       -11.3138 
  35   2.0000      -0.376022       -10.2321 
  36   2.0000      -0.376009       -10.2317 
  37   2.0000      -0.358423        -9.7532 
  38   2.0000      -0.358413        -9.7529 
  39   2.0000      -0.309276        -8.4158 
  40   2.0000      -0.309274        -8.4158 
  41   2.0000      -0.296057        -8.0561 
  42   2.0000      -0.295082        -8.0296 
  43   2.0000      -0.247376        -6.7314 
  44   2.0000      -0.247374        -6.7314 
  45   0.0000      -0.067435        -1.8350 
  46   0.0000      -0.067429        -1.8348 
  47   0.0000      -0.033648        -0.9156 
  48   0.0000       0.022638         0.6160 
  49   0.0000       0.022659         0.6166 
  50   0.0000       0.075835         2.0636 
  51   0.0000       0.085751         2.3334 
  52   0.0000       0.129436         3.5221 
  53   0.0000       0.129450         3.5225 
  54   0.0000       0.132537         3.6065 
  55   0.0000       0.134587         3.6623 
*Only the first 10 virtual orbitals were printed.

                    ********************************
                    * MULLIKEN POPULATION ANALYSIS *
                    ********************************

-----------------------
MULLIKEN ATOMIC CHARGES
-----------------------
   0 C :   -0.314856
   1 C :    0.253250
   2 C :   -0.314941
   3 C :    0.253268
   4 C :   -0.314784
   5 C :    0.253321
   6 Cl:   -0.115353
   7 Cl:   -0.115347
   8 Cl:   -0.115314
   9 H :    0.176902
  10 H :    0.176933
  11 H :    0.176922
Sum of atomic charges:   -0.0000000

--------------------------------
MULLIKEN REDUCED ORBITAL CHARGES
--------------------------------
  0 C s       :     3.245471  s :     3.245471
      pz      :     1.017910  p :     3.034249
      px      :     1.000568
      py      :     1.015771
      dz2     :     0.003514  d :     0.035136
      dxz     :     0.004841
      dyz     :     0.004398
      dx2y2   :     0.011540
      dxy     :     0.010842

  1 C s       :     3.072841  s :     3.072841
      pz      :     1.011160  p :     2.618145
      px      :     0.874941
      py      :     0.732044
      dz2     :     0.004017  d :     0.055764
      dxz     :     0.008349
      dyz     :     0.008306
      dx2y2   :     0.017692
      dxy     :     0.017401

  2 C s       :     3.245413  s :     3.245413
      pz      :     1.017901  p :     3.034392
      px      :     1.067414
      py      :     0.949078
      dz2     :     0.003514  d :     0.035136
      dxz     :     0.002894
      dyz     :     0.006344
      dx2y2   :     0.010944
      dxy     :     0.011439

  3 C s       :     3.072861  s :     3.072861
      pz      :     1.011161  p :     2.618110
      px      :     0.813963
      py      :     0.792986
      dz2     :     0.004017  d :     0.055762
      dxz     :     0.008330
      dyz     :     0.008323
      dx2y2   :     0.017046
      dxy     :     0.018045

  4 C s       :     3.245374  s :     3.245374
      pz      :     1.017905  p :     3.034274
      px      :     0.956595
      py      :     1.059774
      dz2     :     0.003514  d :     0.035136
      dxz     :     0.006123
      dyz     :     0.003116
      dx2y2   :     0.011090
      dxy     :     0.011293

  5 C s       :     3.072840  s :     3.072840
      pz      :     1.011146  p :     2.618082
      px      :     0.721490
      py      :     0.885446
      dz2     :     0.004017  d :     0.055758
      dxz     :     0.008301
      dyz     :     0.008352
      dx2y2   :     0.017898
      dxy     :     0.017191

  6 Cls       :     5.946892  s :     5.946892
      pz      :     3.920975  p :    11.113668
      px      :     3.258953
      py      :     3.933740
      dz2     :     0.005660  d :     0.054793
      dxz     :     0.018463
      dyz     :     0.001425
      dx2y2   :     0.016844
      dxy     :     0.012401

  7 Cls       :     5.946913  s :     5.946913
      pz      :     3.920960  p :    11.113635
      px      :     3.639670
      py      :     3.553006
      dz2     :     0.005661  d :     0.054798
      dxz     :     0.008852
      dyz     :     0.011039
      dx2y2   :     0.011487
      dxy     :     0.017759

  8 Cls       :     5.946883  s :     5.946883
      pz      :     3.920955  p :    11.113636
      px      :     3.890415
      py      :     3.302266
      dz2     :     0.005660  d :     0.054796
      dxz     :     0.002520
      dyz     :     0.017371
      dx2y2   :     0.015536
      dxy     :     0.013709

  9 H s       :     0.803110  s :     0.803110
      pz      :     0.004194  p :     0.019988
      px      :     0.007308
      py      :     0.008487

 10 H s       :     0.803082  s :     0.803082
      pz      :     0.004193  p :     0.019986
      px      :     0.012490
      py      :     0.003303

 11 H s       :     0.803092  s :     0.803092
      pz      :     0.004193  p :     0.019986
      px      :     0.003893
      py      :     0.011900


------------------------
MULLIKEN OVERLAP CHARGES
------------------------
B(  0-C ,  1-C ) :   0.9314 B(  0-C ,  2-C ) :  -0.2472 B(  0-C ,  4-C ) :  -0.2473 
B(  0-C ,  5-C ) :   0.9318 B(  0-C ,  6-Cl) :  -0.0969 B(  0-C ,  8-Cl) :  -0.0969 
B(  0-C ,  9-H ) :   0.7847 B(  1-C ,  2-C ) :   0.9314 B(  1-C ,  3-C ) :  -0.1729 
B(  1-C ,  5-C ) :  -0.1727 B(  1-C ,  8-Cl) :   0.4562 B(  2-C ,  3-C ) :   0.9315 
B(  2-C ,  4-C ) :  -0.2472 B(  2-C ,  7-Cl) :  -0.0968 B(  2-C ,  8-Cl) :  -0.0968 
B(  2-C , 10-H ) :   0.7847 B(  3-C ,  4-C ) :   0.9312 B(  3-C ,  5-C ) :  -0.1726 
B(  3-C ,  7-Cl) :   0.4561 B(  4-C ,  5-C ) :   0.9313 B(  4-C ,  6-Cl) :  -0.0968 
B(  4-C ,  7-Cl) :  -0.0969 B(  4-C , 11-H ) :   0.7847 B(  5-C ,  6-Cl) :   0.4563 



                     *******************************
                     * LOEWDIN POPULATION ANALYSIS *
                     *******************************

----------------------
LOEWDIN ATOMIC CHARGES
----------------------
   0 C :   -0.187763
   1 C :   -0.157383
   2 C :   -0.187770
   3 C :   -0.157381
   4 C :   -0.187769
   5 C :   -0.157341
   6 Cl:    0.155874
   7 Cl:    0.155918
   8 Cl:    0.155934
   9 H :    0.189219
  10 H :    0.189233
  11 H :    0.189229

-------------------------------
LOEWDIN REDUCED ORBITAL CHARGES
-------------------------------
  0 C s       :     2.905704  s :     2.905704
      pz      :     1.019867  p :     3.202897
      px      :     1.089024
      py      :     1.094006
      dz2     :     0.006376  d :     0.079163
      dxz     :     0.008622
      dyz     :     0.007665
      dx2y2   :     0.028327
      dxy     :     0.028173

  1 C s       :     2.893232  s :     2.893232
      pz      :     0.997084  p :     3.145383
      px      :     1.125081
      py      :     1.023218
      dz2     :     0.007838  d :     0.118768
      dxz     :     0.015093
      dyz     :     0.015140
      dx2y2   :     0.040458
      dxy     :     0.040239

  2 C s       :     2.905715  s :     2.905715
      pz      :     1.019867  p :     3.202894
      px      :     1.110903
      py      :     1.072124
      dz2     :     0.006376  d :     0.079162
      dxz     :     0.004421
      dyz     :     0.011866
      dx2y2   :     0.028196
      dxy     :     0.028303

  3 C s       :     2.893243  s :     2.893243
      pz      :     0.997088  p :     3.145377
      px      :     1.081653
      py      :     1.066636
      dz2     :     0.007838  d :     0.118761
      dxz     :     0.015112
      dyz     :     0.015118
      dx2y2   :     0.039972
      dxy     :     0.040721

  4 C s       :     2.905711  s :     2.905711
      pz      :     1.019859  p :     3.202894
      px      :     1.074623
      py      :     1.108412
      dz2     :     0.006376  d :     0.079164
      dxz     :     0.011388
      dyz     :     0.004899
      dx2y2   :     0.028228
      dxy     :     0.028272

  5 C s       :     2.893255  s :     2.893255
      pz      :     0.997088  p :     3.145336
      px      :     1.015661
      py      :     1.132588
      dz2     :     0.007837  d :     0.118749
      dxz     :     0.015139
      dyz     :     0.015089
      dx2y2   :     0.040608
      dxy     :     0.040077

  6 Cls       :     5.640516  s :     5.640516
      pz      :     3.893348  p :    11.089322
      px      :     3.307498
      py      :     3.888476
      dz2     :     0.014837  d :     0.114288
      dxz     :     0.031486
      dyz     :     0.002139
      dx2y2   :     0.039776
      dxy     :     0.026051

  7 Cls       :     5.640477  s :     5.640477
      pz      :     3.893330  p :    11.089295
      px      :     3.635298
      py      :     3.560668
      dz2     :     0.014839  d :     0.114310
      dxz     :     0.014931
      dyz     :     0.018701
      dx2y2   :     0.023239
      dxy     :     0.042600

  8 Cls       :     5.640460  s :     5.640460
      pz      :     3.893324  p :    11.089292
      px      :     3.851156
      py      :     3.344812
      dz2     :     0.014839  d :     0.114314
      dxz     :     0.004025
      dyz     :     0.029608
      dx2y2   :     0.035739
      dxy     :     0.030102

  9 H s       :     0.764232  s :     0.764232
      pz      :     0.009569  p :     0.046548
      px      :     0.017026
      py      :     0.019954

 10 H s       :     0.764224  s :     0.764224
      pz      :     0.009567  p :     0.046543
      px      :     0.029910
      py      :     0.007067

 11 H s       :     0.764227  s :     0.764227
      pz      :     0.009567  p :     0.046544
      px      :     0.008535
      py      :     0.028442


---------------------------------
LOEWDIN BOND ORDERS (THRESH 0.050000)
---------------------------------
B(  0-C ,  1-C ) :   1.4276 B(  0-C ,  2-C ) :   0.0885 B(  0-C ,  3-C ) :   0.1111 
B(  0-C ,  4-C ) :   0.0885 B(  0-C ,  5-C ) :   1.4276 B(  0-C ,  6-Cl) :   0.1595 
B(  0-C ,  8-Cl) :   0.1595 B(  0-C ,  9-H ) :   0.8624 B(  1-C ,  2-C ) :   1.4276 
B(  1-C ,  3-C ) :   0.0970 B(  1-C ,  4-C ) :   0.1111 B(  1-C ,  5-C ) :   0.0970 
B(  1-C ,  8-Cl) :   1.4290 B(  1-C ,  9-H ) :   0.0520 B(  1-C , 10-H ) :   0.0520 
B(  2-C ,  3-C ) :   1.4276 B(  2-C ,  4-C ) :   0.0885 B(  2-C ,  5-C ) :   0.1111 
B(  2-C ,  7-Cl) :   0.1595 B(  2-C ,  8-Cl) :   0.1595 B(  2-C , 10-H ) :   0.8624 
B(  3-C ,  4-C ) :   1.4276 B(  3-C ,  5-C ) :   0.0970 B(  3-C ,  7-Cl) :   1.4290 
B(  3-C , 10-H ) :   0.0520 B(  3-C , 11-H ) :   0.0520 B(  4-C ,  5-C ) :   1.4276 
B(  4-C ,  6-Cl) :   0.1595 B(  4-C ,  7-Cl) :   0.1595 B(  4-C , 11-H ) :   0.8624 
B(  5-C ,  6-Cl) :   1.4289 B(  5-C ,  9-H ) :   0.0520 B(  5-C , 11-H ) :   0.0520 


------------------------------------------
LOEWDIN REDUCED ORBITAL POPULATIONS PER MO
-------------------------------------------
THRESHOLD FOR PRINTING IS 0.1%%
                      0         1         2         3         4         5   
                 -101.23806 -101.23806 -101.23805 -10.12806 -10.12806 -10.12805
                   2.00000   2.00000   2.00000   2.00000   2.00000   2.00000
                  --------  --------  --------  --------  --------  --------
 0 C  px              0.0       0.0       0.0       0.0       0.1       0.0
 0 C  py              0.0       0.0       0.0       0.1       0.0       0.0
 1 C  s               0.0       0.0       0.0       0.8      98.2       0.6
 2 C  py              0.0       0.0       0.0       0.0       0.1       0.1
 3 C  s               0.0       0.0       0.0       0.1       0.6      98.8
 4 C  px              0.0       0.0       0.0       0.1       0.0       0.1
 5 C  s               0.0       0.0       0.0      98.6       0.8       0.2
 6 Cl s               5.8      88.1       6.1       0.0       0.0       0.0
 7 Cl s              93.3       4.3       2.4       0.0       0.0       0.0
 8 Cl s               0.9       7.6      91.5       0.0       0.0       0.0

                      6         7         8         9        10        11   
                 -10.07124 -10.07123 -10.07123  -9.39419  -9.39418  -9.39418
                   2.00000   2.00000   2.00000   2.00000   2.00000   2.00000
                  --------  --------  --------  --------  --------  --------
 0 C  s              73.8       1.4      24.4       0.0       0.0       0.0
 1 C  px              0.1       0.1       0.0       0.0       0.0       0.0
 2 C  s               7.2      51.8      40.6       0.0       0.0       0.0
 3 C  px              0.0       0.1       0.0       0.1       0.0       0.0
 4 C  s              18.5      46.4      34.6       0.0       0.0       0.0
 5 C  py              0.2       0.0       0.0       0.0       0.0       0.0
 6 Cl s               0.0       0.0       0.0       3.3      58.7      37.8
 7 Cl s               0.0       0.0       0.0      93.9       0.1       5.7
 8 Cl s               0.0       0.0       0.0       2.6      40.9      56.3

                     12        13        14        15        16        17   
                  -7.14048  -7.14048  -7.14048  -7.13043  -7.13042  -7.13042
                   2.00000   2.00000   2.00000   2.00000   2.00000   2.00000
                  --------  --------  --------  --------  --------  --------
 6 Cl pz              0.0       0.0       0.0       0.0       0.1      99.9
 6 Cl px              0.0      95.8       0.1       0.0       0.0       0.0
 6 Cl py              0.0       4.0       0.0       0.0       0.0       0.0
 7 Cl pz              0.0       0.0       0.0     100.0       0.0       0.0
 7 Cl px             44.1       0.0       0.0       0.0       0.0       0.0
 7 Cl py             55.9       0.0       0.0       0.0       0.0       0.0
 8 Cl pz              0.0       0.0       0.0       0.0      99.9       0.1
 8 Cl px              0.0       0.0       9.9       0.0       0.0       0.0
 8 Cl py              0.0       0.1      89.9       0.0       0.0       0.0

                     18        19        20        21        22        23   
                  -7.12987  -7.12987  -7.12987  -0.90516  -0.86242  -0.86241
                   2.00000   2.00000   2.00000   2.00000   2.00000   2.00000
                  --------  --------  --------  --------  --------  --------
 0 C  s               0.0       0.0       0.0       9.1       1.8       1.1
 0 C  px              0.0       0.0       0.0       0.9       1.8       2.4
 0 C  py              0.0       0.0       0.0       1.2       1.0       2.3
 0 C  dz2             0.0       0.0       0.0       0.1       0.0       0.0
 1 C  s               0.0       0.0       0.0      12.8      10.9       1.9
 1 C  px              0.0       0.0       0.0       0.0       0.2       1.5
 1 C  py              0.0       0.0       0.0       0.1       6.0       0.4
 1 C  dz2             0.0       0.0       0.0       0.2       0.2       0.0
 2 C  s               0.0       0.0       0.0       9.1       0.0       2.8
 2 C  px              0.0       0.0       0.0       2.0       0.3       0.1
 2 C  py              0.0       0.0       0.0       0.1       7.0       0.2
 2 C  dz2             0.0       0.0       0.0       0.1       0.0       0.0
 3 C  s               0.0       0.0       0.0      12.8       8.0       4.7
 3 C  px              0.0       0.0       0.0       0.0       0.9       2.9
 3 C  py              0.0       0.0       0.0       0.1       4.0       0.4
 3 C  dz2             0.0       0.0       0.0       0.2       0.1       0.1
 4 C  s               0.0       0.0       0.0       9.1       2.4       0.4
 4 C  px              0.0       0.0       0.0       0.2       1.1       5.6
 4 C  py              0.0       0.0       0.0       1.9       0.1       0.7
 4 C  dz2             0.0       0.0       0.0       0.1       0.0       0.0
 5 C  s               0.0       0.0       0.0      12.7       0.2      12.5
 5 C  px              0.0       0.0       0.0       0.1       0.0       6.8
 5 C  py              0.0       0.0       0.0       0.0       1.2       0.2
 5 C  dz2             0.0       0.0       0.0       0.2       0.0       0.2
 5 C  dx2y2           0.0       0.0       0.0       0.0       0.0       0.1
 6 Cl s               0.0       0.0       0.0       6.8       0.6      31.6
 6 Cl px              0.0       4.0       0.0       1.0       0.0       1.7
 6 Cl py              0.0      95.9       0.0       0.0       0.0       0.1
 6 Cl dz2             0.0       0.0       0.0       0.1       0.0       0.1
 6 Cl dx2y2           0.0       0.0       0.0       0.2       0.0       0.3
 7 Cl s               0.0       0.0       0.0       6.8      20.2      12.0
 7 Cl px             55.9       0.0       0.0       0.5       0.5       0.3
 7 Cl py             44.1       0.0       0.0       0.6       0.6       0.4
 7 Cl dxy             0.0       0.0       0.0       0.2       0.2       0.1
 8 Cl s               0.0       0.0       0.0       6.8      27.5       4.7
 8 Cl px              0.0       0.0      90.0       0.1       0.2       0.0
 8 Cl py              0.0       0.0      10.0       1.0       1.4       0.3
 8 Cl dz2             0.0       0.0       0.0       0.1       0.1       0.0
 8 Cl dx2y2           0.0       0.0       0.0       0.1       0.2       0.0
 8 Cl dxy             0.0       0.0       0.0       0.1       0.1       0.0
 9 H  s               0.0       0.0       0.0       0.8       0.2       0.1
10 H  s               0.0       0.0       0.0       0.8       0.0       0.3
11 H  s               0.0       0.0       0.0       0.8       0.3       0.0

                     24        25        26        27        28        29   
                  -0.79362  -0.72605  -0.72605  -0.59683  -0.59683  -0.51536
                   2.00000   2.00000   2.00000   2.00000   2.00000   2.00000
                  --------  --------  --------  --------  --------  --------
 0 C  s               3.2       2.8      17.7       0.3       3.9       1.6
 0 C  px              0.6       0.8       0.2       7.1       3.9       6.0
 0 C  py              0.7       0.6       0.3       8.9       0.5       7.6
 0 C  dz2             0.0       0.0       0.1       0.0       0.0       0.0
 0 C  dx2y2           0.0       0.1       0.0       0.4       0.0       0.0
 1 C  s               0.7       5.5       0.1       5.2       5.3       0.1
 1 C  px              1.1       0.1      13.4       5.5       4.8       0.4
 1 C  py              9.6       5.8       0.7       0.3       0.9       3.9
 1 C  dx2y2           0.1       0.1       0.2       0.1       0.0       0.1
 1 C  dxy             0.1       0.1       0.2       0.0       0.1       0.1
 2 C  s               3.2       7.8      12.6       3.9       0.3       1.6
 2 C  px              1.3       0.2       0.2       3.9       0.2      13.0
 2 C  py              0.1       0.9       0.6       0.5      15.8       0.6
 2 C  dxy             0.0       0.1       0.0       0.0       0.4       0.0
 3 C  s               0.7       0.8       4.9       0.7       9.7       0.1
 3 C  px              4.7      10.3       0.2       6.2       0.2       1.9
 3 C  py              5.9       2.8       6.7       4.4       0.7       2.4
 3 C  dx2y2           0.0       0.3       0.0       0.1       0.0       0.0
 3 C  dxy             0.2       0.0       0.3       0.0       0.1       0.2
 4 C  s               3.2      20.1       0.4       2.1       2.1       1.6
 4 C  px              0.1       0.1       1.4       5.7       9.8       1.4
 4 C  py              1.2       0.3       0.2       4.6       0.3      12.2
 4 C  dz2             0.0       0.1       0.0       0.0       0.0       0.0
 4 C  dxy             0.0       0.0       0.1       0.1       0.1       0.0
 5 C  s               0.7       2.2       3.5       9.8       0.7       0.1
 5 C  px             10.2       4.2       1.9       0.0       0.5       4.1
 5 C  py              0.4       6.8       7.1       0.8      10.1       0.2
 5 C  dx2y2           0.2       0.0       0.3       0.1       0.0       0.1
 5 C  dxy             0.0       0.3       0.0       0.0       0.1       0.0
 6 Cl s              16.9       4.5       7.3       7.0       0.5       2.0
 6 Cl px              0.2       0.5       0.6       5.7       0.7       4.0
 6 Cl py              0.0       0.0       0.2       0.5       0.5       0.2
 6 Cl dz2             0.0       0.0       0.0       0.2       0.0       0.1
 6 Cl dx2y2           0.0       0.1       0.0       0.4       0.1       0.1
 6 Cl dxy             0.0       0.0       0.1       0.2       0.1       0.0
 7 Cl s              16.9       1.6      10.2       0.5       7.0       2.0
 7 Cl px              0.1       0.3       0.3       1.2       2.2       1.9
 7 Cl py              0.1       0.0       0.7       0.0       4.1       2.4
 7 Cl dz2             0.0       0.0       0.0       0.0       0.2       0.1
 7 Cl dx2y2           0.0       0.1       0.0       0.2       0.0       0.0
 7 Cl dxy             0.0       0.0       0.1       0.1       0.5       0.1
 8 Cl s              16.9      11.6       0.2       3.7       3.8       2.0
 8 Cl px              0.0       0.1       0.2       1.4       0.0       0.4
 8 Cl py              0.2       1.0       0.0       2.3       3.7       3.8
 8 Cl dx2y2           0.0       0.1       0.0       0.1       0.4       0.0
 8 Cl dxy             0.0       0.0       0.1       0.4       0.0       0.0
 9 H  s               0.2       0.5       3.4       0.2       3.2       6.9
 9 H  px              0.0       0.0       0.1       0.1       0.1       0.1
 9 H  py              0.0       0.0       0.2       0.0       0.2       0.2
10 H  s               0.2       1.5       2.4       3.2       0.2       6.9
10 H  px              0.0       0.1       0.2       0.2       0.0       0.3
11 H  s               0.2       3.8       0.1       1.7       1.7       6.9
11 H  py              0.0       0.3       0.0       0.1       0.1       0.3

                     30        31        32        33        34        35   
                  -0.48959  -0.46315  -0.43377  -0.43377  -0.41577  -0.37602
                   2.00000   2.00000   2.00000   2.00000   2.00000   2.00000
                  --------  --------  --------  --------  --------  --------
 0 C  s               0.0       2.3       0.2       0.2       0.0       0.3
 0 C  pz              0.0       0.0       0.0       0.0      11.5       0.0
 0 C  px              7.9       1.3       5.8       2.0       0.0       9.3
 0 C  py              6.2       1.6       2.6       6.9       0.0       5.3
 0 C  dx2y2           0.1       0.0       0.2       0.2       0.0       0.0
 0 C  dxy             0.0       0.3       0.0       0.0       0.0       0.8
 1 C  s               0.0       2.1       0.3       0.0       0.0       0.0
 1 C  pz              0.0       0.0       0.0       0.0      15.6       0.0
 1 C  px             13.8       0.4       1.9       0.4       0.0       8.4
 1 C  py              1.5       3.5      12.4       1.4       0.0       2.0
 1 C  dx2y2           0.0       0.2       0.1       0.1       0.0       0.0
 1 C  dxy             0.0       0.1       0.0       0.3       0.0       0.2
 2 C  s               0.0       2.3       0.0       0.3       0.0       0.2
 2 C  pz              0.0       0.0       0.0       0.0      11.5       0.0
 2 C  px              0.6       2.8       1.6      13.9       0.0       9.7
 2 C  py             13.5       0.1       0.6       1.1       0.0       1.9
 2 C  dxz             0.0       0.0       0.0       0.0       0.1       0.0
 2 C  dx2y2           0.0       0.3       0.0       0.1       0.0       0.3
 2 C  dxy             0.1       0.1       0.3       0.0       0.0       0.2
 3 C  s               0.0       2.1       0.1       0.2       0.0       0.0
 3 C  pz              0.0       0.0       0.0       0.0      15.6       0.0
 3 C  px              8.6       1.7       5.1       2.0       0.0       3.2
 3 C  py              6.8       2.2       2.7       6.2       0.0       0.4
 3 C  dx2y2           0.0       0.0       0.2       0.2       0.0       0.0
 3 C  dxy             0.0       0.2       0.0       0.1       0.0       0.7
 4 C  s               0.0       2.3       0.3       0.0       0.0       0.0
 4 C  pz              0.0       0.0       0.0       0.0      11.5       0.0
 4 C  px             12.7       0.3       2.1       0.4       0.0       5.2
 4 C  py              1.4       2.6      13.1       1.5       0.0       3.1
 4 C  dx2y2           0.0       0.2       0.1       0.1       0.0       0.0
 4 C  dxy             0.1       0.1       0.0       0.3       0.0       0.2
 5 C  s               0.0       2.1       0.0       0.3       0.0       0.0
 5 C  pz              0.0       0.0       0.0       0.0      15.6       0.0
 5 C  px              0.6       3.7       1.5      13.1       0.0       2.8
 5 C  py             14.7       0.2       0.5       1.0       0.0       4.0
 5 C  dx2y2           0.0       0.2       0.0       0.1       0.0       0.2
 5 C  dxy             0.0       0.0       0.3       0.0       0.0       0.3
 6 Cl s               0.0       2.2       0.2       2.4       0.0       0.1
 6 Cl pz              0.0       0.0       0.0       0.0       5.8       0.0
 6 Cl px              0.1      13.8       1.9      19.4       0.0       4.5
 6 Cl py              3.0       0.6       0.1       1.1       0.0       2.9
 6 Cl dxz             0.0       0.0       0.0       0.0       0.3       0.0
 6 Cl dx2y2           0.1       0.4       0.0       0.1       0.0       0.0
 6 Cl dxy             0.4       0.1       0.0       0.0       0.0       0.1
 7 Cl s               0.0       2.2       1.2       1.3       0.0       0.2
 7 Cl pz              0.0       0.0       0.0       0.0       5.8       0.0
 7 Cl px              1.7       6.3       6.2       3.8       0.0       3.2
 7 Cl py              1.4       8.0       4.7       7.8       0.0       7.6
 7 Cl dxz             0.0       0.0       0.0       0.0       0.1       0.0
 7 Cl dyz             0.0       0.0       0.0       0.0       0.2       0.0
 7 Cl dx2y2           0.5       0.0       0.0       0.0       0.0       0.0
 7 Cl dxy             0.0       0.4       0.1       0.1       0.0       0.1
 8 Cl s               0.0       2.2       2.4       0.2       0.0       0.0
 8 Cl pz              0.0       0.0       0.0       0.0       5.8       0.0
 8 Cl px              2.8       1.4       2.5       0.1       0.0       3.7
 8 Cl py              0.3      12.9      18.4       1.6       0.0       0.1
 8 Cl dyz             0.0       0.0       0.0       0.0       0.3       0.0
 8 Cl dx2y2           0.2       0.3       0.1       0.0       0.0       0.0
 8 Cl dxy             0.3       0.2       0.1       0.0       0.0       0.2
 9 H  s               0.0       4.3       3.1       3.3       0.0      11.1
 9 H  py              0.1       0.1       0.0       0.0       0.0       0.1
10 H  s               0.0       4.3       0.5       5.9       0.0       6.1
10 H  px              0.0       0.1       0.0       0.1       0.0       0.1
10 H  py              0.1       0.0       0.0       0.0       0.0       0.1
11 H  s               0.0       4.3       6.0       0.4       0.0       0.7
11 H  px              0.1       0.0       0.0       0.0       0.0       0.1
11 H  py              0.0       0.1       0.1       0.0       0.0       0.0

                     36        37        38        39        40        41   
                  -0.37601  -0.35842  -0.35841  -0.30928  -0.30927  -0.29606
                   2.00000   2.00000   2.00000   2.00000   2.00000   2.00000
                  --------  --------  --------  --------  --------  --------
 0 C  s               0.0       0.0       0.0       0.2       1.1       0.0
 0 C  pz              0.0       3.2       2.3       0.0       0.0       0.0
 0 C  px              1.8       0.0       0.0       0.7       0.5       1.4
 0 C  py              6.6       0.0       0.0       0.9       0.2       1.1
 0 C  dxz             0.0       0.1       0.1       0.0       0.0       0.0
 0 C  dyz             0.0       0.0       0.1       0.0       0.0       0.0
 1 C  s               0.0       0.0       0.0       0.3       0.0       0.0
 1 C  pz              0.0      16.7       2.1       0.0       0.0       0.0
 1 C  px              1.7       0.0       0.0       0.1       1.0       1.5
 1 C  py              1.8       0.0       0.0       0.3       0.2       0.2
 1 C  dyz             0.0       0.1       0.0       0.0       0.0       0.0
 1 C  dx2y2           0.6       0.0       0.0       0.1       0.2       0.1
 1 C  dxy             0.2       0.0       0.0       0.0       0.5       0.1
 2 C  s               0.2       0.0       0.0       0.4       0.8       0.0
 2 C  pz              0.0       0.2       5.4       0.0       0.0       0.0
 2 C  px              5.1       0.0       0.0       0.1       0.4       0.1
 2 C  py              6.3       0.0       0.0       1.2       0.5       2.4
 2 C  dyz             0.0       0.3       0.0       0.0       0.0       0.0
 2 C  dx2y2           0.5       0.0       0.0       0.0       0.0       0.0
 3 C  s               0.0       0.0       0.0       0.0       0.2       0.0
 3 C  pz              0.0      11.0       7.9       0.0       0.0       0.0
 3 C  px              4.2       0.0       0.0       0.3       0.5       0.9
 3 C  py              6.0       0.0       0.0       0.7       0.0       0.7
 3 C  dx2y2           0.1       0.0       0.0       0.6       0.1       0.2
 4 C  s               0.3       0.0       0.0       1.3       0.0       0.0
 4 C  pz              0.0       4.9       0.6       0.0       0.0       0.0
 4 C  px              3.4       0.0       0.0       0.1       1.6       2.3
 4 C  py             11.3       0.0       0.0       0.4       0.2       0.3
 4 C  dxz             0.0       0.0       0.2       0.0       0.0       0.0
 4 C  dx2y2           0.7       0.0       0.0       0.0       0.0       0.0
 4 C  dxy             0.2       0.0       0.0       0.0       0.1       0.0
 5 C  s               0.0       0.0       0.0       0.1       0.2       0.0
 5 C  pz              0.0       0.6      18.3       0.0       0.0       0.0
 5 C  px              0.5       0.0       0.0       0.0       0.4       0.1
 5 C  py              6.5       0.0       0.0       0.8       0.3       1.6
 5 C  dxz             0.0       0.0       0.1       0.0       0.0       0.0
 5 C  dx2y2           0.5       0.0       0.0       0.2       0.0       0.0
 5 C  dxy             0.0       0.0       0.0       0.3       0.3       0.2
 6 Cl s               0.1       0.0       0.0       0.0       0.0       0.0
 6 Cl pz              0.0       1.3      39.7       0.0       0.0       0.0
 6 Cl px              6.6       0.0       0.0       0.4       3.0       1.2
 6 Cl py              0.6       0.0       0.0      38.6      18.2      27.6
 6 Cl dxz             0.0       0.0       0.6       0.0       0.0       0.0
 6 Cl dx2y2           0.1       0.0       0.0       0.0       0.0       0.0
 7 Cl pz              0.0      23.9      17.2       0.0       0.0       0.0
 7 Cl px              3.6       0.0       0.0      24.8       8.8      16.1
 7 Cl py              0.2       0.0       0.0      24.8       1.9      12.7
 7 Cl dxz             0.0       0.2       0.1       0.0       0.0       0.0
 7 Cl dyz             0.0       0.2       0.2       0.0       0.0       0.0
 7 Cl dx2y2           0.2       0.0       0.0       0.0       0.0       0.1
 8 Cl s               0.2       0.0       0.0       0.0       0.0       0.0
 8 Cl pz              0.0      36.4       4.7       0.0       0.0       0.0
 8 Cl px              0.4       0.0       0.0       1.2      52.2      25.9
 8 Cl py             10.5       0.0       0.0       0.5       6.3       2.9
 8 Cl dyz             0.0       0.5       0.1       0.0       0.0       0.0
 9 H  s               0.9       0.0       0.0       0.0       0.0       0.0
10 H  s               5.8       0.0       0.0       0.0       0.0       0.0
10 H  px              0.1       0.0       0.0       0.0       0.0       0.0
11 H  s              11.3       0.0       0.0       0.0       0.0       0.0
11 H  py              0.2       0.0       0.0       0.0       0.0       0.0

                     42        43        44        45        46        47   
                  -0.29508  -0.24738  -0.24737  -0.06744  -0.06743  -0.03365
                   2.00000   2.00000   2.00000   0.00000   0.00000   0.00000
                  --------  --------  --------  --------  --------  --------
 0 C  pz              4.8       0.0      29.1      19.7       8.2       0.0
 0 C  px              0.0       0.0       0.0       0.0       0.0       0.4
 0 C  py              0.0       0.0       0.0       0.0       0.0       0.6
 0 C  dxz             0.0       0.2       0.0       0.0       0.9       0.0
 0 C  dyz             0.0       0.1       0.0       0.6       0.2       0.0
 0 C  dxy             0.0       0.0       0.0       0.0       0.0       1.4
 1 C  s               0.0       0.0       0.0       0.0       0.0       4.1
 1 C  pz              1.5      10.0       3.9       0.1      27.7       0.0
 1 C  px              0.0       0.0       0.0       0.0       0.0       0.5
 1 C  py              0.0       0.0       0.0       0.0       0.0       4.8
 1 C  dz2             0.0       0.0       0.0       0.0       0.0       0.3
 1 C  dxz             0.0       0.1       0.6       1.2       0.0       0.0
 1 C  dyz             0.3       0.3       0.0       0.1       0.1       0.0
 1 C  dx2y2           0.0       0.0       0.0       0.0       0.0       0.5
 1 C  dxy             0.0       0.0       0.0       0.0       0.0       0.3
 2 C  pz              4.8      22.6       6.5      22.0       5.8       0.0
 2 C  px              0.0       0.0       0.0       0.0       0.0       1.0
 2 C  dxz             0.0       0.0       0.0       0.1       0.2       0.0
 2 C  dyz             0.0       0.1       0.3       0.4       1.0       0.0
 2 C  dx2y2           0.0       0.0       0.0       0.0       0.0       1.2
 2 C  dxy             0.0       0.0       0.0       0.0       0.0       0.2
 3 C  s               0.0       0.0       0.0       0.0       0.0       4.1
 3 C  pz              1.5       0.0      13.9      19.7       8.1       0.0
 3 C  px              0.0       0.0       0.0       0.0       0.0       2.4
 3 C  py              0.0       0.0       0.0       0.0       0.0       3.0
 3 C  dz2             0.0       0.0       0.0       0.0       0.0       0.3
 3 C  dxz             0.2       0.4       0.1       0.1       0.7       0.0
 3 C  dyz             0.2       0.3       0.1       0.4       0.3       0.0
 3 C  dxy             0.0       0.0       0.0       0.0       0.0       0.8
 4 C  pz              4.8      21.0       8.1       0.1      27.8       0.0
 4 C  px              0.0       0.0       0.0       0.0       0.0       0.1
 4 C  py              0.0       0.0       0.0       0.0       0.0       0.9
 4 C  dxz             0.0       0.1       0.2       1.3       0.0       0.0
 4 C  dyz             0.0       0.1       0.0       0.2       0.2       0.0
 4 C  dx2y2           0.0       0.0       0.0       0.0       0.0       0.9
 4 C  dxy             0.0       0.0       0.0       0.0       0.0       0.5
 5 C  s               0.0       0.0       0.0       0.0       0.0       4.1
 5 C  pz              1.5      10.8       3.1      22.0       5.8       0.0
 5 C  px              0.0       0.0       0.0       0.0       0.0       5.1
 5 C  py              0.0       0.0       0.0       0.0       0.0       0.2
 5 C  dz2             0.0       0.0       0.0       0.0       0.0       0.3
 5 C  dxz             0.3       0.3       0.0       0.0       0.1       0.0
 5 C  dyz             0.0       0.1       0.6       0.3       1.0       0.0
 5 C  dx2y2           0.0       0.0       0.0       0.0       0.0       0.7
 5 C  dxy             0.0       0.0       0.0       0.0       0.0       0.1
 6 Cl s               0.0       0.0       0.0       0.0       0.0       1.6
 6 Cl pz             26.5      16.6       4.8       2.5       0.7       0.0
 6 Cl px              0.0       0.0       0.0       0.0       0.0      10.4
 6 Cl py              0.0       0.0       0.0       0.0       0.0       0.4
 6 Cl dz2             0.0       0.0       0.0       0.0       0.0       1.1
 6 Cl dxz             0.0       0.5       0.1       2.8       0.5       0.0
 6 Cl dyz             0.0       0.0       0.1       0.0       0.5       0.0
 6 Cl dx2y2           0.0       0.0       0.0       0.0       0.0       4.0
 6 Cl dxy             0.0       0.0       0.0       0.0       0.0       0.7
 7 Cl s               0.0       0.0       0.0       0.0       0.0       1.6
 7 Cl pz             26.5       0.0      21.3       2.3       0.9       0.0
 7 Cl px              0.0       0.0       0.0       0.0       0.0       4.8
 7 Cl py              0.0       0.0       0.0       0.0       0.0       6.0
 7 Cl dz2             0.0       0.0       0.0       0.0       0.0       1.1
 7 Cl dxz             0.0       0.0       0.3       1.6       0.1       0.0
 7 Cl dyz             0.0       0.0       0.4       0.9       1.2       0.0
 7 Cl dxy             0.0       0.0       0.0       0.0       0.0       4.7
 8 Cl s               0.0       0.0       0.0       0.0       0.0       1.6
 8 Cl pz             26.5      15.4       5.9       0.0       3.2       0.0
 8 Cl px              0.0       0.0       0.0       0.0       0.0       1.1
 8 Cl py              0.0       0.0       0.0       0.0       0.0       9.7
 8 Cl dz2             0.0       0.0       0.0       0.0       0.0       1.1
 8 Cl dxz             0.0       0.0       0.1       0.4       0.3       0.0
 8 Cl dyz             0.0       0.5       0.1       0.0       3.1       0.0
 8 Cl dx2y2           0.0       0.0       0.0       0.0       0.0       3.0
 8 Cl dxy             0.0       0.0       0.0       0.0       0.0       1.7
 9 H  s               0.0       0.0       0.0       0.0       0.0       1.8
 9 H  pz              0.0       0.0       0.3       0.6       0.2       0.0
 9 H  py              0.0       0.0       0.0       0.0       0.0       0.1
10 H  s               0.0       0.0       0.0       0.0       0.0       1.8
10 H  pz              0.0       0.3       0.1       0.7       0.2       0.0
10 H  px              0.0       0.0       0.0       0.0       0.0       0.2
11 H  s               0.0       0.0       0.0       0.0       0.0       1.8
11 H  pz              0.0       0.2       0.1       0.0       0.8       0.0
11 H  py              0.0       0.0       0.0       0.0       0.0       0.2

                     48        49        50        51        52        53   
                   0.02264   0.02266   0.07583   0.08575   0.12944   0.12945
                   0.00000   0.00000   0.00000   0.00000   0.00000   0.00000
                  --------  --------  --------  --------  --------  --------
 0 C  s               0.1       0.1       0.0      13.3       0.5      12.4
 0 C  pz              0.0       0.0      13.9       0.0       0.0       0.0
 0 C  px              0.2       1.2       0.0       0.8       0.8      10.6
 0 C  py              0.9       0.7       0.0       1.0       3.0      10.6
 0 C  dz2             0.0       0.0       0.0       0.1       0.0       0.0
 0 C  dxz             0.0       0.0       0.3       0.0       0.0       0.0
 0 C  dyz             0.0       0.0       0.4       0.0       0.0       0.0
 0 C  dx2y2           0.2       0.0       0.0       0.0       0.2       0.0
 0 C  dxy             0.3       1.0       0.0       0.0       0.0       0.0
 1 C  s               0.8       3.4       0.0      12.4       6.4       0.7
 1 C  pz              0.0       0.0      13.8       0.0       0.0       0.0
 1 C  px              2.5       0.5       0.0       0.0       0.6       1.8
 1 C  py              1.9      13.4       0.0       0.2       0.7       0.6
 1 C  dz2             0.1       0.3       0.0       0.9       0.8       0.1
 1 C  dyz             0.0       0.0       0.2       0.0       0.0       0.0
 1 C  dx2y2           0.3       0.1       0.0       0.0       0.3       0.0
 1 C  dxy             0.1       0.3       0.0       0.0       0.1       0.0
 2 C  s               0.2       0.0       0.0      13.3       7.2       5.7
 2 C  pz              0.0       0.0      13.9       0.0       0.0       0.0
 2 C  px              2.5       0.1       0.0       1.7      10.7      10.7
 2 C  py              0.1       0.4       0.0       0.1       3.0       0.8
 2 C  dz2             0.0       0.0       0.0       0.1       0.0       0.0
 2 C  dxz             0.0       0.0       0.6       0.0       0.0       0.0
 2 C  dx2y2           1.1       0.1       0.0       0.0       0.1       0.0
 2 C  dxy             0.2       0.2       0.0       0.0       0.0       0.1
 3 C  s               1.3       2.9       0.0      12.4       0.3       6.8
 3 C  pz              0.0       0.0      13.8       0.0       0.0       0.0
 3 C  px              5.1       3.1       0.0       0.1       1.1       0.8
 3 C  py              1.2       8.9       0.0       0.1       1.4       0.4
 3 C  dz2             0.1       0.3       0.0       0.9       0.0       0.8
 3 C  dxz             0.0       0.0       0.1       0.0       0.0       0.0
 3 C  dyz             0.0       0.0       0.2       0.0       0.0       0.0
 3 C  dx2y2           0.3       0.1       0.0       0.0       0.0       0.0
 3 C  dxy             0.1       0.3       0.0       0.1       0.0       0.4
 4 C  s               0.0       0.2       0.0      13.3      11.6       1.3
 4 C  pz              0.0       0.0      13.9       0.0       0.0       0.0
 4 C  px              0.2       0.5       0.0       0.2       3.4       1.5
 4 C  py              0.7       1.7       0.0       1.6      16.8       3.4
 4 C  dz2             0.0       0.0       0.0       0.1       0.0       0.0
 4 C  dyz             0.0       0.0       0.6       0.0       0.0       0.0
 4 C  dx2y2           0.5       0.5       0.0       0.0       0.1       0.0
 4 C  dxy             0.0       0.6       0.0       0.0       0.0       0.2
 5 C  s               4.2       0.0       0.0      12.4       4.0       3.1
 5 C  pz              0.0       0.0      13.8       0.0       0.0       0.0
 5 C  px             16.2       0.0       0.0       0.2       0.4       0.8
 5 C  py              0.6       1.5       0.0       0.0       1.4       1.1
 5 C  dz2             0.4       0.0       0.0       0.9       0.5       0.4
 5 C  dxz             0.0       0.0       0.3       0.0       0.0       0.0
 5 C  dx2y2           0.3       0.1       0.0       0.0       0.2       0.2
 5 C  dxy             0.1       0.3       0.0       0.0       0.0       0.1
 6 Cl s               3.0       0.0       0.0       1.5       1.0       0.8
 6 Cl pz              0.0       0.0       0.7       0.0       0.0       0.0
 6 Cl px             16.6       0.1       0.0       0.5       0.7       1.0
[...]
 7 Cl dx2y2           0.0       0.0       0.3       0.0       0.0       0.1
 8 Cl px              0.4       0.0       0.0       0.1       0.0       0.1
 8 Cl py              0.1       0.1       0.0       0.0       0.4       0.0
 8 Cl dx2y2           0.0       0.0       0.0       0.1       0.0       0.1
 8 Cl dxy             0.0       0.0       0.1       0.1       0.0       0.0
 9 H  s               0.0       0.0       0.0       0.1       0.4       2.8
 9 H  px              0.0       0.0       0.4       0.0       1.0       5.6
 9 H  py              0.1       0.0       0.4       0.0       1.3       4.8
10 H  s               0.0       0.0       0.0       0.0       0.4       8.1
10 H  px              0.1       0.1       0.0       0.1       2.2      28.4
10 H  py              0.0       0.0       0.3       0.5       0.1       1.1
11 H  s               0.0       0.0       0.1       0.0       0.4       1.3
11 H  px              0.0       0.0       0.1       0.6       0.2       1.1
11 H  py              0.0       0.1       0.0       0.1       2.1       4.0

                    198       199       200       201       202       203   
                   3.46405   3.57068   3.79948  21.25240  21.79470  21.79473
                   0.00000   0.00000   0.00000   0.00000   0.00000   0.00000
                  --------  --------  --------  --------  --------  --------
 0 C  s               2.5       0.0       0.5      13.5       2.6      15.7
 0 C  px              1.9       3.3       1.0       0.0       0.1       0.0
 0 C  py              1.7       2.6       1.3       0.0       0.0       0.0
 0 C  dz2             1.6       0.0       0.3       0.0       0.0       0.0
 0 C  dx2y2           0.1      10.9       0.2       0.0       0.0       0.0
 0 C  dxy             8.0       0.2      12.0       0.0       0.0       0.0
 1 C  s               0.5       0.0       0.8      19.7      47.0       0.9
 1 C  px              0.1       5.6       0.0       0.0       0.0       0.1
 1 C  py              0.3       0.6       0.2       0.0       0.0       0.0
 1 C  dz2             0.2       0.0       0.0       0.0       0.0       0.0
 1 C  dx2y2           0.6       3.5       3.1       0.0       0.0       0.0
 1 C  dxy             0.7       6.3       1.7       0.0       0.0       0.0
 2 C  s               0.0       0.0       0.5      13.5       6.9      11.4
 2 C  px              0.1       0.2       2.2       0.0       0.0       0.0
 2 C  py              0.1       5.7       0.1       0.0       0.1       0.0
 2 C  dz2             0.0       0.0       0.3       0.0       0.0       0.0
 2 C  dx2y2           0.2       1.7      10.3       0.0       0.0       0.0
 2 C  dxy             0.0       9.3       1.9       0.0       0.0       0.0
 3 C  s               0.4       0.0       0.8      19.7       6.8      41.2
 3 C  px              0.2       3.5       0.1       0.0       0.0       0.0
 3 C  py              0.1       2.8       0.1       0.0       0.0       0.0
 3 C  dz2             0.2       0.0       0.0       0.0       0.0       0.0
 3 C  dx2y2           0.0       9.7       0.1       0.0       0.0       0.0
 3 C  dxy             1.1       0.1       4.7       0.0       0.0       0.0
 4 C  s               3.2       0.0       0.5      13.5      18.0       0.3
 4 C  px              0.6       5.4       0.2       0.0       0.0       0.1
 4 C  py              3.9       0.6       2.1       0.0       0.0       0.0
 4 C  dz2             2.0       0.0       0.3       0.0       0.0       0.0
 4 C  dx2y2           6.4       4.0       7.8       0.0       0.0       0.0
 4 C  dxy             3.9       7.1       4.4       0.0       0.0       0.0
 5 C  s               0.0       0.0       0.8      19.7      18.1      29.8
 5 C  px              0.0       0.3       0.2       0.0       0.0       0.0
 5 C  py              0.2       6.0       0.0       0.0       0.0       0.0
 5 C  dx2y2           0.1       1.5       4.0       0.0       0.0       0.0
 5 C  dxy             0.2       8.3       0.7       0.0       0.0       0.0
 6 Cl px              0.0       0.0       0.3       0.0       0.0       0.0
 6 Cl dx2y2           0.0       0.0       0.2       0.0       0.0       0.0
 6 Cl dxy             0.1       0.1       0.0       0.0       0.0       0.0
 7 Cl px              0.1       0.0       0.1       0.0       0.0       0.0
 7 Cl py              0.3       0.0       0.2       0.0       0.0       0.0
 7 Cl dx2y2           0.0       0.1       0.0       0.0       0.0       0.0
 7 Cl dxy             0.1       0.0       0.2       0.0       0.0       0.0
 8 Cl s               0.1       0.0       0.1       0.0       0.1       0.0
 8 Cl py              0.5       0.0       0.2       0.0       0.0       0.0
 8 Cl dx2y2           0.1       0.0       0.1       0.0       0.0       0.0
 9 H  s               5.3       0.0       3.4       0.0       0.0       0.0
 9 H  px              7.6       0.0       3.6       0.0       0.0       0.0
 9 H  py             12.0       0.0       4.6       0.0       0.0       0.0
10 H  s               0.1       0.0       3.4       0.0       0.0       0.0
10 H  px              0.2       0.0       7.9       0.0       0.0       0.0
10 H  py              0.3       0.0       0.3       0.0       0.0       0.0
11 H  s               6.8       0.0       3.4       0.0       0.0       0.0
11 H  px              2.0       0.0       0.8       0.0       0.0       0.0
11 H  py             22.9       0.0       7.4       0.0       0.0       0.0

                    204       205       206       207       208       209   
                  22.09993  22.09996  22.25007  25.20757  25.36241  25.36241
                   0.00000   0.00000   0.00000   0.00000   0.00000   0.00000
                  --------  --------  --------  --------  --------  --------
 0 C  s              21.2      26.9      19.6       0.1       0.0       0.0
 1 C  s               1.8      16.5      13.6       0.0       0.0       0.1
 1 C  py              0.0       0.0       0.0       0.1       0.0       0.3
 2 C  s              46.1       1.9      19.6       0.1       0.0       0.0
 3 C  s               8.1      10.3      13.6       0.0       0.0       0.0
 3 C  px              0.0       0.0       0.0       0.1       0.1       0.0
 3 C  py              0.0       0.0       0.0       0.1       0.1       0.1
 4 C  s               4.8      43.2      19.6       0.1       0.0       0.0
 5 C  s              17.6       0.7      13.6       0.0       0.1       0.0
 5 C  px              0.0       0.0       0.0       0.1       0.3       0.1
 6 Cl s               0.0       0.0       0.0      33.1      55.8      10.4
 7 Cl s               0.0       0.0       0.0      33.1      42.5      23.6
 8 Cl s               0.0       0.0       0.0      33.0       0.9      65.2



                      *****************************
                      * MAYER POPULATION ANALYSIS *
                      *****************************

  NA   - Mulliken gross atomic population
  ZA   - Total nuclear charge
  QA   - Mulliken gross atomic charge
  VA   - Mayer's total valence
  BVA  - Mayer's bonded valence
  FA   - Mayer's free valence

  ATOM       NA         ZA         QA         VA         BVA        FA
  0 C      6.3149     6.0000    -0.3149     3.9239     3.9239    -0.0000
  1 C      5.7468     6.0000     0.2532     3.7128     3.7128     0.0000
  2 C      6.3149     6.0000    -0.3149     3.9241     3.9241    -0.0000
  3 C      5.7467     6.0000     0.2533     3.7126     3.7126    -0.0000
  4 C      6.3148     6.0000    -0.3148     3.9238     3.9238    -0.0000
  5 C      5.7467     6.0000     0.2533     3.7128     3.7128    -0.0000
  6 Cl    17.1154    17.0000    -0.1154     1.1426     1.1426     0.0000
  7 Cl    17.1153    17.0000    -0.1153     1.1426     1.1426     0.0000
  8 Cl    17.1153    17.0000    -0.1153     1.1426     1.1426    -0.0000
  9 H      0.8231     1.0000     0.1769     0.9617     0.9617    -0.0000
 10 H      0.8231     1.0000     0.1769     0.9617     0.9617    -0.0000
 11 H      0.8231     1.0000     0.1769     0.9617     0.9617    -0.0000

  Mayer bond orders larger than 0.100000
B(  0-C ,  1-C ) :   1.3841 B(  0-C ,  5-C ) :   1.3841 B(  0-C ,  9-H ) :   0.9287 
B(  1-C ,  2-C ) :   1.3841 B(  1-C ,  8-Cl) :   0.9254 B(  2-C ,  3-C ) :   1.3841 
B(  2-C , 10-H ) :   0.9287 B(  3-C ,  4-C ) :   1.3840 B(  3-C ,  7-Cl) :   0.9253 
B(  4-C ,  5-C ) :   1.3841 B(  4-C , 11-H ) :   0.9287 B(  5-C ,  6-Cl) :   0.9254 


-------
TIMINGS
-------

Total SCF time: 0 days 0 hours 0 min 8 sec 

Total time                  ....       8.811 sec
Sum of individual times     ....       8.795 sec  ( 99.8%)

SCF preparation             ....       0.030 sec  (  0.3%)
Fock matrix formation       ....       8.603 sec  ( 97.6%)
  Startup                   ....       0.002 sec  (  0.0% of F)
  Split-RI-J                ....       1.951 sec  ( 22.7% of F)
  XC integration            ....       6.631 sec  ( 77.1% of F)
    Basis function eval.    ....       1.163 sec  ( 17.5% of XC)
    Density eval.           ....       2.178 sec  ( 32.9% of XC)
    XC-Functional eval.     ....       0.758 sec  ( 11.4% of XC)
    XC-Potential eval.      ....       2.420 sec  ( 36.5% of XC)
Diagonalization             ....       0.000 sec  (  0.0%)
Density matrix formation    ....       0.015 sec  (  0.2%)
Total Energy calculation    ....       0.001 sec  (  0.0%)
Population analysis         ....       0.061 sec  (  0.7%)
Orbital Transformation      ....       0.014 sec  (  0.2%)
Orbital Orthonormalization  ....       0.000 sec  (  0.0%)
DIIS solution               ....       0.060 sec  (  0.7%)
  MO trafo                  ....       0.000 sec  (  0.0 % of DIIS)
  Orb grad                  ....       0.000 sec  (  0.0 % of DIIS)
  Energy W gradient         ....       0.000 sec  (  0.0 % of DIIS)
  DIIS error                ....       0.010 sec  ( 16.0 % of DIIS)
  DIIS work                 ....       0.040 sec  ( 67.1 % of DIIS)
  Form Q                    ....       0.000 sec  (  0.0 % of DIIS)
  Form QpQm                 ....       0.000 sec  (  0.0 % of DIIS)
  Exp/Cayley                ....       0.000 sec  (  0.0 % of DIIS)
  Orb update                ....       0.000 sec  (  0.0 % of DIIS)
  Wake-sleep                ....       0.001 sec  (  1.0 % of DIIS)
SOSCF solution              ....       0.011 sec  (  0.1%)
  MO trafo                  ....       0.007 sec  ( 62.6 % of SOSCF)
  Orb grad                  ....       0.000 sec  (  0.8 % of SOSCF)
  Rot update                ....       0.000 sec  (  2.0 % of SOSCF)
  Step                      ....       0.004 sec  ( 34.3 % of SOSCF)
Finished LeanSCF after   8.8 sec

Maximum memory used throughout the entire LEANSCF-calculation: 22.0 MB


-------------------------------------------------------------------------------
                          DFT DISPERSION CORRECTION                            
                                                                               
                                DFTD4 V3.4.0                                   
-------------------------------------------------------------------------------
The R2SCAN3C composite method is recognized
Using three-body term ABC
Active option DFTDOPT                   ...         5   

-------------------------   ----------------
Dispersion correction           -0.005452466
-------------------------   ----------------

------------------   -----------------
gCP correction             0.006403098
------------------   -----------------

-------------------------   --------------------
FINAL SINGLE POINT ENERGY     -1610.920447071231
-------------------------   --------------------


------------------------------------------------------------------------------
                              ORCA PROPERTY CALCULATIONS
------------------------------------------------------------------------------

GBWName                                 ... sp.gbw
Number of atoms                         ...     12
Number of basis functions               ...    210
Max core memory                         ...   1024 MB

Electric properties:
Dipole moment                           ... YES
Quadrupole moment                       ...  NO
Static polarizability (Dipole/Dipole)   ...  NO
Static polarizability (Dipole/Quad.)    ...  NO
Static polarizability (Quad./Quad.)     ...  NO
Static polarizability (Velocity)        ...  NO

Atomic electric properties:
Dipole moment                           ...  NO
Quadrupole moment                       ...  NO
Static polarizability                   ...  NO

Choice of electric origin               ... Center of mass
Position of electric origin             ...     0.000000    -0.000000     0.000000

General magnetic properties:
Magnetizability                         ...  NO

EPR properties:
g-Tensor (aka g-matrix)                 ...  NO
Zero-Field splitting spin-orbit         ...  NO
Zero-field splitting spin-spin          ...  NO
Hyperfine couplings                     ...  NO (   0 nuclei)
Quadrupole couplings                    ...  NO (   0 nuclei)
Contact density                         ...  NO (   0 nuclei)

NMR properties:
Chemical shifts                         ...  NO (   0 nuclei)
Spin-rotation constants                 ...  NO (   0 nuclei)
Spin-spin couplings                     ...  NO (   0 nuclei,    0 pairs)

Choice of magnetic origin               ... GIAO
Position of magnetic origin             ...     0.000000     0.000000     0.000000

Properties with geometric perturbations:
SCF Hessian                             ...  NO
IR spectrum                             ...  NO
VCD spectrum                            ...  NO
X-ray spectroscopy properties:
SCF XES/XAS/RIXS spectra                ...  NO


-------------
DIPOLE MOMENT
-------------

Method             : SCF
Type of density    : Electron Density
Multiplicity       :   1
Irrep              :   0
Energy             : -1610.9213977035281005 Eh
Relativity type    : 
Basis              : AO
                                X                 Y                 Z
Electronic contribution:     -0.000037012       0.000152651      -0.000503769
Nuclear contribution   :      0.000128902      -0.000185058       0.000485361
                        -----------------------------------------
Total Dipole Moment    :      0.000091889      -0.000032406      -0.000018407
                        -----------------------------------------
Magnitude (a.u.)       :      0.000099160
Magnitude (Debye)      :      0.000252044



--------------------
Rotational spectrum 
--------------------
 
Rotational constants in cm-1:             0.028641             0.028640             0.014320 
Rotational constants in MHz :           858.636864           858.617507           429.313595 

Dipole components along the rotational axes: 
x,y,z [a.u.] :     0.000092    -0.000032    -0.000018 
x,y,z [Debye]:     0.000234    -0.000082    -0.000047 

 

Dipole moment calculation done in   0.0 sec 

Maximum memory used throughout the entire PROP-calculation: 13.7 MB

--------------------------------
SUGGESTED CITATIONS FOR THIS RUN
--------------------------------

Below you find a list of papers that are relevant to this ORCA run
We neither can nor want to force you to cite these papers, but we appreciate if you do
You receive ORCA, which is the product of decades of hard work by many enthusiastic individuals, for free
The only thing we kindly ask in return is that you cite our papers,
We deeply appreciate it, if you show your appreciation for ORCA by not just citing the generic ORCA reference.

Please note that relegating all ORCA citations to the supporting information does *not* help us.
SI sections are not indexed - citations you put there will not count into any citation statistics
But we need these citations in order to attract the funding resources that allow us to do what we are doing

Therefore, if you are a happy ORCA user, please consider citing a few of the papers listed below in the main body of your paper

In addition to the list printed below, the program has created the file sp.bibtex that contains the list in bibtex format
You can import this file easily into all common literature databanks and citation aid programs


List of essential papers. We consider these as the minimum necessary citations

  1. Neese,F.
     Software update: the ORCA program system, version 5.0
     WIRES Comput. Molec. Sci., 2022 12(1)e1606
     doi.org/10.1002/wcms.1606
  2. Grimme,S.; Hansen,A.; Ehlert,S.; Mewes,J.
     r2SCAN-3c: A 'Swiss army knife' composite electronic-structure method
     J. Chem. Phys., 2021 154 064103
     doi.org/10.1063/5.0040021

List of papers to cite with high priority. The work reported in these papers was absolutely
necessary for this run to complete.
Our perspective: the developers of density functionals and basis sets usually get cited in chemistry papers
Good! But without the algorithms to do something with them, the functionals or basis sets would not do anything.
Hence, in our opinion, the algorithm design and method developments papers are equally worthy of getting cited

  1. Neese,F.
     An improvement of the resolution of the identity approximation for the formation of the Coulomb matrix
     J. Comp. Chem., 2003 24(14)1740-1747
     doi.org/10.1002/jcc.10318
  2. Neese,F.
     The SHARK Integral Generation and Digestion System
     J. Comp. Chem., 2022  1-16
     doi.org/10.1002/jcc.26942
  3. Lehtola,S.; Steigemann,C.; Oliveira,M.; Marques,M.
     Recent developments in Libxc - A comprehensive library of functionals for density functional theory
     Software X, 2018 7 
     doi.org/10.1016/j.softx.2017.11.002
  4. Caldeweyher,E.; Bannwarth,C.; Grimme,S.
     Extension of the D3 dispersion coefficient model
     J. Chem. Phys., 2017 147 034112
     doi.org/10.1063/1.4993215
  5. Caldeweyher,E.; Ehlert,S.; Hansen,A.; Neugebauer,H.; Spicher,S.; Bannwarth,C.; Grimme,S.
     A generally applicable atomic-charge dependent London dispersion correction
     J. Chem. Phys., 2019 150 154122
     doi.org/10.1063/1.5090222
  6. Caldeweyher,E.; Mewes,J.; Ehlert,S.; Grimme,S.
     Extension and evaluation of the D4 London-dispersion model for periodic systems
     Phys. Chem. Chem. Phys., 2020 22(16)8499-8512
     doi.org/10.1039/D0CP00502A
  7. Wittmann,L.; Gordiy,I.; Friede,M.; Helmich-Paris,B.; Grimme,S.; Hansen,A.; Bursch,M.
     Extension of the D3 and D4 London Dispersion Corrections to the full Actinides Series
     Phys. Chem. Chem. Phys., 2024 26(32)21379-21394
     doi.org/https://doi.org/10.1039/D4CP01514B 

List of suggested additional citations. These are papers that are important in the 'surrounding' of 
of this run, or papers that preceded the highly important papers. If you like your results we are grateful for a citation.

  1. Neese,F.
     The ORCA program system
     WIRES Comput. Molec. Sci., 2012 2(1)73-78
     doi.org/10.1002/wcms.81
  2. Neese,F.
     Software update: the ORCA program system, version 4.0
     WIRES Comput. Molec. Sci., 2018 8(1)1-6
     doi.org/10.1002/wcms.1327
  3. Neese,F.; Wennmohs,F.; Becker,U.; Riplinger,C.
     The ORCA quantum chemistry program package
     J. Chem. Phys., 2020 152 Art. No. L224108
     doi.org/10.1063/5.0004608

List of optional additional citations

  1. Neese,F.
     Approximate second-order SCF convergence for spin unrestricted wavefunctions
     Chem. Phys. Lett., 2000 325(1-3)93-98
     doi.org/10.1016/s0009-2614(00)00662-x

Timings for individual modules:

Sum of individual times          ...        9.351 sec (=   0.156 min)
Startup calculation              ...        0.434 sec (=   0.007 min)   4.6 %
SCF iterations                   ...        8.881 sec (=   0.148 min)  95.0 %
Property calculations            ...        0.036 sec (=   0.001 min)   0.4 %
                             ****ORCA TERMINATED NORMALLY****
TOTAL RUN TIME: 0 days 0 hours 0 minutes 9 seconds 415 msec
