      -----------------------------------------------------------      
     |                   =====================                   |     
     |                           x T B                           |     
     |                   =====================                   |     
     |                         S. Grimme                         |     
     |          Mulliken Center for Theoretical Chemistry        |     
     |                    University of Bonn                     |     
      -----------------------------------------------------------      

   * xtb version 6.7.1 (41059b4) compiled by 'michael@archlinux' on 2025-03-24

   xtb is free software: you can redistribute it and/or modify it under
   the terms of the GNU Lesser General Public License as published by
   the Free Software Foundation, either version 3 of the License, or
   (at your option) any later version.
   
   xtb is distributed in the hope that it will be useful,
   but WITHOUT ANY WARRANTY; without even the implied warranty of
   MERCHANTABILITY or FITNESS FOR A PARTICULAR PURPOSE.  See the
   GNU Lesser General Public License for more details.
   
   Cite this work as:
   * C. Bannwarth, E. Caldeweyher, S. Ehlert, A. Hansen, P. Pracht,
     J. Seibert, S. Spicher, S. Grimme, WIREs Comput. Mol. Sci., 2020, 11,
     e01493. DOI: 10.1002/wcms.1493
   
   for GFN2-xTB:
   * C. Bannwarth, S. Ehlert and S. Grimme., J. Chem. Theory Comput., 2019,
     15, 1652-1671. DOI: 10.1021/acs.jctc.8b01176
   for GFN1-xTB:
   * S. Grimme, C. Bannwarth, P. Shushkov, J. Chem. Theory Comput., 2017,
     13, 1989-2009. DOI: 10.1021/acs.jctc.7b00118
   for GFN0-xTB:
   * P. Pracht, E. Caldeweyher, S. Ehlert, S. Grimme, ChemRxiv, 2019, preprint.
     DOI: 10.26434/chemrxiv.8326202.v1
   for GFN-FF:
   * S. Spicher and S. Grimme, Angew. Chem. Int. Ed., 2020, 59, 15665-15673.
     DOI: 10.1002/anie.202004239
   
   for ALPB and GBSA implicit solvation:
   * S. Ehlert, M. Stahn, S. Spicher, S. Grimme, J. Chem. Theory Comput.,
     2021, 17, 4250-4261. DOI: 10.1021/acs.jctc.1c00471
   
   for ddCOSMO and CPCM-X implicit solvation:
   * M. Stahn, S. Ehlert, S. Grimme, J. Phys. Chem. A,
     2023, XX, XXXX-XXXX. DOI: 10.1021/acs.jpca.3c04382
   
   for DFT-D4:
   * E. Caldeweyher, C. Bannwarth and S. Grimme, J. Chem. Phys., 2017,
     147, 034112. DOI: 10.1063/1.4993215
   * E. Caldeweyher, S. Ehlert, A. Hansen, H. Neugebauer, S. Spicher,
     C. Bannwarth and S. Grimme, J. Chem. Phys., 2019, 150, 154122.
     DOI: 10.1063/1.5090222
   * E. Caldeweyher, J.-M. Mewes, S. Ehlert and S. Grimme, Phys. Chem. Chem. Phys.
     2020, 22, 8499-8512. DOI: 10.1039/D0CP00502A
   
   for sTDA-xTB:
   * S. Grimme and C. Bannwarth, J. Chem. Phys., 2016, 145, 054103.
     DOI: 10.1063/1.4959605
   
   in the mass-spec context:
   * V. Asgeirsson, C. Bauer and S. Grimme, Chem. Sci., 2017, 8, 4879.
     DOI: 10.1039/c7sc00601b
   * J. Koopman and S. Grimme, ACS Omega 2019, 4, 12, 15120-15133.
     DOI: 10.1021/acsomega.9b02011
   
   for metadynamics refer to:
   * S. Grimme, J. Chem. Theory Comput., 2019, 155, 2847-2862
     DOI: 10.1021/acs.jctc.9b00143
   
   for SPH calculations refer to:
   * S. Spicher and S. Grimme, J. Chem. Theory Comput., 2021, 17, 1701-1714
     DOI: 10.1021/acs.jctc.0c01306
   
   for ONIOM refer to:
   * C. Plett, A. Katbashev, S. Ehlert, S. Grimme, M. Bursch,
     Phys. Chem. Chem. Phys., 2023, 25, 17860-17868. DOI: 10.1039/D3CP02178E
   
   for DIPRO refer to:
   * J. Kohn, N. Gildemeister, S. Grimme, D. Fazzi, A. Hansen,
     J. Chem. Phys., 2023, just accepted.
   
   for PTB refer to:
   * S. Grimme, M. Mueller, A. Hansen, J. Chem. Phys., 2023, 158, 124111.
     DOI: 10.1063/5.0137838
   
   with help from (in alphabetical order)
   P. Atkinson, C. Bannwarth, F. Bohle, G. Brandenburg, E. Caldeweyher
   M. Checinski, S. Dohm, S. Ehlert, S. Ehrlich, I. Gerasimov, C. Hölzer
   A. Katbashev, J. Kohn, J. Koopman, C. Lavigne, S. Lehtola, F. März, M. Müller,
   F. Musil, H. Neugebauer, J. Pisarek, C. Plett, P. Pracht, F. Pultar,
   J. Seibert, P. Shushkov, S. Spicher, M. Stahn, M. Steiner, T. Strunk,
   J. Stückrath, T. Rose, and J. Unsleber
   
 * started run on 2025/04/09 at 02:30:15.374     
   ID    Z sym.   atoms
    1    6 C      1, 2, 4, 6, 8
    2    1 H      3, 5, 7, 9, 15-20
    3    8 O      10-14

           -------------------------------------------------
          |                Calculation Setup                |
           -------------------------------------------------

          program call               : /usr/bin/xtb xtb_rrho.coord --gfn2 --bhess vtight --chrg 0 --enso --norestart -I rrho-xcontrol-inp --parallel 1
          coordinate file            : xtb_rrho.coord
          omp threads                :                     1


           -------------------------------------------------
          |                 G F N 2 - x T B                 |
           -------------------------------------------------

        Reference                      10.1021/acs.jctc.8b01176
      * Hamiltonian:
        H0-scaling (s, p, d)           1.850000    2.230000    2.230000
        zeta-weighting                 0.500000
      * Dispersion:
        s8                             2.700000
        a1                             0.520000
        a2                             5.000000
        s9                             5.000000
      * Repulsion:
        kExp                           1.500000    1.000000
        rExp                           1.000000
      * Coulomb:
        alpha                          2.000000
        third order                    shell-resolved
        anisotropic                    true
        a3                             3.000000
        a5                             4.000000
        cn-shift                       1.200000
        cn-exp                         4.000000
        max-rad                        5.000000


          ...................................................
          :                      SETUP                      :
          :.................................................:
          :  # basis functions                  50          :
          :  # atomic orbitals                  50          :
          :  # shells                           30          :
          :  # electrons                        60          :
          :  max. iterations                   250          :
          :  Hamiltonian                  GFN2-xTB          :
          :  restarted?                      false          :
          :  GBSA solvation                  false          :
          :  PC potential                    false          :
          :  electronic temp.          300.0000000     K    :
          :  accuracy                    1.0000000          :
          :  -> integral cutoff          0.2500000E+02      :
          :  -> integral neglect         0.1000000E-07      :
          :  -> SCF convergence          0.1000000E-05 Eh   :
          :  -> wf. convergence          0.1000000E-03 e    :
          :  Broyden damping             0.4000000          :
          :  net charge                          0          :
          :  unpaired electrons                  0          :
          ...................................................

 iter      E             dE          RMSdq      gap      omega  full diag
   1    -36.3469986 -0.363470E+02  0.462E+00   10.20       0.0  T
   2    -36.3802022 -0.332036E-01  0.252E+00    9.91       1.0  T
   3    -36.3811033 -0.901046E-03  0.772E-01   10.02       1.0  T
   4    -36.3821145 -0.101118E-02  0.145E-01    9.99       1.0  T
   5    -36.3821676 -0.531195E-04  0.548E-02   10.02       1.0  T
   6    -36.3821768 -0.924478E-05  0.191E-02   10.02       1.2  T
   7    -36.3821774 -0.562983E-06  0.608E-03   10.02       3.7  T
   8    -36.3821777 -0.263702E-06  0.173E-03   10.02      13.0  T
   9    -36.3821777 -0.280398E-08  0.619E-04   10.02      36.1  T
  10    -36.3821777 -0.154861E-08  0.287E-04   10.02      77.9  T

   *** convergence criteria satisfied after 10 iterations ***

         #    Occupation            Energy/Eh            Energy/eV
      -------------------------------------------------------------
         1        2.0000           -0.7296152             -19.8538
       ...           ...                  ...                  ...
        24        2.0000           -0.4707864             -12.8107
        25        2.0000           -0.4617649             -12.5653
        26        2.0000           -0.4539856             -12.3536
        27        2.0000           -0.4516050             -12.2888
        28        2.0000           -0.4336334             -11.7998
        29        2.0000           -0.4182253             -11.3805
        30        2.0000           -0.4062047             -11.0534 (HOMO)
        31                         -0.0380698              -1.0359 (LUMO)
        32                          0.0063062               0.1716
        33                          0.0140165               0.3814
        34                          0.0245738               0.6687
        35                          0.0373648               1.0167
       ...                                ...                  ...
        50                          0.2806070               7.6357
      -------------------------------------------------------------
                  HL-Gap            0.3681348 Eh           10.0175 eV
             Fermi-level           -0.2221373 Eh           -6.0447 eV

 SCC (total)                   0 d,  0 h,  0 min,  0.015 sec
 SCC setup                      ...        0 min,  0.000 sec (  0.631%)
 Dispersion                     ...        0 min,  0.000 sec (  0.815%)
 classical contributions        ...        0 min,  0.000 sec (  0.192%)
 integral evaluation            ...        0 min,  0.002 sec ( 16.209%)
 iterations                     ...        0 min,  0.006 sec ( 41.880%)
 molecular gradient             ...        0 min,  0.006 sec ( 39.425%)
 printout                       ...        0 min,  0.000 sec (  0.778%)

         :::::::::::::::::::::::::::::::::::::::::::::::::::::
         ::                     SUMMARY                     ::
         :::::::::::::::::::::::::::::::::::::::::::::::::::::
         :: total energy             -36.130681086315 Eh    ::
         :: gradient norm              0.041297178095 Eh/a0 ::
         :: HOMO-LUMO gap             10.017458652753 eV    ::
         ::.................................................::
         :: SCC energy               -36.382100503122 Eh    ::
         :: -> isotropic ES            0.114961577475 Eh    ::
         :: -> anisotropic ES         -0.001199281587 Eh    ::
         :: -> anisotropic XC         -0.007043769092 Eh    ::
         :: -> dispersion             -0.014801890400 Eh    ::
         :: repulsion energy           0.251419416807 Eh    ::
         :: add. restraining           0.000000000000 Eh    ::
         :: total charge               0.000000000000 e     ::
         :::::::::::::::::::::::::::::::::::::::::::::::::::::

metadynamics with 1 initial structures loaded
           -------------------------------------------------
          |           Optimal kpush determination           |
           -------------------------------------------------
      ----------------------------------------------------------- 
     |                   =====================                   |
     |                        A N C O P T                        |
     |                   =====================                   |
     |               Approximate Normal Coordinate               |
     |                Rational Function Optimizer                |
      ----------------------------------------------------------- 
target rmsd / Å         0.100000
unbiased initial rmsd   0.065288

iter. min.        max.        rmsd       kpush
final kpush: -0.000000
           -------------------------------------------------
          |            Biased Numerical Hessian             |
           -------------------------------------------------
kpush                :  -0.00000
alpha                :   1.00000
step length          :   0.00500
SCC accuracy         :   0.30000
Hessian scale factor :   1.00000
frozen atoms in %    :   0.00000    0
RMS gradient         :   0.00007
estimated CPU  time      0.02 min
estimated wall time      0.02 min

writing file <hessian>, containing the non-mass-weighted Hessian matrix in atomic units (Eₕ/Bohr²).

writing file <hessian_sph>.

 projected vibrational frequencies (cm⁻¹)
eigval :       -0.00    -0.00    -0.00    -0.00     0.00     0.00
eigval :       85.72    97.53   181.99   213.90   221.24   253.23
eigval :      261.85   341.68   353.42   366.46   391.56   408.59
eigval :      449.56   485.86   511.34   537.22   581.29   741.32
eigval :      890.46   904.68   974.72  1022.58  1049.36  1060.11
eigval :     1082.33  1086.03  1108.00  1124.91  1131.23  1149.86
eigval :     1177.33  1203.70  1218.49  1255.47  1261.79  1271.85
eigval :     1304.06  1309.83  1316.98  1324.35  1330.71  1353.02
eigval :     1370.16  1456.02  2861.45  2876.38  2892.02  2906.11
eigval :     2957.77  2980.11  3497.83  3500.77  3545.72  3561.43
           -------------------------------------------------
          |                Property Printout                |
           -------------------------------------------------

    * Orbital Energies and Occupations

         #    Occupation            Energy/Eh            Energy/eV
      -------------------------------------------------------------
         1        2.0000           -0.7328494             -19.9418
       ...           ...                  ...                  ...
        18        2.0000           -0.5405588             -14.7094
        19        2.0000           -0.5249676             -14.2851
        20        2.0000           -0.5195518             -14.1377
        21        2.0000           -0.5089341             -13.8488
        22        2.0000           -0.5022238             -13.6662
        23        2.0000           -0.4877174             -13.2715
        24        2.0000           -0.4724200             -12.8552
        25        2.0000           -0.4575794             -12.4514
        26        2.0000           -0.4531867             -12.3318
        27        2.0000           -0.4494393             -12.2299
        28        2.0000           -0.4306597             -11.7188
        29        2.0000           -0.4169184             -11.3449
        30        2.0000           -0.4027418             -10.9592 (HOMO)
        31                         -0.0177502              -0.4830 (LUMO)
        32                          0.0215642               0.5868
        33                          0.0322167               0.8767
        34                          0.0369256               1.0048
        35                          0.0459809               1.2512
        36                          0.0626568               1.7050
        37                          0.0952611               2.5922
        38                          0.1008985               2.7456
        39                          0.1293970               3.5211
        40                          0.1347037               3.6655
        41                          0.1496754               4.0729
       ...                                ...                  ...
        50                          0.2898117               7.8862
      -------------------------------------------------------------
                  HL-Gap            0.3849915 Eh           10.4762 eV
             Fermi-level           -0.2102460 Eh           -5.7211 eV

     #   Z          covCN         q      C6AA      α(0)
     1   6          3.705     0.059    19.731     6.350
     2   6          3.726     0.101    19.014     6.226
     3   1          0.923     0.035     2.515     2.480
     4   6          3.729     0.104    18.954     6.215
     5   1          0.923     0.043     2.413     2.430
     6   6          3.727     0.083    19.292     6.271
     7   1          0.924     0.055     2.257     2.350
     8   6          3.631     0.232    17.338     5.995
     9   1          0.923     0.037     2.487     2.466
    10   8          1.701    -0.334    19.595     5.976
    11   8          1.657    -0.455    21.936     6.323
    12   8          1.656    -0.439    21.612     6.276
    13   8          1.656    -0.434    21.522     6.263
    14   8          1.657    -0.427    21.373     6.241
    15   1          0.924     0.058     2.218     2.329
    16   1          0.923     0.050     2.316     2.380
    17   1          0.805     0.311     0.688     1.303
    18   1          0.805     0.312     0.686     1.301
    19   1          0.805     0.309     0.696     1.310
    20   1          0.805     0.298     0.728     1.341

 Mol. C6AA /au·bohr⁶  :       3267.148347
 Mol. C8AA /au·bohr⁸  :      69340.003059
 Mol. α(0) /au        :         81.824645


Wiberg/Mayer (AO) data.
largest (>0.10) Wiberg bond orders for each atom

 ---------------------------------------------------------------------------
     #   Z sym  total        # sym  WBO       # sym  WBO       # sym  WBO
 ---------------------------------------------------------------------------
     1   6      3.944 --    10      0.972     2      0.971    15      0.970
                            16      0.967
     2   6      3.962 --    14      1.000     4      0.976     1      0.971
                             3      0.962
     3   1      0.999 --     2      0.962
     4   6      3.964 --    13      1.003     2      0.976     6      0.961
                             5      0.954
     5   1      0.998 --     4      0.954
     6   6      3.961 --    12      1.006     4      0.961     7      0.961
                             8      0.955
     7   1      0.997 --     6      0.961
     8   6      3.930 --    11      0.988    10      0.983     6      0.955
                             9      0.950
     9   1      0.999 --     8      0.950
    10   8      2.088 --     8      0.983     1      0.972
    11   8      1.972 --     8      0.988    17      0.885
    12   8      1.972 --     6      1.006    18      0.882
    13   8      1.962 --     4      1.003    19      0.884
    14   8      1.970 --     2      1.000    20      0.897
    15   1      0.996 --     1      0.970
    16   1      0.997 --     1      0.967
    17   1      0.903 --    11      0.885
    18   1      0.903 --    12      0.882
    19   1      0.904 --    13      0.884
    20   1      0.911 --    14      0.897
 ---------------------------------------------------------------------------

Topologies differ in total number of bonds
Writing topology from bond orders to xtbtopo.mol

molecular dipole:
                 x           y           z       tot (Debye)
 q only:       -0.280       0.721       0.100
   full:       -0.514       1.105       0.090       3.105
molecular quadrupole (traceless):
                xx          xy          yy          xz          yz          zz
 q only:        1.311       3.393       0.444      -4.760       0.346      -1.755
  q+dip:        0.471       3.391      -0.202      -6.971       0.525      -0.269
   full:        1.041       3.807       0.172      -6.987       0.361      -1.213

           -------------------------------------------------
          |                Geometry Summary                 |
           -------------------------------------------------

      molecular mass/u    :      150.1301116
   center of mass at/Å    :       -0.0000026      -0.0001195      -0.0000728
  moments of inertia/u·Å² :        0.2967856E+03   0.3763007E+03   0.5797925E+03
rotational constants/cm⁻¹ :        0.5680071E-01   0.4479830E-01   0.2907529E-01

 * 20 selected distances

     #   Z          #   Z                                           value/Å
     1   6          2   6                                         1.5383805
     2   6          3   1                                         1.0986239
     2   6          4   6                                         1.5318275
     4   6          5   1                                         1.1021033
     4   6          6   6                                         1.5400047 (max)
     6   6          7   1                                         1.0953315
     6   6          8   6                                         1.5369342
     8   6          9   1                                         1.1016147
     1   6         10   8                                         1.4159441
     8   6         10   8                                         1.3970369
     8   6         11   8                                         1.4018590
     6   6         12   8                                         1.4031064
     4   6         13   8                                         1.4034490
     2   6         14   8                                         1.4063663
     1   6         15   1                                         1.0916241
     1   6         16   1                                         1.0982332
    11   8         17   1                                         0.9640176
    12   8         18   1                                         0.9669791
    13   8         19   1                                         0.9664163
    14   8         20   1                                         0.9624255 (min)

 * 4 distinct bonds (by element types)

   Z      Z             #   av. dist./Å        max./Å        min./Å
   1 H    6 C           6     1.0979218     1.1021033     1.0916241
   6 C    6 C           4     1.5367867     1.5400047     1.5318275
   1 H    8 O           4     0.9649596     0.9669791     0.9624255
   6 C    8 O           6     1.4046269     1.4159441     1.3970369

           -------------------------------------------------
          |               Frequency Printout                |
           -------------------------------------------------
 projected vibrational frequencies (cm⁻¹)
eigval :       -0.00    -0.00    -0.00    -0.00     0.00     0.00
eigval :       85.72    97.53   181.99   213.90   221.24   253.23
eigval :      261.85   341.68   353.42   366.46   391.56   408.59
eigval :      449.56   485.86   511.34   537.22   581.29   741.32
eigval :      890.46   904.68   974.72  1022.58  1049.36  1060.11
eigval :     1082.33  1086.03  1108.00  1124.91  1131.23  1149.86
eigval :     1177.33  1203.70  1218.49  1255.47  1261.79  1271.85
eigval :     1304.06  1309.83  1316.98  1324.35  1330.71  1353.02
eigval :     1370.16  1456.02  2861.45  2876.38  2892.02  2906.11
eigval :     2957.77  2980.11  3497.83  3500.77  3545.72  3561.43
 reduced masses (amu)
    1:      5.59    2:      7.13    3:      6.80    4:      7.30    5:      7.38    6:      6.19
    7:      6.53    8:      4.81    9:      1.08   10:      4.06   11:      3.81   12:      4.49
   13:      4.37   14:      2.01   15:      1.35   16:      1.72   17:      3.09   18:      2.33
   19:      1.61   20:      3.52   21:      3.77   22:      4.86   23:      4.19   24:      4.21
   25:      2.89   26:      2.26   27:      3.25   28:      2.75   29:      3.07   30:      2.38
   31:      5.80   32:      2.84   33:      3.97   34:      3.59   35:      4.83   36:      1.26
   37:      1.31   38:      1.24   39:      1.27   40:      1.30   41:      1.25   42:      1.23
   43:      1.32   44:      1.28   45:      1.42   46:      1.24   47:      1.37   48:      1.46
   49:      1.56   50:      1.09   51:      1.07   52:      1.07   53:      1.07   54:      1.08
   55:      1.08   56:      1.07   57:      1.07   58:      1.07   59:      1.07   60:      1.07
 IR intensities (km·mol⁻¹)
    1:      0.04    2:      0.18    3:      0.24    4:      0.17    5:      0.33    6:      1.08
    7:      3.03    8:      0.56    9:    149.34   10:     10.30   11:      6.06   12:      7.11
   13:      2.66   14:     59.72   15:     66.41   16:     79.24   17:     26.22   18:     39.18
   19:    185.40   20:     27.85   21:     62.25   22:     24.30   23:     16.95   24:     31.96
   25:      4.28   26:      7.40   27:     30.59   28:     40.34   29:     46.42   30:     11.07
   31:    161.75   32:    124.65   33:     13.55   34:    123.15   35:    126.36   36:     54.30
   37:     25.12   38:      6.08   39:     41.89   40:     25.14   41:     57.09   42:     36.40
   43:     44.56   44:     53.36   45:     16.65   46:     52.04   47:     20.45   48:     49.07
   49:      3.26   50:      0.62   51:     26.62   52:     54.18   53:     11.64   54:     90.09
   55:     37.93   56:     26.52   57:     32.94   58:     25.26   59:     23.68   60:     12.46
Molecule has no symmetry elements
It seems to be the C1 point group
 Raman intensities (Ä⁴*amu⁻¹)
    1:      0.00    2:      0.00    3:      0.00    4:      0.00    5:      0.00    6:      0.00
    7:      0.00    8:      0.00    9:      0.00   10:      0.00   11:      0.00   12:      0.00
   13:      0.00   14:      0.00   15:      0.00   16:      0.00   17:      0.00   18:      0.00
   19:      0.00   20:      0.00   21:      0.00   22:      0.00   23:      0.00   24:      0.00
   25:      0.00   26:      0.00   27:      0.00   28:      0.00   29:      0.00   30:      0.00
   31:      0.00   32:      0.00   33:      0.00   34:      0.00   35:      0.00   36:      0.00
   37:      0.00   38:      0.00   39:      0.00   40:      0.00   41:      0.00   42:      0.00
   43:      0.00   44:      0.00   45:      0.00   46:      0.00   47:      0.00   48:      0.00
   49:      0.00   50:      0.00   51:      0.00   52:      0.00   53:      0.00   54:      0.00
   55:      0.00   56:      0.00   57:      0.00   58:      0.00   59:      0.00   60:      0.00
 output can be read by thermo (or use thermo option).
 writing <g98.out> molden fake output.
 recommended (thermochemical) frequency scaling factor: 1.0
           -------------------------------------------------
          |             Thermodynamic Functions             |
           -------------------------------------------------

c1  symmetry found (for desy threshold:  0.10E+00) used in thermo

          ...................................................
          :                      SETUP                      :
          :.................................................:
          :  # frequencies                          54      :
          :  # imaginary freq.                       0      :
          :  linear?                             false      :
          :  only rotor calc.                    false      :
          :  symmetry                               c1      :
          :  rotational number                       1      :
          :  scaling factor                  1.0000000      :
          :  rotor cutoff                    0.0000000 cm⁻¹ :
          :  imag. cutoff                 -100.0000000 cm⁻¹ :
          :.................................................:

    mode    ω/cm⁻¹     T·S(HO)/kcal·mol⁻¹    T·S(FR)/kcal·mol⁻¹   T·S(vib)
   ------------------------------------------------------------------------
       1     85.72    -1.11966 (100.00%)    -0.89670 (  0.00%)    -1.11966
       2     97.53    -1.04445 (100.00%)    -0.85850 (  0.00%)    -1.04445
       3    181.99    -0.68811 (100.00%)    -0.67377 (  0.00%)    -0.68811
       4    213.90    -0.59933 (100.00%)    -0.62591 (  0.00%)    -0.59933
       5    221.24    -0.58108 (100.00%)    -0.61592 (  0.00%)    -0.58108
       6    253.23    -0.50924 (100.00%)    -0.57592 (  0.00%)    -0.50924
       7    261.85    -0.49178 (100.00%)    -0.56601 (  0.00%)    -0.49178
   ------------------------------------------------------------------------

   temp. (K)  partition function   enthalpy   heat capacity  entropy
                                   cal/mol     cal/K/mol   cal/K/mol   J/K/mol
 298.15  VIB   284.                 4726.278     33.574     27.075
         ROT  0.615E+06              888.727      2.981     29.468
         INT  0.174E+09             5615.005     36.554     56.544
         TR   0.563E+26             1481.212      4.968     40.929
         TOT                        7096.2179    41.5224    97.4727   407.8259

       T/K    H(0)-H(T)+PV         H(T)/Eh          T*S/Eh         G(T)/Eh
   ------------------------------------------------------------------------
    298.15    0.113085E-01    0.168050E+00    0.463124E-01    0.121737E+00
   ------------------------------------------------------------------------

         :::::::::::::::::::::::::::::::::::::::::::::::::::::
         ::                  THERMODYNAMIC                  ::
         :::::::::::::::::::::::::::::::::::::::::::::::::::::
         :: total free energy         -36.011213352268 Eh   ::
         ::.................................................::
         :: total energy              -36.132950528436 Eh   ::
         :: zero point energy           0.156741074884 Eh   ::
         :: G(RRHO) w/o ZPVE           -0.035003898716 Eh   ::
         :: G(RRHO) contrib.            0.121737176168 Eh   ::
         :::::::::::::::::::::::::::::::::::::::::::::::::::::

optimized geometry written to: xtbopt.coord


           -------------------------------------------------
          | TOTAL ENERGY              -36.132950528436 Eh   |
          | TOTAL ENTHALPY            -35.964900910558 Eh   |
          | TOTAL FREE ENERGY         -36.011213352268 Eh   |
          | GRADIENT NORM               0.000068924821 Eh/α |
          | HOMO-LUMO GAP              10.476153236408 eV   |
           -------------------------------------------------

------------------------------------------------------------------------
 * finished run on 2025/04/09 at 02:30:17.121     
------------------------------------------------------------------------
 total:
 * wall-time:     0 d,  0 h,  0 min,  1.746 sec
 *  cpu-time:     0 d,  0 h,  0 min,  1.730 sec
 * ratio c/w:     0.990 speedup
 SCF:
 * wall-time:     0 d,  0 h,  0 min,  0.015 sec
 *  cpu-time:     0 d,  0 h,  0 min,  0.015 sec
 * ratio c/w:     0.989 speedup
 analytical hessian:
 * wall-time:     0 d,  0 h,  0 min,  1.489 sec
 *  cpu-time:     0 d,  0 h,  0 min,  1.478 sec
 * ratio c/w:     0.992 speedup

