
                                 *****************
                                 * O   R   C   A *
                                 *****************

                                            #,                                       
                                            ###                                      
                                            ####                                     
                                            #####                                    
                                            ######                                   
                                           ########,                                 
                                     ,,################,,,,,                         
                               ,,#################################,,                 
                          ,,##########################################,,             
                       ,#########################################, ''#####,          
                    ,#############################################,,   '####,        
                  ,##################################################,,,,####,       
                ,###########''''           ''''###############################       
              ,#####''   ,,,,##########,,,,          '''####'''          '####       
            ,##' ,,,,###########################,,,                        '##       
           ' ,,###''''                  '''############,,,                           
         ,,##''                                '''############,,,,        ,,,,,,###''
      ,#''                                            '''#######################'''  
     '                                                          ''''####''''         
             ,#######,   #######,   ,#######,      ##                                
            ,#'     '#,  ##    ##  ,#'     '#,    #''#        ,####,   ,####,        
            ##       ##  ##   ,#'  ##            #'  '#       #'       #'  '#        
            ##       ##  #######   ##           ,######,      #####,   #    #        
            '#,     ,#'  ##    ##  '#,     ,#' ,#      #,     #,   #   #,  ,#        
             '#######'   ##     ##  '#######'  #'      '#     '####' # '####'        



                #########################################################
                #                        -***-                          #
                #          Department of theory and spectroscopy        #
                #                                                       #
                #                      Frank Neese                      #
                #                                                       #
                #     Directorship, Architecture, Infrastructure        #
                #                    SHARK, DRIVERS                     #
                #        Core code/Algorithms in most modules           #
                #                                                       #
                #        Max Planck Institute fuer Kohlenforschung      #
                #                Kaiser Wilhelm Platz 1                 #
                #                 D-45470 Muelheim/Ruhr                 #
                #                      Germany                          #
                #                                                       #
                #                  All rights reserved                  #
                #                        -***-                          #
                #########################################################


                         Program Version 6.0.1  -  RELEASE   -


 With contributions from (in alphabetic order):
[Max-Planck-Institut fuer Kohlenforschung]                               
  Daniel Aravena         : Magnetic Suceptibility                        
  Michael Atanasov       : Ab Initio Ligand Field Theory (pilot matlab implementation)
  Alexander A. Auer      : GIAO ZORA, VPT2 properties, NMR spectrum      
  Ute Becker             : All parallelization in ORCA, NUMFREQ, NUMCALC 
  Giovanni Bistoni       : ED, misc. LED, open-shell LED, HFLD           
  Martin Brehm           : Molecular dynamics                            
  Dmytro Bykov           : pre 5.0 version of the SCF Hessian            
  Marcos Casanova-Páez   : Triplet and SCS-CIS(D). UHF-(DLPNO)-IP/EA/STEOM-CCSD. UHF-CVS-IP/STEOM-CCSD   
  Vijay G. Chilkuri      : MRCI spin determinant printing, contributions to CSF-ICE 
  Pauline Colinet        : FMM embedding                                 
  Dipayan Datta          : RHF DLPNO-CCSD density                        
  Achintya Kumar Dutta   : EOM-CC, STEOM-CC                              
  Nicolas Foglia         : Exact transition moments, OPA infrastructure, MCD improvements    
  Dmitry Ganyushin       : Spin-Orbit,Spin-Spin,Magnetic field MRCI      
  Miquel Garcia-Rates    : C-PCM and meta-GGA Hessian, CCSD/C-PCM, Gaussian charge scheme 
  Tiago L. C. Gouveia    : GS-ROHF, GS-ROCIS                             
  Yang Guo               : DLPNO-NEVPT2, F12-NEVPT2, CIM, IAO-localization        
  Andreas Hansen         : Spin unrestricted coupled pair/coupled cluster methods 
  Ingolf Harden          : AUTO-CI MPn and infrastructure                
  Benjamin Helmich-Paris : MC-RPA, TRAH-(SCF,CASSCF), AVAS, COSX integrals, SCF dyn. polar. 
  Lee Huntington         : MR-EOM, pCC                                   
  Robert Izsak           : Overlap fitted RIJCOSX, COSX-SCS-MP3, EOM     
  Riya Kayal             : Wick's Theorem for AUTO-CI, AUTO-CI UHF-CCSDT 
  Emily Kempfer          : AUTO-CI, RHF CISDT and CCSDT                  
  Christian Kollmar      : KDIIS, OOCD, Brueckner-CCSD(T), CCSD density, CASPT2, CASPT2-K, improved NEVPT2 
  Axel Koslowski         : Symmetry handling                             
  Simone Kossmann        : meta-GGA functionals, TD-DFT gradient, OOMP2, (MP2 Hessian; deprecated post 5.0) 
  Lucas Lang             : DCDCAS                                        
  Marvin Lechner         : AUTO-CI (C++ implementation), FIC-MRCC        
  Spencer Leger          : CASSCF response                               
  Dagmar Lenk            : GEPOL surface, SMD, ORCA-2-JSON               
  Dimitrios Liakos       : Extrapolation schemes; Compound Job, initial MDCI parallelization 
  Dimitrios Manganas     : Further ROCIS development; embedding schemes. LFT, Crystal Embedding 
  Dimitrios Pantazis     : SARC Basis sets                               
  Anastasios Papadopoulos: AUTO-CI, single reference methods and gradients 
  Taras Petrenko         : pre 6.0 DFT Hessian and TD-DFT gradient, (ASA, deprecated), ECA, 1-Electron XAS/XES, NRVS 
  Peter Pinski           : DLPNO-MP2, DLPNO-MP2 Gradient                 
  Christoph Reimann      : Effective Core Potentials                     
  Marius Retegan         : Local ZFS, SOC                                
  Christoph Riplinger    : Optimizer, TS searches, QM/MM, DLPNO-CCSD(T), (RO)-DLPNO pert. Triples 
  Michael Roemelt        : Original ROCIS implementation                 
  Masaaki Saitow         : Open-shell DLPNO-CCSD energy and density      
  Barbara Sandhoefer     : DKH picture change effects                    
  Kantharuban Sivalingam : CASSCF convergence/infrastructure, NEVPT2 and variants, FIC-MRCI 
  Bernardo de Souza      : ESD, SOC TD-DFT                               
  Georgi L. Stoychev     : AutoAux, RI-MP2 NMR, DLPNO-MP2 response, X2C  
  Van Anh Tran           : RI-MP2 g-tensors                              
  Willem Van den Heuvel  : Paramagnetic NMR                              
  Zikuan Wang            : NOTCH, Electric field optimization            
  Frank Wennmohs         : Technical directorship and infrastructure     
  Hang Xu                : AUTO-CI-Response properties                   
                                                                         
[FACCTs GmbH]                                                            
  Markus Bursch, Miquel Garcia-Rates, Christoph Riplinger, Bernardo de Souza, Georgi L. Stoychev 
                                                                 
  APM, Basis sets (HGBS, AHGBS, def-TZVP (Ac-Lr), def2-XVPD (La-Lu)), CI-OPT, improved COSX, DLPNO-Multilevel,           
  DOCKER, DRACO, updates on ESD, GOAT, IRC, LR-CPCM, MBIS, meta-GGA TD-DFT gradient, ML-optimized integration grids, 
  MM, NACMEs, nearIR, NEB, NEB-TS, NL-DFT gradient (VV10), 2- and 3-layer-ONIOM, interface openCOSMO-RS, QMMM,   
  Crystal-QMMM, SF, symmetry and pop. for TD-DFT, r2SCAN hybrids, SOLVATOR                                   
                                                                         
[Other institutions]                                                     
  V. Asgeirsson          : NEB                                           
  Christoph Bannwarth    : sTDA-DFT, sTD-DFT, PBEh-3c, B97-3c, D3        
  Sebastian Ehlert       : rSCAN, r2SCAN, r2SCAN-3c, D4, dhf basis sets  
  Marvin Friede          : D4 for Fr, Ra, Ac-Lr                          
  Lars Goerigk           : TD-DFT with DH, B97 family of functionals     
  Stefan Grimme          : VdW corrections, initial TS optimization, DFT functionals, gCP, sTDA/sTD-DF 
  Waldemar Hujo          : DFT-NL                                        
  H. Jonsson             : NEB                                           
  Holger Kruse           : gCP                                           
  Marcel Mueller         : wB97X-3c, vDZP basis set                      
  Hagen Neugebauer       : wr2SCAN                                       
  Tobias Risthaus        : range-separated hybrid DFT                    
  Lukas Wittmann         : regularized MP2, r2SCAN double-hybrids, wr2SCAN        
                                                                         
We gratefully acknowledge several colleagues who have allowed us to      
interface, adapt or use parts of their codes:                            
  Ed Valeev, F. Pavosevic, A. Kumar             : LibInt (2-el integral package), F12 methods 
  Garnet Chan, S. Sharma, J. Yang, R. Olivares  : DMRG                   
  Ulf Ekstrom                                   : XCFun DFT Library      
  Mihaly Kallay                                 : mrcc  (arbitrary order and MRCC methods)
  Frank Weinhold                                : gennbo (NPA and NBO analysis)           
  Simon Mueller                                 : openCOSMO-RS                            
  Christopher J. Cramer and Donald G. Truhlar   : smd solvation model                     
  S Lehtola, MJT Oliveira, MAL Marques          : LibXC Library                           
  Liviu Ungur et al                             : ANISO software                          


 Your calculation uses the libint2 library for the computation of 2-el integrals
 For citations please refer to: http://libint.valeyev.net

 Your ORCA version has been built with support for libXC version: 6.2.2
 For citations please refer to: https://libxc.gitlab.io

 This ORCA versions uses:
   CBLAS   interface :  Fast vector & matrix operations
   LAPACKE interface :  Fast linear algebra routines
   SCALAPACK package :  Parallel linear algebra routines
   Shared memory     :  Shared parallel matrices
   BLAS/LAPACK       :  OpenBLAS 0.3.27  USE64BITINT DYNAMIC_ARCH NO_AFFINITY Zen SINGLE_THREADED
        Core in use  :  Zen
   Copyright (c) 2011-2014, The OpenBLAS Project


Your calculation utilizes the geometrical counterpoise correction gCP
Please cite in your paper:
H.Kruse, S. Grimme J.Chem.Phys., 136, (2012), 154101 
   

Your calculation utilizes the DFT-NL dispersion correction.
Cite in your paper:
Vydrov, O. A.; Van Voorhis, T. J. Chem. Phys. 2010, 133, 244103
Hujo, W.; Grimme, S. J. Chem. Theory Comput. 2011, 7, 3866 
   

================================================================================

----- Orbital basis set information -----
Your calculation utilizes the basis: def2-TZVP
   F. Weigend and R. Ahlrichs, Phys. Chem. Chem. Phys. 7, 3297 (2005).

----- AuxJ basis set information -----
Your calculation utilizes the auxiliary basis: def2/J
   F. Weigend, Phys. Chem. Chem. Phys. 8, 1057 (2006).

================================================================================
                                        WARNINGS
                       Please study these warnings very carefully!
================================================================================


================================================================================
                                       INPUT FILE
================================================================================
NAME = sp.inp
|  1> ! wb97x-v def2-tzvp def2/J RIJCOSX DEFGRID2 scfconv7 GCP(DFT/TZ) printgap
|  2> %output
|  3>     printlevel normal
|  4> end
|  5> * xyz 0 1
|  6> C 1.85208173047311 -1.4751081287280579 -0.0005591386827728862
|  7> C 0.5632886655357642 -0.7004758205824733 -3.047251446875606e-05
|  8> C -0.6533727845677254 -1.3847270179333542 -8.43292525055141e-06
|  9> C -1.8473386735838804 -0.678317346953309 0.00014139944096145857
| 10> N -1.9071496410592108 0.6567580539458847 0.00022001048539204218
| 11> C -0.7430315540663752 1.3062327080452147 0.0002583822744958375
| 12> C 0.5182048956259158 0.7012530867757181 0.0001947803311873164
| 13> C 1.75569885797963 1.5548969822903222 7.900898982588148e-05
| 14> H 1.9080290274653426 -2.1252473552156252 0.8789945238097936
| 15> H 1.909247439916931 -2.12182907940755 -0.8825672873402837
| 16> H 2.7301262691929984 -0.8287536366829099 0.00119643091208375
| 17> H -0.6658624477164115 -2.4714779533192983 -0.00012277592606906978
| 18> H -2.7993747261645585 -1.2065999422248261 -0.00017900101863599322
| 19> H -0.8047320772761561 2.3953174323566575 0.0007316849616422665
| 20> H 2.374577251520599 1.36920986429499 -0.8845224463346246
| 21> H 1.488331952747396 2.614326813067887 0.0032726876602140807
| 22> H 2.378057622936005 1.364784228190624 0.8812460779130048
| 23> *
| 24> 
| 25>                          ****END OF INPUT****
================================================================================

                       ****************************
                       * Single Point Calculation *
                       ****************************

---------------------------------
CARTESIAN COORDINATES (ANGSTROEM)
---------------------------------
  C      1.852082   -1.475108   -0.000559
  C      0.563289   -0.700476   -0.000030
  C     -0.653373   -1.384727   -0.000008
  C     -1.847339   -0.678317    0.000141
  N     -1.907150    0.656758    0.000220
  C     -0.743032    1.306233    0.000258
  C      0.518205    0.701253    0.000195
  C      1.755699    1.554897    0.000079
  H      1.908029   -2.125247    0.878995
  H      1.909247   -2.121829   -0.882567
  H      2.730126   -0.828754    0.001196
  H     -0.665862   -2.471478   -0.000123
  H     -2.799375   -1.206600   -0.000179
  H     -0.804732    2.395317    0.000732
  H      2.374577    1.369210   -0.884522
  H      1.488332    2.614327    0.003273
  H      2.378058    1.364784    0.881246

----------------------------
CARTESIAN COORDINATES (A.U.)
----------------------------
  NO LB      ZA    FRAG     MASS         X           Y           Z
   0 C     6.0000    0    12.011    3.499927   -2.787550   -0.001057
   1 C     6.0000    0    12.011    1.064461   -1.323707   -0.000058
   2 C     6.0000    0    12.011   -1.234696   -2.616755   -0.000016
   3 C     6.0000    0    12.011   -3.490964   -1.281834    0.000267
   4 N     7.0000    0    14.007   -3.603991    1.241093    0.000416
   5 C     6.0000    0    12.011   -1.404126    2.468422    0.000488
   6 C     6.0000    0    12.011    0.979265    1.325176    0.000368
   7 C     6.0000    0    12.011    3.317790    2.938329    0.000149
   8 H     1.0000    0     1.008    3.605652   -4.016135    1.661059
   9 H     1.0000    0     1.008    3.607955   -4.009676   -1.667810
  10 H     1.0000    0     1.008    5.159191   -1.566117    0.002261
  11 H     1.0000    0     1.008   -1.258298   -4.670416   -0.000232
  12 H     1.0000    0     1.008   -5.290052   -2.280143   -0.000338
  13 H     1.0000    0     1.008   -1.520723    4.526494    0.001383
  14 H     1.0000    0     1.008    4.487301    2.587432   -1.671505
  15 H     1.0000    0     1.008    2.812540    4.940362    0.006184
  16 H     1.0000    0     1.008    4.493878    2.579068    1.665314

--------------------------------
INTERNAL COORDINATES (ANGSTROEM)
--------------------------------
 C      0   0   0     0.000000000000     0.00000000     0.00000000
 C      1   0   0     1.503676513264     0.00000000     0.00000000
 C      2   1   0     1.395874201255   119.63849143     0.00000000
 C      3   2   1     1.387288430658   120.03589816   180.01603682
 N      4   3   2     1.336414488135   123.17579059     0.00000000
 C      5   4   3     1.333037226882   116.59252422     0.00000000
 C      6   5   4     1.398827268904   125.21663455     0.00000000
 C      7   6   5     1.503362637761   119.77572041   179.99254953
 H      1   2   3     1.095182979717   110.44564905   300.98187977
 H      1   2   3     1.095196001035   110.43996120    59.23037059
 H      1   2   3     1.090293274026   112.63397401   180.09793362
 H      3   2   1     1.086822708781   120.01188131     0.00000000
 H      4   3   2     1.088786135353   120.36353148   179.97936673
 H      6   5   4     1.090831203857   115.91509694   180.02389479
 H      8   7   6     1.095449636699   111.64495152   240.31360739
 H      8   7   6     1.092651283776   110.43454762     0.17988165
 H      8   7   6     1.095412568371   111.65787164   120.05416111

---------------------------
INTERNAL COORDINATES (A.U.)
---------------------------
 C      0   0   0     0.000000000000     0.00000000     0.00000000
 C      1   0   0     2.841536804078     0.00000000     0.00000000
 C      2   1   0     2.637819957778   119.63849143     0.00000000
 C      3   2   1     2.621595202701   120.03589816   180.01603682
 N      4   3   2     2.525457383979   123.17579059     0.00000000
 C      5   4   3     2.519075285129   116.59252422     0.00000000
 C      6   5   4     2.643400446889   125.21663455     0.00000000
 C      7   6   5     2.840943665337   119.77572041   179.99254953
 H      1   2   3     2.069595898198   110.44564905   300.98187977
 H      1   2   3     2.069620504921   110.43996120    59.23037059
 H      1   2   3     2.060355693566   112.63397401   180.09793362
 H      3   2   1     2.053797275723   120.01188131     0.00000000
 H      4   3   2     2.057507614227   120.36353148   179.97936673
 H      6   5   4     2.061372233626   115.91509694   180.02389479
 H      8   7   6     2.070099806864   111.64495152   240.31360739
 H      8   7   6     2.064811686215   110.43454762     0.17988165
 H      8   7   6     2.070029757876   111.65787164   120.05416111

---------------------
BASIS SET INFORMATION
---------------------
There are 3 groups of distinct atoms

 Group   1 Type C   : 11s6p2d1f contracted to 5s3p2d1f pattern {62111/411/11/1}
 Group   2 Type N   : 11s6p2d1f contracted to 5s3p2d1f pattern {62111/411/11/1}
 Group   3 Type H   : 5s1p contracted to 3s1p pattern {311/1}

Atom   0C    basis set group =>   1
Atom   1C    basis set group =>   1
Atom   2C    basis set group =>   1
Atom   3C    basis set group =>   1
Atom   4N    basis set group =>   2
Atom   5C    basis set group =>   1
Atom   6C    basis set group =>   1
Atom   7C    basis set group =>   1
Atom   8H    basis set group =>   3
Atom   9H    basis set group =>   3
Atom  10H    basis set group =>   3
Atom  11H    basis set group =>   3
Atom  12H    basis set group =>   3
Atom  13H    basis set group =>   3
Atom  14H    basis set group =>   3
Atom  15H    basis set group =>   3
Atom  16H    basis set group =>   3
---------------------------------
AUXILIARY/J BASIS SET INFORMATION
---------------------------------
There are 3 groups of distinct atoms

 Group   1 Type C   : 12s5p4d2f1g contracted to 6s4p3d1f1g pattern {711111/2111/211/2/1}
 Group   2 Type N   : 12s5p4d2f1g contracted to 6s4p3d1f1g pattern {711111/2111/211/2/1}
 Group   3 Type H   : 5s2p1d contracted to 3s1p1d pattern {311/2/1}

Atom   0C    basis set group =>   1
Atom   1C    basis set group =>   1
Atom   2C    basis set group =>   1
Atom   3C    basis set group =>   1
Atom   4N    basis set group =>   2
Atom   5C    basis set group =>   1
Atom   6C    basis set group =>   1
Atom   7C    basis set group =>   1
Atom   8H    basis set group =>   3
Atom   9H    basis set group =>   3
Atom  10H    basis set group =>   3
Atom  11H    basis set group =>   3
Atom  12H    basis set group =>   3
Atom  13H    basis set group =>   3
Atom  14H    basis set group =>   3
Atom  15H    basis set group =>   3
Atom  16H    basis set group =>   3

Checking for AutoStart:
The File: sp.gbw exists
Trying to determine its content:
     ... Fine, the file contains calculation information
     ... Fine, the calculation information was read
     ... Fine, the file contains a basis set
     ... Fine, the basis set was read
     ... Fine, the file contains a geometry
     ... Fine, the geometry was read
     ... Fine, the file contains a set of orbitals
     ... Fine, the orbitals can be read
     => possible old guess file was deleted
     => GBW file was renamed to GES file
     => GES file is set as startup file
     => Guess is set to MORead
     ... now leaving AutoStart

------------------------------------------------------------------------------
                             ORCA STARTUP CALCULATIONS
                           -- RI-GTO INTEGRALS CHOSEN --
------------------------------------------------------------------------------
------------------------------------------------------------------------------
                   ___                                                        
                  /   \      - P O W E R E D   B Y -                         
                 /     \                                                     
                 |  |  |   _    _      __       _____    __    __             
                 |  |  |  | |  | |    /  \     |  _  \  |  |  /  |          
                  \  \/   | |  | |   /    \    | | | |  |  | /  /          
                 / \  \   | |__| |  /  /\  \   | |_| |  |  |/  /          
                |  |  |   |  __  | /  /__\  \  |    /   |      \           
                |  |  |   | |  | | |   __   |  |    \   |  |\   \          
                \     /   | |  | | |  |  |  |  | |\  \  |  | \   \       
                 \___/    |_|  |_| |__|  |__|  |_| \__\ |__|  \__/        
                                                                              
                      - O R C A' S   B I G   F R I E N D -                    
                                      &                                       
                       - I N T E G R A L  F E E D E R -                       
                                                                              
 v1 FN, 2020, v2 2021, v3 2022-2024                                           
------------------------------------------------------------------------------


----------------------
SHARK INTEGRAL PACKAGE
----------------------

Number of atoms                             ...     17
Number of basis functions                   ...    302
Number of shells                            ...    124
Maximum angular momentum                    ...      3
Integral batch strategy                     ... SHARK/LIBINT Hybrid
RI-J (if used) integral strategy            ... SPLIT-RIJ (Revised 2003 algorithm where possible)
Printlevel                                  ...      1
Contraction scheme used                     ... SEGMENTED contraction
Prescreening option                         ... SCHWARTZ
   Thresh                                   ... 3.000e-11
   Tcut                                     ... 1.000e-12
   Tpresel                                  ... 1.000e-12 
Coulomb Range Separation                    ... NOT USED
Exchange Range Separation                   ... Long Range
   Mu parameter                             ... 3.000e-01
   Scaling (regular/separated)              ... 1.670e-01 8.330e-01
Multipole approximations                    ... NOT USED
Finite Nucleus Model                        ... NOT USED
CABS basis                                  ... NOT available
Auxiliary Coulomb fitting basis             ... AVAILABLE
   # of basis functions in Aux-J            ...    491
   # of shells in Aux-J                     ...    165
   Maximum angular momentum in Aux-J        ...      4
Auxiliary J/K fitting basis                 ... NOT available
Auxiliary Correlation fitting basis         ... NOT available
Auxiliary 'external' fitting basis          ... NOT available

Checking pre-screening integrals            ... done (  0.0 sec) Dimension = 124
Check shell pair data                       ... done (  0.0 sec)
Shell pair information
Shell pair cut-off parameter TPreSel        ...   1.0e-12
Total number of shell pairs                 ...      7750
Shell pairs after pre-screening             ...      7230
Total number of primitive shell pairs       ...     23208
Primitive shell pairs kept                  ...     16488
          la=0 lb=0:   2035 shell pairs
          la=1 lb=0:   2069 shell pairs
          la=1 lb=1:    534 shell pairs
          la=2 lb=0:   1019 shell pairs
          la=2 lb=1:    512 shell pairs
          la=2 lb=2:    134 shell pairs
          la=3 lb=0:    504 shell pairs
          la=3 lb=1:    260 shell pairs
          la=3 lb=2:    127 shell pairs
          la=3 lb=3:     36 shell pairs

Calculating one electron integrals          ... done (  0.0 sec)
Calculating RI/J V-Matrix + Cholesky decomp.... done (  0.0 sec)
Calculating Nuclear repulsion               ... done (  0.0 sec) ENN=    348.509154094446 Eh

Diagonalization of the overlap matrix:
Smallest eigenvalue                        ... 3.855e-05
Time for diagonalization                   ...    0.006 sec
Threshold for overlap eigenvalues          ... 1.000e-07
Number of eigenvalues below threshold      ... 0
Time for construction of square roots      ...    0.003 sec
Total time needed                          ...    0.010 sec

-------------------
DFT GRID GENERATION
-------------------

General Integration Accuracy     IntAcc      ... 4.388
Radial Grid Type                 RadialGrid  ... OptM3 with GC (2021)
Angular Grid (max. ang.)         AngularGrid ... 4 (Lebedev-302)
Angular grid pruning method      GridPruning ... 4 (adaptive)
Weight generation scheme         WeightScheme... mBecke (2022)
Basis function cutoff            BFCut       ... 1.0000e-11
Integration weight cutoff        WCut        ... 1.0000e-14
Partially contracted basis set               ... off
Rotationally invariant grid construction     ... off
Angular grids for H and He will be reduced by one unit

Total number of grid points                  ...    76944
Total number of batches                      ...     1210
Average number of points per batch           ...       63
Average number of grid points per atom       ...     4526

--------------------
COSX GRID GENERATION
--------------------

GRIDX 1
-------
General Integration Accuracy     IntAcc      ... 3.816
Radial Grid Type                 RadialGrid  ... OptM3 with GC (2021)
Angular Grid (max. ang.)         AngularGrid ... 1 (Lebedev-50)
Angular grid pruning method      GridPruning ... 4 (adaptive)
Weight generation scheme         WeightScheme... mBecke (2022)
Basis function cutoff            BFCut       ... 1.0000e-11
Integration weight cutoff        WCut        ... 1.0000e-14
Partially contracted basis set               ... on
Rotationally invariant grid construction     ... off
Angular grids for H and He will be reduced by one unit

Total number of grid points                  ...     9861
Total number of batches                      ...       86
Average number of points per batch           ...      114
Average number of grid points per atom       ...      580
UseSFitting                                  ... on

GRIDX 2
-------
General Integration Accuracy     IntAcc      ... 4.020
Radial Grid Type                 RadialGrid  ... OptM3 with GC (2021)
Angular Grid (max. ang.)         AngularGrid ... 2 (Lebedev-110)
Angular grid pruning method      GridPruning ... 4 (adaptive)
Weight generation scheme         WeightScheme... mBecke (2022)
Basis function cutoff            BFCut       ... 1.0000e-11
Integration weight cutoff        WCut        ... 1.0000e-14
Partially contracted basis set               ... on
Rotationally invariant grid construction     ... off
Angular grids for H and He will be reduced by one unit

Total number of grid points                  ...    21170
Total number of batches                      ...      174
Average number of points per batch           ...      121
Average number of grid points per atom       ...     1245
UseSFitting                                  ... on

GRIDX 3
-------
General Integration Accuracy     IntAcc      ... 4.338
Radial Grid Type                 RadialGrid  ... OptM3 with GC (2021)
Angular Grid (max. ang.)         AngularGrid ... 3 (Lebedev-194)
Angular grid pruning method      GridPruning ... 4 (adaptive)
Weight generation scheme         WeightScheme... mBecke (2022)
Basis function cutoff            BFCut       ... 1.0000e-11
Integration weight cutoff        WCut        ... 1.0000e-14
Partially contracted basis set               ... on
Rotationally invariant grid construction     ... off
Angular grids for H and He will be reduced by one unit

Total number of grid points                  ...    46435
Total number of batches                      ...      372
Average number of points per batch           ...      124
Average number of grid points per atom       ...     2731
UseSFitting                                  ... on
Initializing property integral containers    ... done (  0.0 sec)

SHARK setup successfully completed in   1.3 seconds

Maximum memory used throughout the entire STARTUP-calculation: 46.9 MB
-------------------------------------------------------------------------------
                                 ORCA GUESS
                   Start orbitals & Density for SCF / CASSCF
-------------------------------------------------------------------------------

------------
SCF SETTINGS
------------
Hamiltonian:
 Density Functional     Method          .... DFT(GTOs)
 Exchange Functional    Exchange        .... WB97X-V
 Correlation Functional Correlation     .... WB97X-V
 Gradients option       PostSCFGGA      .... off
 Hybrid DFT is turned on
   Fraction HF Exchange ScalHFX         ....  0.167000
   Scaling of DF-GGA-X  ScalDFX         ....  0.000000
   Scaling of DF-GGA-C  ScalDFC         ....  1.000000
   Scaling of DF-LDA-C  ScalLDAC        ....  1.000000
   Perturbative correction              ....  0.000000
 Long-range corrected/Screened/Range-Separated Hybrid DFT is turned on
   Amount of maximum screened exact exchange              ....  0.833000
   Range separation parameter mu (erf(mu*r12)/r12)        ....  0.300000
   NL short-range parameter             ....  6.000000
   NL long-range parameter              ....  0.010000
 RI-approximation to the Coulomb term is turned on
   Number of AuxJ basis functions       .... 491
   RIJ-COSX (HFX calculated with COS-X)).... on


General Settings:
 Integral files         IntName         .... sp
 Hartree-Fock type      HFTyp           .... RHF
 Total Charge           Charge          ....    0
 Multiplicity           Mult            ....    1
 Number of Electrons    NEL             ....   58
 Basis Dimension        Dim             ....  302
 Nuclear Repulsion      ENuc            ....    348.5091540944 Eh

Convergence Acceleration:
 AO-DIIS                CNVDIIS         .... on
   Start iteration      DIISMaxIt       ....    12
   Startup error        DIISStart       ....  0.200000
   # of expansion vecs  DIISMaxEq       ....     5
   Bias factor          DIISBfac        ....   1.050
   Max. coefficient     DIISMaxC        ....  10.000
 MO-DIIS                CNVKDIIS        .... off
 Trust-Rad. Augm. Hess. CNVTRAH         .... auto
   Auto Start mean grad. ratio tolernc. ....  1.125000
   Auto Start start iteration           ....     1
   Auto Start num. interpolation iter.  ....    10
   Max. Number of Micro iterations      ....    24
   Max. Number of Macro iterations      .... Maxiter - #DIIS iter
   Number of Davidson start vectors     ....     2
   Converg. threshold    (grad. norm)   ....   1.000e-04
   Grad. Scal. Fac. for Micro threshold ....   0.100
   Minimum threshold for Micro iter.    ....   1.000e-02
   NR start threshold (gradient norm)   ....   1.000e-04
   Initial trust radius                 ....   0.400
   Minimum AH scaling param. (alpha)    ....   1.000
   Maximum AH scaling param. (alpha)    .... 1000.000
   Quad. conv. algorithm                .... NR
   White noise on init. David. guess    .... on
   Maximum white noise                  ....   0.010
   Pseudo random numbers                .... off
   Inactive MOs                         .... canonical
   Orbital update algorithm             .... Taylor
   Preconditioner                       .... Diag
   Full preconditioner red. dimension   ....   250
 SOSCF                  CNVSOSCF        .... on
   Start iteration      SOSCFMaxIt      ....   150
   Startup grad/error   SOSCFStart      ....  0.003300
   Hessian update       SOSCFHessUp     .... L-BFGS
 Level Shifting         CNVShift        .... on
   Level shift para.    LevelShift      ....    0.2500
   Turn off err/grad.   ShiftErr        ....    0.0010
 Zerner damping         CNVZerner       .... off
 Static damping         CNVDamp         .... on
   Fraction old density DampFac         ....    0.7000
   Max. Damping (<1)    DampMax         ....    0.9800
   Min. Damping (>=0)   DampMin         ....    0.0000
   Turn off err/grad.   DampErr         ....    0.1000

SCF Procedure:
 Maximum # iterations   MaxIter         ....   125
 SCF integral mode      SCFMode         .... Direct
   Integral package                     .... SHARK and LIBINT hybrid scheme
 Reset frequency        DirectResetFreq ....    20
 Integral Threshold     Thresh          ....  3.000e-11 Eh
 Primitive CutOff       TCut            ....  1.000e-12 Eh

Convergence Tolerance:
 Convergence Check Mode ConvCheckMode   .... Total+1el-Energy
 Convergence forced     ConvForced      .... 0
 Energy Change          TolE            ....  1.000e-07 Eh
 1-El. energy change                    ....  1.000e-04 Eh
 Orbital Gradient       TolG            ....  1.000e-04
 Orbital Rotation angle TolX            ....  1.000e-04
 DIIS Error             TolErr          ....  1.000e-07

---------------------
INITIAL GUESS: MOREAD
---------------------
Guess MOs are being read from file: sp.ges
Input Geometry matches current geometry (good)
Atom 0: N(Shells)= 11 and 9 - projection required
Input basis set needs projection
NBasis(read)= 202
NBasis(calc)= 302
Basis set overlap was calculated
Using GuessMode=FMatrix for the initial guess
C*T matrix was formed
Effective Fockian was calculated
Effective Fockian was diagonalized
Initial density was built
                      ------------------
                      INITIAL GUESS DONE (   0.0 sec)
                      ------------------
             **** ENERGY FILE WAS UPDATED (sp.en.tmp) ****
Finished Guess after   0.1 sec
Maximum memory used throughout the entire GUESS-calculation: 28.8 MB

-------------------------------------------------------------------------------------------
                                      ORCA LEAN-SCF
                              memory conserving SCF solver
-------------------------------------------------------------------------------------------

----------------------------------------D-I-I-S--------------------------------------------
Iteration    Energy (Eh)           Delta-E    RMSDP     MaxDP     DIISErr   Damp  Time(sec)
-------------------------------------------------------------------------------------------
               ***  Starting incremental Fock matrix formation  ***
    1    -327.1416120427538203     0.00e+00  1.18e-03  2.38e-02  4.77e-02  0.700  11.5
    2    -327.1463920357987831    -4.78e-03  1.00e-03  2.15e-02  3.49e-02  0.700   5.6
                               ***Turning on AO-DIIS***
    3    -327.1499910703686851    -3.60e-03  8.25e-04  1.88e-02  2.51e-02  0.700   5.6
    4    -327.1526352245006706    -2.64e-03  2.05e-03  4.87e-02  1.77e-02  0.000   5.4
                              *** Initializing SOSCF ***
---------------------------------------S-O-S-C-F--------------------------------------
Iteration    Energy (Eh)           Delta-E    RMSDP     MaxDP     MaxGrad    Time(sec)
--------------------------------------------------------------------------------------
    5    -327.1593296506665070    -6.69e-03  9.56e-05  3.60e-03  7.93e-04     5.6
               *** Restarting incremental Fock matrix formation ***
    6    -327.1593341435258822    -4.49e-06  5.51e-05  2.29e-03  3.64e-04    11.6
    7    -327.1593383683054412    -4.22e-06  2.99e-05  1.18e-03  1.16e-04     8.8
    8    -327.1593389863709831    -6.18e-07  3.99e-06  1.98e-04  9.06e-05     8.5
    9    -327.1593390642441932    -7.79e-08  2.65e-06  1.15e-04  3.34e-05     7.7
                 **** Energy Check signals convergence ****

               *****************************************************
               *                     SUCCESS                       *
               *           SCF CONVERGED AFTER   9 CYCLES          *
               *****************************************************


------------------
NL GRID GENERATION
------------------

General Integration Accuracy     IntAcc      ... 4.004
Radial Grid Type                 RadialGrid  ... OptM3 with GC (2021)
Angular Grid (max. ang.)         AngularGrid ... 2 (Lebedev-110)
Angular grid pruning method      GridPruning ... 4 (adaptive)
Weight generation scheme         WeightScheme... mBecke (2022)
Basis function cutoff            BFCut       ... 1.0000e-10
Integration weight cutoff        WCut        ... 1.0000e-14
Partially contracted basis set               ... off
Rotationally invariant grid construction     ... off
Angular grids for H and He will be reduced by one unit

Total number of grid points                  ...    23944
Total number of batches                      ...      385
Average number of points per batch           ...       62
Average number of grid points per atom       ...     1408
Final grid set up in    0.1 sec

-------------------------------------------------------------------------------
                    post-SCF DFT-NL dispersion correction                      
-------------------------------------------------------------------------------

SCF Energy:     -327.159339064 
NL    Energy:      0.219992612 
SC+NL Energy:   -326.939346453 
NL done in  :              1.9 sec
-------------------------------------------------------------------------------
Recomputing exchange energy using gridx3       ... done (   21.735 sec)
Old exchange energy                            :    -15.236195552 Eh
New exchange energy                            :    -15.236192483 Eh
Exchange energy change after final integration :      0.000003068 Eh
Total energy after final integration           :   -326.939343384 Eh
             **** ENERGY FILE WAS UPDATED (sp.en.tmp) ****

----------------
TOTAL SCF ENERGY
----------------

Total Energy       :       -326.93934338419854 Eh           -8896.47182 eV

Components:
Nuclear Repulsion  :        348.50915409444639 Eh            9483.41621 eV
Electronic Energy  :       -675.66849315869058 Eh          -18385.87442 eV
One Electron Energy:      -1130.16852929003767 Eh          -30753.44916 eV
Two Electron Energy:        454.50003613134703 Eh           12367.57474 eV

Virial components:
Potential Energy   :       -652.53230929624669 Eh          -17756.30685 eV
Kinetic Energy     :        325.59296591204821 Eh            8859.83503 eV
Virial Ratio       :          2.00413515528009

DFT components:
N(Alpha)           :       29.000003553556 electrons
N(Beta)            :       29.000003553556 electrons
N(Total)           :       58.000007107112 electrons
E(X)               :      -30.844292398272 Eh       
E(C)               :       -2.370869121418 Eh       
NL Energy, E(C,NL) :        0.219992611643 Eh       
E(XC)              :      -32.995168908047 Eh       

---------------
SCF CONVERGENCE
---------------

  Last Energy change         ...    7.7873e-08  Tolerance :   1.0000e-07
  Last MAX-Density change    ...    1.1527e-04  Tolerance :   1.0000e-05
  Last RMS-Density change    ...    2.6520e-06  Tolerance :   1.0000e-06
  Last DIIS Error            ...    7.9297e-04  Tolerance :   1.0000e-07
  Last Orbital Gradient      ...    3.3413e-05  Tolerance :   1.0000e-04
  Last Orbital Rotation      ...    5.4902e-05  Tolerance :   1.0000e-04


----------------
ORBITAL ENERGIES
----------------

  NO   OCC          E(Eh)            E(eV) 
   0   2.0000     -14.401878      -391.8950 
   1   2.0000     -10.301348      -280.3139 
   2   2.0000     -10.301135      -280.3081 
   3   2.0000     -10.299776      -280.2712 
   4   2.0000     -10.287739      -279.9436 
   5   2.0000     -10.278438      -279.6905 
   6   2.0000     -10.276241      -279.6307 
   7   2.0000     -10.276166      -279.6287 
   8   2.0000      -1.074478       -29.2380 
   9   2.0000      -0.964913       -26.2566 
  10   2.0000      -0.912039       -24.8178 
  11   2.0000      -0.852469       -23.1969 
  12   2.0000      -0.823919       -22.4200 
  13   2.0000      -0.741762       -20.1844 
  14   2.0000      -0.715722       -19.4758 
  15   2.0000      -0.618571       -16.8322 
  16   2.0000      -0.615521       -16.7492 
  17   2.0000      -0.567896       -15.4532 
  18   2.0000      -0.560526       -15.2527 
  19   2.0000      -0.526291       -14.3211 
  20   2.0000      -0.524696       -14.2777 
  21   2.0000      -0.515417       -14.0252 
  22   2.0000      -0.503470       -13.7001 
  23   2.0000      -0.495153       -13.4738 
  24   2.0000      -0.489564       -13.3217 
  25   2.0000      -0.453983       -12.3535 
  26   2.0000      -0.366676        -9.9778 
  27   2.0000      -0.358901        -9.7662 
  28   2.0000      -0.346026        -9.4158 
  29   0.0000       0.051241         1.3943 
  30   0.0000       0.068892         1.8746 
  31   0.0000       0.105774         2.8782 
  32   0.0000       0.136047         3.7020 
  33   0.0000       0.148022         4.0279 
  34   0.0000       0.168661         4.5895 
  35   0.0000       0.176513         4.8032 
  36   0.0000       0.178492         4.8570 
  37   0.0000       0.190930         5.1955 
  38   0.0000       0.192885         5.2487 
  39   0.0000       0.203314         5.5325 
*Only the first 10 virtual orbitals were printed.

                    ********************************
                    * MULLIKEN POPULATION ANALYSIS *
                    ********************************

-----------------------
MULLIKEN ATOMIC CHARGES
-----------------------
   0 C :   -0.382376
   1 C :    0.013889
   2 C :   -0.128269
   3 C :   -0.050953
   4 N :   -0.219152
   5 C :   -0.104230
   6 C :    0.124163
   7 C :   -0.379759
   8 H :    0.132771
   9 H :    0.132829
  10 H :    0.129223
  11 H :    0.118474
  12 H :    0.118735
  13 H :    0.109409
  14 H :    0.132148
  15 H :    0.121063
  16 H :    0.132036
Sum of atomic charges:   -0.0000000

--------------------------------
MULLIKEN REDUCED ORBITAL CHARGES
--------------------------------
  0 C s       :     3.286255  s :     3.286255
      pz      :     1.066527  p :     3.039834
      px      :     0.928399
      py      :     1.044909
      dz2     :     0.005565  d :     0.053067
      dxz     :     0.009774
      dyz     :     0.013658
      dx2y2   :     0.013059
      dxy     :     0.011010
      f0      :     0.000276  f :     0.003221
      f+1     :     0.000016
      f-1     :     0.000992
      f+2     :     0.000068
      f-2     :     0.000279
      f+3     :     0.000808
      f-3     :     0.000782

  1 C s       :     3.229701  s :     3.229701
      pz      :     0.879134  p :     2.601484
      px      :     0.861750
      py      :     0.860599
      dz2     :     0.004799  d :     0.144900
      dxz     :     0.022650
      dyz     :     0.026164
      dx2y2   :     0.042648
      dxy     :     0.048639
      f0      :     0.001683  f :     0.010027
      f+1     :     0.000727
      f-1     :     0.000646
      f+2     :     0.000958
      f-2     :     0.001125
      f+3     :     0.003520
      f-3     :     0.001368

  2 C s       :     3.153966  s :     3.153966
      pz      :     1.006098  p :     2.886497
      px      :     0.929697
      py      :     0.950702
      dz2     :     0.005202  d :     0.080329
      dxz     :     0.019701
      dyz     :     0.004718
      dx2y2   :     0.034237
      dxy     :     0.016471
      f0      :     0.001586  f :     0.007477
      f+1     :     0.000618
      f-1     :     0.000704
      f+2     :     0.000214
      f-2     :     0.001019
      f+3     :     0.002268
      f-3     :     0.001068

  3 C s       :     3.193633  s :     3.193633
      pz      :     0.918524  p :     2.737595
      px      :     0.962226
      py      :     0.856845
      dz2     :     0.002642  d :     0.109306
      dxz     :     0.010875
      dyz     :     0.026474
      dx2y2   :     0.027084
      dxy     :     0.042232
      f0      :     0.001883  f :     0.010419
      f+1     :     0.000656
      f-1     :     0.000945
      f+2     :     0.001416
      f-2     :     0.000457
      f+3     :     0.003373
      f-3     :     0.001689

  4 N s       :     3.519033  s :     3.519033
      pz      :     1.096241  p :     3.629411
      px      :     1.410002
      py      :     1.123167
      dz2     :     0.006378  d :     0.066822
      dxz     :     0.011176
      dyz     :     0.012784
      dx2y2   :     0.020240
      dxy     :     0.016244
      f0      :     0.000631  f :     0.003886
      f+1     :     0.000243
      f-1     :     0.000323
      f+2     :     0.000536
      f-2     :     0.000354
      f+3     :     0.001028
      f-3     :     0.000772

  5 C s       :     3.218499  s :     3.218499
      pz      :     0.927829  p :     2.761847
      px      :     0.856212
      py      :     0.977806
      dz2     :     0.002786  d :     0.113345
      dxz     :     0.030534
      dyz     :     0.006700
      dx2y2   :     0.049112
      dxy     :     0.024212
      f0      :     0.001863  f :     0.010539
      f+1     :     0.000896
      f-1     :     0.000700
      f+2     :     0.000439
      f-2     :     0.001448
      f+3     :     0.003411
      f-3     :     0.001783

  6 C s       :     3.112930  s :     3.112930
      pz      :     0.949708  p :     2.613981
      px      :     0.832214
      py      :     0.832059
      dz2     :     0.006090  d :     0.139025
      dxz     :     0.023492
      dyz     :     0.018844
      dx2y2   :     0.044422
      dxy     :     0.046177
      f0      :     0.001705  f :     0.009901
      f+1     :     0.000772
      f-1     :     0.000658
      f+2     :     0.000996
      f-2     :     0.000868
      f+3     :     0.003411
      f-3     :     0.001490

  7 C s       :     3.277805  s :     3.277805
      pz      :     1.051438  p :     3.041816
      px      :     0.963132
      py      :     1.027246
      dz2     :     0.006172  d :     0.056809
      dxz     :     0.021966
      dyz     :     0.004062
      dx2y2   :     0.017005
      dxy     :     0.007605
      f0      :     0.000311  f :     0.003328
      f+1     :     0.000934
      f-1     :     0.000108
      f+2     :    -0.000003
      f-2     :     0.000402
      f+3     :     0.000959
      f-3     :     0.000618

  8 H s       :     0.846036  s :     0.846036
      pz      :     0.009635  p :     0.021193
      px      :     0.004168
      py      :     0.007390

  9 H s       :     0.845976  s :     0.845976
      pz      :     0.009666  p :     0.021195
      px      :     0.004170
      py      :     0.007359

 10 H s       :     0.848918  s :     0.848918
      pz      :     0.004343  p :     0.021859
      px      :     0.010288
      py      :     0.007228

 11 H s       :     0.859472  s :     0.859472
      pz      :     0.004630  p :     0.022053
      px      :     0.003531
      py      :     0.013892

 12 H s       :     0.859953  s :     0.859953
      pz      :     0.004090  p :     0.021312
      px      :     0.011931
      py      :     0.005290

 13 H s       :     0.869291  s :     0.869291
      pz      :     0.004071  p :     0.021300
      px      :     0.002919
      py      :     0.014310

 14 H s       :     0.846984  s :     0.846984
      pz      :     0.009559  p :     0.020868
      px      :     0.007035
      py      :     0.004274

 15 H s       :     0.857341  s :     0.857341
      pz      :     0.004285  p :     0.021597
      px      :     0.004523
      py      :     0.012789

 16 H s       :     0.847092  s :     0.847092
      pz      :     0.009519  p :     0.020872
      px      :     0.007067
      py      :     0.004285


------------------------
MULLIKEN OVERLAP CHARGES
------------------------
B(  0-C ,  1-C ) :   0.6332 B(  0-C ,  2-C ) :  -0.1471 B(  0-C ,  6-C ) :  -0.1641 
B(  0-C ,  8-H ) :   0.8222 B(  0-C ,  9-H ) :   0.8219 B(  0-C , 10-H ) :   0.8856 
B(  1-C ,  2-C ) :   0.8276 B(  1-C ,  3-C ) :   0.0646 B(  1-C ,  4-N ) :  -0.2363 
B(  1-C ,  6-C ) :   0.7199 B(  1-C ,  7-C ) :  -0.2237 B(  1-C ,  8-H ) :  -0.0819 
B(  1-C ,  9-H ) :  -0.0816 B(  1-C , 10-H ) :  -0.1144 B(  1-C , 11-H ) :  -0.1622 
B(  2-C ,  3-C ) :   1.0027 B(  2-C ,  4-N ) :  -0.0679 B(  2-C ,  5-C ) :  -0.0680 
B(  2-C ,  6-C ) :  -0.0855 B(  2-C , 11-H ) :   0.8477 B(  2-C , 12-H ) :  -0.1315 
B(  3-C ,  4-N ) :   1.0414 B(  3-C ,  5-C ) :  -0.1821 B(  3-C ,  6-C ) :  -0.1181 
B(  3-C , 11-H ) :  -0.0743 B(  3-C , 12-H ) :   0.8697 B(  4-N ,  5-C ) :   1.0783 
B(  4-N , 12-H ) :  -0.0571 B(  4-N , 13-H ) :  -0.0564 B(  5-C ,  6-C ) :   1.0118 
B(  5-C ,  7-C ) :  -0.0888 B(  5-C , 13-H ) :   0.8854 B(  6-C ,  7-C ) :   0.5534 
B(  6-C , 13-H ) :  -0.1645 B(  6-C , 14-H ) :  -0.0867 B(  6-C , 15-H ) :  -0.1018 
B(  6-C , 16-H ) :  -0.0874 B(  7-C , 14-H ) :   0.8457 B(  7-C , 15-H ) :   0.8229 
B(  7-C , 16-H ) :   0.8467 B(  8-H ,  9-H ) :  -0.0543 B( 14-H , 16-H ) :  -0.0771 



                     *******************************
                     * LOEWDIN POPULATION ANALYSIS *
                     *******************************

----------------------
LOEWDIN ATOMIC CHARGES
----------------------
   0 C :   -0.243420
   1 C :   -0.129630
   2 C :   -0.128647
   3 C :   -0.208894
   4 N :    0.117977
   5 C :   -0.182927
   6 C :   -0.157162
   7 C :   -0.254324
   8 H :    0.132074
   9 H :    0.132105
  10 H :    0.125846
  11 H :    0.145780
  12 H :    0.134049
  13 H :    0.136327
  14 H :    0.126822
  15 H :    0.127259
  16 H :    0.126766

-------------------------------
LOEWDIN REDUCED ORBITAL CHARGES
-------------------------------
  0 C s       :     2.811242  s :     2.811242
      pz      :     1.072099  p :     3.159796
      px      :     1.035553
      py      :     1.052144
      dz2     :     0.034164  d :     0.247884
      dxz     :     0.029846
      dyz     :     0.062442
      dx2y2   :     0.054977
      dxy     :     0.066455
      f0      :     0.001848  f :     0.024498
      f+1     :     0.002892
      f-1     :     0.003834
      f+2     :     0.003931
      f-2     :     0.001896
      f+3     :     0.005444
      f-3     :     0.004654

  1 C s       :     2.711284  s :     2.711284
      pz      :     0.800417  p :     2.834969
      px      :     1.007797
      py      :     1.026755
      dz2     :     0.032438  d :     0.525826
      dxz     :     0.073526
      dyz     :     0.078982
      dx2y2   :     0.163211
      dxy     :     0.177669
      f0      :     0.004020  f :     0.057551
      f+1     :     0.003888
      f-1     :     0.004027
      f+2     :     0.006730
      f-2     :     0.007185
      f+3     :     0.022930
      f-3     :     0.008770

  2 C s       :     2.759819  s :     2.759819
      pz      :     0.908163  p :     2.953898
      px      :     1.058159
      py      :     0.987576
      dz2     :     0.026649  d :     0.372396
      dxz     :     0.069298
      dyz     :     0.012185
      dx2y2   :     0.163132
      dxy     :     0.101131
      f0      :     0.003040  f :     0.042535
      f+1     :     0.004311
      f-1     :     0.003230
      f+2     :     0.001294
      f-2     :     0.007279
      f+3     :     0.015302
      f-3     :     0.008078

  3 C s       :     2.777082  s :     2.777082
      pz      :     0.858677  p :     2.877218
      px      :     1.028156
      py      :     0.990385
      dz2     :     0.031668  d :     0.492919
      dxz     :     0.031100
      dyz     :     0.079173
      dx2y2   :     0.140234
      dxy     :     0.210743
      f0      :     0.004170  f :     0.061676
      f+1     :     0.003526
      f-1     :     0.006149
      f+2     :     0.009282
      f-2     :     0.002965
      f+3     :     0.024860
      f-3     :     0.010724

  4 N s       :     3.044475  s :     3.044475
      pz      :     1.009468  p :     3.600846
      px      :     1.368611
      py      :     1.222767
      dz2     :     0.017787  d :     0.218254
      dxz     :     0.019863
      dyz     :     0.039096
      dx2y2   :     0.072322
      dxy     :     0.069186
      f0      :     0.001106  f :     0.018448
      f+1     :     0.001019
      f-1     :     0.001746
      f+2     :     0.002683
      f-2     :     0.001255
      f+3     :     0.006756
      f-3     :     0.003883

  5 C s       :     2.770709  s :     2.770709
      pz      :     0.860475  p :     2.860304
      px      :     1.021299
      py      :     0.978531
      dz2     :     0.032591  d :     0.491323
      dxz     :     0.093181
      dyz     :     0.013994
      dx2y2   :     0.231811
      dxy     :     0.119747
      f0      :     0.004086  f :     0.060590
      f+1     :     0.006026
      f-1     :     0.003508
      f+2     :     0.002076
      f-2     :     0.009826
      f+3     :     0.024136
      f-3     :     0.010932

  6 C s       :     2.712707  s :     2.712707
      pz      :     0.851897  p :     2.881557
      px      :     1.012713
      py      :     1.016946
      dz2     :     0.033337  d :     0.506622
      dxz     :     0.072125
      dyz     :     0.065750
      dx2y2   :     0.158194
      dxy     :     0.177216
      f0      :     0.004046  f :     0.056277
      f+1     :     0.004030
      f-1     :     0.004141
      f+2     :     0.006787
      f-2     :     0.006105
      f+3     :     0.021581
      f-3     :     0.009586

  7 C s       :     2.812279  s :     2.812279
      pz      :     1.067571  p :     3.160707
      px      :     1.040572
      py      :     1.052564
      dz2     :     0.033882  d :     0.256490
      dxz     :     0.089195
      dyz     :     0.012236
      dx2y2   :     0.076500
      dxy     :     0.044676
      f0      :     0.002045  f :     0.024848
      f+1     :     0.003985
      f-1     :     0.002665
      f+2     :     0.001881
      f-2     :     0.004057
      f+3     :     0.006324
      f-3     :     0.003892

  8 H s       :     0.807469  s :     0.807469
      pz      :     0.027487  p :     0.060457
      px      :     0.012410
      py      :     0.020559

  9 H s       :     0.807437  s :     0.807437
      pz      :     0.027564  p :     0.060458
      px      :     0.012416
      py      :     0.020479

 10 H s       :     0.812675  s :     0.812675
      pz      :     0.013536  p :     0.061480
      px      :     0.026404
      py      :     0.021539

 11 H s       :     0.795865  s :     0.795865
      pz      :     0.013648  p :     0.058355
      px      :     0.010556
      py      :     0.034152

 12 H s       :     0.809309  s :     0.809309
      pz      :     0.011963  p :     0.056642
      px      :     0.030175
      py      :     0.014504

 13 H s       :     0.807286  s :     0.807286
      pz      :     0.012097  p :     0.056387
      px      :     0.008646
      py      :     0.035645

 14 H s       :     0.812945  s :     0.812945
      pz      :     0.027715  p :     0.060233
      px      :     0.018994
      py      :     0.013525

 15 H s       :     0.812758  s :     0.812758
      pz      :     0.013126  p :     0.059983
      px      :     0.013663
      py      :     0.033194

 16 H s       :     0.812997  s :     0.812997
      pz      :     0.027608  p :     0.060237
      px      :     0.019071
      py      :     0.013558


---------------------------------
LOEWDIN BOND ORDERS (THRESH 0.050000)
---------------------------------
B(  0-C ,  1-C ) :   1.2033 B(  0-C ,  2-C ) :   0.1775 B(  0-C ,  6-C ) :   0.1587 
B(  0-C ,  8-H ) :   0.8897 B(  0-C ,  9-H ) :   0.8896 B(  0-C , 10-H ) :   0.8904 
B(  1-C ,  2-C ) :   1.4793 B(  1-C ,  3-C ) :   0.2479 B(  1-C ,  4-N ) :   0.0835 
B(  1-C ,  5-C ) :   0.2426 B(  1-C ,  6-C ) :   1.4043 B(  1-C ,  7-C ) :   0.1604 
B(  1-C ,  8-H ) :   0.0833 B(  1-C ,  9-H ) :   0.0834 B(  1-C , 10-H ) :   0.0785 
B(  1-C , 11-H ) :   0.0925 B(  2-C ,  3-C ) :   1.6098 B(  2-C ,  4-N ) :   0.1949 
B(  2-C ,  5-C ) :   0.1243 B(  2-C ,  6-C ) :   0.2327 B(  2-C , 11-H ) :   0.8224 
B(  2-C , 12-H ) :   0.0972 B(  3-C ,  4-N ) :   1.7699 B(  3-C ,  5-C ) :   0.3110 
B(  3-C ,  6-C ) :   0.1132 B(  3-C , 11-H ) :   0.0974 B(  3-C , 12-H ) :   0.8511 
B(  4-N ,  5-C ) :   1.7927 B(  4-N ,  6-C ) :   0.1849 B(  4-N , 12-H ) :   0.0761 
B(  4-N , 13-H ) :   0.0765 B(  5-C ,  6-C ) :   1.4922 B(  5-C ,  7-C ) :   0.1826 
B(  5-C , 13-H ) :   0.8406 B(  6-C ,  7-C ) :   1.2094 B(  6-C , 13-H ) :   0.0938 
B(  6-C , 14-H ) :   0.0798 B(  6-C , 15-H ) :   0.0829 B(  6-C , 16-H ) :   0.0798 
B(  7-C , 14-H ) :   0.8934 B(  7-C , 15-H ) :   0.8893 B(  7-C , 16-H ) :   0.8934 


------------------------------------------
LOEWDIN REDUCED ORBITAL POPULATIONS PER MO
-------------------------------------------
THRESHOLD FOR PRINTING IS 0.1%%
                      0         1         2         3         4         5   
                 -14.40188 -10.30135 -10.30113 -10.29978 -10.28774 -10.27844
                   2.00000   2.00000   2.00000   2.00000   2.00000   2.00000
                  --------  --------  --------  --------  --------  --------
 0 C  s               0.0       0.0       0.0       0.0       0.0      99.4
 0 C  dxy             0.0       0.0       0.0       0.1       0.0       0.0
 1 C  s               0.0       0.0       0.0      98.6       0.1       0.0
 1 C  py              0.0       0.0       0.0       0.0       0.1       0.0
 1 C  dx2y2           0.0       0.0       0.0       0.0       0.2       0.0
 1 C  dxy             0.0       0.0       0.0       0.0       0.0       0.1
 2 C  px              0.0       0.1       0.0       0.1       0.0       0.0
 2 C  dxy             0.0       0.2       0.0       0.2       0.0       0.0
 3 C  s               0.0      98.7       0.1       0.0       0.0       0.0
 3 C  dx2y2           0.1       0.0       0.0       0.0       0.0       0.0
 4 N  s              99.3       0.0       0.0       0.0       0.0       0.0
 4 N  px              0.0       0.0       0.1       0.0       0.0       0.0
 4 N  py              0.0       0.1       0.0       0.0       0.0       0.0
 4 N  dx2y2           0.0       0.2       0.0       0.0       0.0       0.0
 4 N  dxy             0.0       0.0       0.1       0.0       0.0       0.0
 5 C  s               0.0       0.1      98.7       0.0       0.1       0.0
 5 C  px              0.1       0.0       0.0       0.0       0.1       0.0
 5 C  dxy             0.1       0.0       0.0       0.0       0.1       0.0
 6 C  s               0.0       0.0       0.1       0.1      98.5       0.0
 6 C  px              0.0       0.0       0.1       0.0       0.0       0.0
 6 C  py              0.0       0.0       0.0       0.1       0.0       0.0
 6 C  dx2y2           0.0       0.0       0.1       0.2       0.0       0.0
 6 C  dxy             0.0       0.0       0.1       0.0       0.0       0.0
 7 C  dxy             0.0       0.0       0.0       0.0       0.1       0.0

                      6         7         8         9        10        11   
                 -10.27624 -10.27617  -1.07448  -0.96491  -0.91204  -0.85247
                   2.00000   2.00000   2.00000   2.00000   2.00000   2.00000
                  --------  --------  --------  --------  --------  --------
 0 C  s               0.0       0.0       0.3       8.5       2.3      20.5
 0 C  px              0.0       0.0       0.3       1.9       0.5       0.1
 0 C  py              0.0       0.0       0.1       0.9       0.1       0.0
 0 C  dz2             0.0       0.0       0.0       0.2       0.0       0.0
 0 C  dx2y2           0.0       0.0       0.0       0.1       0.1       0.0
 0 C  dxy             0.0       0.0       0.0       0.4       0.0       0.0
 1 C  s               0.0       0.0       3.1      19.3       2.3       0.6
 1 C  px              0.1       0.0       1.2       0.3       1.0       9.8
 1 C  py              0.0       0.0       0.4       0.1       7.5       1.5
 1 C  dz2             0.1       0.0       0.2       0.8       0.1       0.0
 1 C  dx2y2           0.1       0.0       0.0       0.1       1.2       0.0
 1 C  dxy             0.2       0.0       0.0       0.0       0.1       1.8
 1 C  f-3             0.1       0.0       0.0       0.2       0.0       0.0
 2 C  s              98.7       0.0       4.2       5.0      12.4       6.6
 2 C  px              0.0       0.0       0.3       4.4       0.1       3.7
 2 C  py              0.0       0.0       2.4       0.3       0.2       0.2
 2 C  dz2             0.0       0.0       0.3       0.2       0.3       0.1
 2 C  dx2y2           0.0       0.0       0.0       0.2       0.4       0.0
 2 C  dxy             0.0       0.0       0.2       0.8       0.1       0.1
 2 C  f-3             0.0       0.0       0.0       0.0       0.1       0.1
 3 C  s               0.0       0.0      12.6       0.6       7.0       5.1
 3 C  px              0.1       0.0       0.7       1.7       1.0       1.1
 3 C  py              0.0       0.0       5.3       2.9       1.8       3.7
 3 C  dz2             0.1       0.0       0.9       0.0       0.1       0.0
 3 C  dx2y2           0.1       0.0       0.9       1.1       0.2       0.5
 3 C  dxy             0.2       0.0       0.0       0.0       0.5       0.3
 3 C  f-3             0.1       0.0       0.3       0.0       0.1       0.0
 4 N  s               0.0       0.0      28.2       6.8       0.1       2.4
 4 N  px              0.0       0.0       3.1       0.2       1.1       0.4
 4 N  py              0.0       0.0       0.9       0.1       4.1       2.9
 4 N  dz2             0.0       0.0       0.4       0.0       0.0       0.0
 4 N  dx2y2           0.0       0.0       0.0       0.1       0.4       0.1
 4 N  dxy             0.0       0.0       0.1       0.1       0.2       0.2
 5 C  s               0.0       0.0      12.9       0.1       8.3       1.1
 5 C  px              0.0       0.0       2.3       7.4       1.7       3.2
 5 C  py              0.0       0.0       3.6       0.1       0.3       0.1
 5 C  dz2             0.0       0.0       0.9       0.0       0.1       0.0
 5 C  dx2y2           0.0       0.0       0.2       0.0       0.6       0.0
 5 C  dxy             0.0       0.0       0.8       1.4       0.1       0.2
 5 C  f-3             0.0       0.0       0.3       0.0       0.1       0.0
 6 C  s               0.0       0.0       4.4      12.2       8.5       1.0
 6 C  px              0.0       0.1       2.3       1.2       0.1       0.4
 6 C  py              0.0       0.0       0.1       1.9       6.1       0.7
 6 C  dz2             0.0       0.0       0.4       0.5       0.2       0.0
 6 C  dx2y2           0.0       0.0       0.1       0.6       0.6       0.0
 6 C  dxy             0.0       0.1       0.0       0.0       0.0       1.0
 6 C  f-3             0.0       0.0       0.0       0.1       0.1       0.0
 7 C  s               0.0      99.4       0.4       5.2      10.4       4.5
 7 C  px              0.0       0.0       0.4       0.9       1.1       0.0
 7 C  py              0.0       0.0       0.1       1.1       0.1       0.1
 7 C  dz2             0.0       0.0       0.0       0.1       0.1       0.0
 7 C  dx2y2           0.0       0.0       0.0       0.0       0.1       0.0
 7 C  dxy             0.0       0.0       0.0       0.3       0.1       0.0
 8 H  s               0.0       0.0       0.1       1.5       0.6       5.6
 8 H  pz              0.0       0.0       0.0       0.1       0.0       0.4
 8 H  py              0.0       0.0       0.0       0.1       0.0       0.2
 9 H  s               0.0       0.0       0.1       1.5       0.6       5.6
 9 H  pz              0.0       0.0       0.0       0.1       0.0       0.4
 9 H  py              0.0       0.0       0.0       0.1       0.0       0.2
10 H  s               0.0       0.0       0.1       1.8       0.2       5.4
10 H  px              0.0       0.0       0.0       0.1       0.0       0.4
10 H  py              0.0       0.0       0.0       0.0       0.0       0.2
11 H  s               0.0       0.0       0.4       0.9       2.7       1.3
11 H  py              0.0       0.0       0.0       0.1       0.3       0.1
12 H  s               0.0       0.0       1.4       0.1       1.4       1.4
12 H  px              0.0       0.0       0.0       0.0       0.1       0.2
13 H  s               0.0       0.0       1.4       0.0       2.1       0.3
13 H  py              0.0       0.0       0.1       0.0       0.2       0.0
14 H  s               0.0       0.1       0.1       1.0       2.1       1.1
14 H  pz              0.0       0.0       0.0       0.1       0.1       0.1
15 H  s               0.0       0.1       0.1       0.9       2.6       1.3
15 H  py              0.0       0.0       0.0       0.1       0.2       0.1
16 H  s               0.0       0.1       0.1       1.0       2.1       1.1
16 H  pz              0.0       0.0       0.0       0.1       0.1       0.1

                     12        13        14        15        16        17   
                  -0.82392  -0.74176  -0.71572  -0.61857  -0.61552  -0.56790
                   2.00000   2.00000   2.00000   2.00000   2.00000   2.00000
                  --------  --------  --------  --------  --------  --------
 0 C  s               4.7       1.0       2.7       0.6       0.1       0.0
 0 C  px              0.7       0.2       4.0      11.3       0.4       0.5
 0 C  py              0.0       2.1       0.5       0.8       7.3       0.7
 0 C  dz2             0.0       0.1       0.1       0.1       0.1       0.0
 0 C  dx2y2           0.0       0.1       0.3       0.1       0.1       0.1
 0 C  dxy             0.1       0.3       0.1       0.4       0.0       0.1
 1 C  s               1.3       2.6       3.5       1.9       0.1       2.0
 1 C  px              4.7       0.9       1.4       2.2       5.2       0.3
 1 C  py              0.8      10.9       2.0       3.2       6.6       0.2
 1 C  dz2             0.0       0.0       0.0       0.0       0.0       0.2
 1 C  dx2y2           0.2       0.5       0.0       0.6       0.1       1.4
 1 C  dxy             0.0       0.1       1.1       0.2       0.3       0.7
 2 C  s               0.6       7.0       0.6       0.2       0.1       1.1
 2 C  px              2.2       0.3      11.9       4.7       9.2       0.1
 2 C  py              0.2       4.3       0.0       6.0       1.0      21.0
 2 C  dx2y2           0.1       0.0       0.1       0.4       0.0       2.8
 2 C  dxy             0.7       0.1       0.5       0.1       0.1       0.0
 3 C  s               4.3       0.3       6.5       0.4       0.4       1.5
 3 C  px              2.1       2.5       1.5      18.1       0.1       0.3
 3 C  py              0.7       6.1       3.4       0.2      11.3       1.3
 3 C  dx2y2           0.3       0.1       0.1       0.1       0.1       1.8
 3 C  dxy             0.0       0.2       0.0       0.0       0.0       0.7
 3 C  f+3             0.0       0.1       0.0       0.0       0.1       0.1
 4 N  s               1.4       0.3       3.0       1.1       0.1       1.3
 4 N  px              2.9       2.3       0.6       8.5       0.9       0.1
 4 N  py              4.8       8.3       3.3       0.1      11.9       0.1
 4 N  dx2y2           0.6       0.1       0.1       0.3       0.0       0.2
 4 N  dxy             0.0       0.2       0.0       0.6       0.3       0.1
 5 C  s               5.6       6.3       1.6       0.5       0.1       0.9
 5 C  px              0.8       0.7      12.3       0.2      10.8       0.2
 5 C  py              0.1       4.6       0.4       9.0       0.9       7.2
 5 C  dx2y2           0.1       0.0       0.0       0.1       0.0       2.1
 5 C  dxy             0.8       0.1       0.5       0.0       0.1       0.1
 5 C  f+3             0.1       0.0       0.0       0.0       0.1       0.0
 6 C  s               1.1       2.9       3.1       0.1       0.0       2.7
 6 C  px             11.6       1.0       2.9       1.3       5.9       1.9
 6 C  py              1.4       9.8       3.5       0.9       6.3       1.9
 6 C  dz2             0.0       0.0       0.0       0.0       0.0       0.1
 6 C  dx2y2           0.1       0.4       0.1       0.6       0.1       1.0
 6 C  dxy             1.0       0.0       1.2       0.5       0.3       0.2
 7 C  s              15.9       1.4       2.6       0.1       0.1       0.1
 7 C  px              1.3       0.2       4.3       3.0       0.8       5.3
 7 C  py              0.1       2.3       0.3       0.1       6.4       5.9
 7 C  dz2             0.0       0.0       0.2       0.1       0.0       0.0
 7 C  dx2y2           0.1       0.1       0.3       0.0       0.1       0.1
 7 C  dxy             0.1       0.4       0.1       0.0       0.1       0.4
 8 H  s               1.4       1.0       1.5       0.8       1.2       0.1
 8 H  px              0.0       0.0       0.0       0.1       0.0       0.0
 9 H  s               1.4       1.0       1.5       0.8       1.2       0.1
 9 H  px              0.0       0.0       0.0       0.1       0.0       0.0
10 H  s               2.2       0.2       2.1       3.4       1.3       0.0
10 H  px              0.1       0.0       0.1       0.0       0.1       0.0
10 H  py              0.1       0.0       0.1       0.2       0.0       0.0
11 H  s               0.0       6.0       0.2       1.9       0.6      16.3
11 H  px              0.0       0.0       0.1       0.1       0.1       0.0
11 H  py              0.0       0.5       0.0       0.1       0.0       0.5
12 H  s               1.8       0.1       5.9       6.2       2.0       2.3
12 H  px              0.1       0.0       0.4       0.1       0.2       0.1
12 H  py              0.1       0.1       0.1       0.2       0.0       0.0
13 H  s               1.2       5.8       1.0       4.9       0.7       7.1
13 H  px              0.0       0.0       0.1       0.0       0.1       0.0
13 H  py              0.1       0.5       0.1       0.2       0.0       0.2
14 H  s               5.4       0.5       2.1       0.7       0.2       0.6
14 H  pz              0.4       0.0       0.2       0.0       0.0       0.0
14 H  px              0.1       0.0       0.0       0.0       0.0       0.0
15 H  s               4.5       1.8       0.8       0.0       3.0       2.3
15 H  px              0.1       0.0       0.1       0.0       0.0       0.1
15 H  py              0.4       0.1       0.1       0.0       0.1       0.0
16 H  s               5.4       0.5       2.1       0.7       0.2       0.6
16 H  pz              0.4       0.0       0.2       0.0       0.0       0.0
16 H  px              0.1       0.0       0.0       0.0       0.0       0.0

                     18        19        20        21        22        23   
                  -0.56053  -0.52629  -0.52470  -0.51542  -0.50347  -0.49515
                   2.00000   2.00000   2.00000   2.00000   2.00000   2.00000
                  --------  --------  --------  --------  --------  --------
 0 C  s               0.0       0.0       0.0       0.1       0.2       0.0
 0 C  pz             20.6      25.1       0.0       0.0       0.0       5.2
 0 C  px              0.0       0.0       0.8      11.3       0.2       0.0
 0 C  py              0.0       0.0       6.1       8.3      20.8       0.0
 0 C  dz2             0.0       0.0       0.1       0.3       0.4       0.0
 0 C  dxz             0.1       0.0       0.0       0.0       0.0       0.1
 0 C  dyz             0.3       1.1       0.0       0.0       0.0       0.4
 0 C  dx2y2           0.0       0.0       0.1       0.4       0.3       0.0
 0 C  dxy             0.0       0.0       0.1       1.0       0.0       0.0
 1 C  s               0.0       0.0       0.0       0.0       0.2       0.0
 1 C  pz             12.1       1.5       0.0       0.0       0.0       1.4
 1 C  px              0.0       0.0       0.2       2.6       6.9       0.0
 1 C  py              0.0       0.0       0.8       0.0       0.2       0.0
 1 C  dxz             0.1       0.5       0.0       0.0       0.0       1.0
 1 C  dyz             0.0       1.0       0.0       0.0       0.0       0.1
 1 C  dx2y2           0.0       0.0       1.6       0.1       0.6       0.0
 1 C  dxy             0.0       0.0       0.9       0.4       0.4       0.0
 1 C  f0              0.2       0.0       0.0       0.0       0.0       0.0
 1 C  f+3             0.0       0.0       0.1       0.5       0.3       0.0
 2 C  s               0.0       0.0       0.6       0.2       0.0       0.0
 2 C  pz              4.3       0.4       0.0       0.0       0.0       7.6
 2 C  px              0.0       0.0       0.5       4.3       0.9       0.0
 2 C  py              0.0       0.0       3.1       2.3       2.3       0.0
 2 C  dxz             0.1       0.1       0.0       0.0       0.0       0.3
 2 C  dyz             0.2       0.0       0.0       0.0       0.0       0.4
 2 C  dx2y2           0.0       0.0       0.0       0.8       0.0       0.0
 2 C  dxy             0.0       0.0       0.6       0.2       0.0       0.0
 2 C  f+3             0.0       0.0       0.2       0.0       0.0       0.0
 3 C  s               0.0       0.0       0.2       0.2       0.0       0.0
 3 C  pz              2.5       0.0       0.0       0.0       0.0      18.1
 3 C  px              0.0       0.0      12.8       2.3       0.1       0.0
 3 C  py              0.0       0.0       4.0       2.6       0.1       0.0
 3 C  dxz             0.1       0.0       0.0       0.0       0.0       0.2
 3 C  dyz             0.0       0.0       0.0       0.0       0.0       0.7
 3 C  dx2y2           0.0       0.0       0.1       0.0       0.2       0.0
 3 C  dxy             0.0       0.0       1.7       0.1       0.0       0.0
 3 C  f0              0.0       0.0       0.0       0.0       0.0       0.2
 3 C  f+3             0.0       0.0       0.1       0.0       0.1       0.0
 4 N  pz              2.9       0.3       0.0       0.0       0.0      25.9
 4 N  px              0.0       0.0       0.8       2.0       1.6       0.0
 4 N  py              0.0       0.0       2.6       2.5       0.2       0.0
 4 N  dxz             0.1       0.0       0.0       0.0       0.0       0.3
 4 N  dyz             0.0       0.0       0.0       0.0       0.0       0.2
 4 N  dx2y2           0.0       0.0       0.7       0.0       0.2       0.0
 4 N  dxy             0.0       0.0       0.4       0.0       0.0       0.0
 4 N  f+3             0.0       0.0       0.2       0.0       0.0       0.0
 5 C  s               0.0       0.0       0.3       0.5       0.1       0.0
 5 C  pz              4.5       0.9       0.0       0.0       0.0      13.0
 5 C  px              0.0       0.0       0.0       3.5       0.4       0.0
 5 C  py              0.0       0.0      11.2       0.6       4.2       0.0
 5 C  dz2             0.0       0.0       0.1       0.0       0.0       0.0
 5 C  dxz             0.1       0.0       0.0       0.0       0.0       0.6
 5 C  dyz             0.2       0.0       0.0       0.0       0.0       0.5
 5 C  dx2y2           0.0       0.0       0.3       0.6       0.1       0.0
 5 C  dxy             0.0       0.0       0.6       0.2       0.1       0.0
 5 C  f0              0.1       0.0       0.0       0.0       0.0       0.1
 5 C  f+3             0.0       0.0       0.2       0.0       0.0       0.0
 6 C  s               0.0       0.0       0.0       0.2       0.2       0.0
 6 C  pz             11.2       2.7       0.0       0.0       0.0       1.8
 6 C  px              0.0       0.0       8.2       5.4       3.0       0.0
 6 C  py              0.0       0.0       2.9       0.1       0.0       0.0
 6 C  dxz             0.1       0.5       0.0       0.0       0.0       1.6
 6 C  dyz             0.0       0.7       0.0       0.0       0.0       0.1
 6 C  dx2y2           0.0       0.0       0.3       0.2       0.3       0.0
 6 C  dxy             0.0       0.0       0.0       0.7       0.3       0.0
 6 C  f0              0.1       0.0       0.0       0.0       0.0       0.0
 6 C  f+3             0.0       0.0       0.0       0.2       0.6       0.0
 7 C  s               0.0       0.0       0.1       0.2       0.1       0.0
 7 C  pz             16.9      26.7       0.0       0.0       0.0       7.6
 7 C  px              0.0       0.0       8.9      13.1       1.2       0.0
 7 C  py              0.0       0.0       1.8       2.1      21.0       0.0
 7 C  dz2             0.0       0.0       0.2       0.2       0.3       0.0
 7 C  dxz             0.1       0.7       0.0       0.0       0.0       0.8
 7 C  dyz             0.2       0.1       0.0       0.0       0.0       0.0
 7 C  dx2y2           0.0       0.0       0.0       0.4       0.8       0.0
 7 C  dxy             0.0       0.0       0.1       0.2       0.2       0.0
 8 H  s               5.8       8.9       1.0       1.6       3.7       2.0
 8 H  pz              0.0       0.0       0.1       0.1       0.2       0.0
 8 H  px              0.0       0.0       0.0       0.2       0.0       0.0
 8 H  py              0.2       0.3       0.0       0.0       0.0       0.1
 9 H  s               5.8       8.7       1.1       1.6       3.7       2.0
 9 H  pz              0.0       0.0       0.1       0.1       0.2       0.0
 9 H  px              0.0       0.0       0.0       0.2       0.0       0.0
 9 H  py              0.2       0.3       0.0       0.0       0.0       0.1
10 H  s               0.0       0.0       2.4      11.9       3.1       0.0
10 H  pz              0.2       0.3       0.0       0.0       0.0       0.1
10 H  px              0.0       0.0       0.1       0.1       0.3       0.0
11 H  s               0.0       0.0       0.8       2.4       1.0       0.0
12 H  s               0.0       0.0      10.3       0.0       0.0       0.0
12 H  pz              0.0       0.0       0.0       0.0       0.0       0.2
12 H  px              0.0       0.0       0.2       0.0       0.0       0.0
13 H  s               0.0       0.0       5.2       1.1       2.2       0.0
13 H  pz              0.0       0.0       0.0       0.0       0.0       0.1
14 H  s               4.9       9.0       1.3       2.7       1.3       3.2
14 H  pz              0.0       0.0       0.1       0.1       0.1       0.0
[...]
 3 C  dxy             0.4       1.3       1.3       0.1       0.3       3.1
 3 C  f+1             0.3       0.1       0.6       0.0       0.0       0.2
 3 C  f-1             0.2       0.1       0.6       0.3       0.6       0.3
 3 C  f+3             0.0       0.3       2.5       0.7       1.2       8.2
 3 C  f-3             2.9       1.4       2.6       5.1       0.0       0.2
 4 N  s               1.9       1.2       4.1       0.1       9.1       0.0
 4 N  px              1.2       3.5       0.1       1.0       1.8       0.1
 4 N  py              3.9       1.2       0.9       2.4       0.4       0.5
 4 N  dz2             0.8       3.5      13.4       0.1       2.1       0.0
 4 N  dx2y2           1.0       0.1      11.3      38.5       8.3       2.8
 4 N  dxy             5.3      16.4      10.1      18.9      11.0       1.3
 4 N  f+1             1.5       3.0       0.9       1.2       0.9       0.0
 4 N  f-1             6.7       2.6       0.0       1.7       0.2       0.1
 4 N  f+3             0.7       4.2       1.0       0.0       0.7      44.3
 4 N  f-3             1.8       0.9       5.7       0.5      34.5       0.3
 5 C  s               0.3       0.8       0.2       2.8       3.7       0.3
 5 C  px              0.7       1.8       0.7       0.6       1.2       0.8
 5 C  py              1.0       0.7       0.3       0.2       0.7       0.2
 5 C  dz2             0.1       0.7       0.5       1.0       0.7       0.0
 5 C  dx2y2           0.6       5.6       0.4       0.3       2.5       0.9
 5 C  dxy             0.9       3.7       0.1       0.1       1.0       3.7
 5 C  f+1             0.3       1.2       0.2       0.3       0.2       0.7
 5 C  f-1             0.3       0.2       0.1       0.2       0.1       0.0
 5 C  f+3             0.0       0.6       1.6       1.0       0.9      10.3
 5 C  f-3             0.0       0.2       4.2       5.9       0.1       0.0
 6 C  s               4.9       1.0       0.3       2.1       0.4       0.1
 6 C  px              1.3       0.7       1.3       0.4       0.2       0.1
 6 C  py              0.3       0.7       0.6       0.1       0.1       0.0
 6 C  dz2             1.0       0.1       0.2       0.3       0.1       0.0
 6 C  dx2y2           0.8       0.3       0.0       0.0       0.1       1.3
 6 C  dxy             1.9       1.8       0.3       0.8       0.3       0.3
 6 C  f+1             0.2       0.2       0.4       0.1       0.0       0.0
 6 C  f-1             0.0       0.2       0.0       0.1       0.1       0.0
 6 C  f+3             0.0       7.6       5.1       0.0       1.4       6.0
 6 C  f-3             6.6       0.3       0.8       1.7       1.0       0.0
 7 C  s               1.4       0.0       0.1       0.1       0.0       0.0
 7 C  px              0.5       0.1       0.1       0.1       0.0       0.0
 7 C  py              0.4       0.0       0.1       0.0       0.0       0.0
 7 C  dz2             0.6       0.2       0.1       0.1       0.0       0.0
 7 C  dx2y2           0.2       1.1       0.4       0.1       0.1       0.4
 7 C  dxy             1.7       0.0       0.1       0.2       0.1       0.0
 7 C  f+1             0.1       0.1       0.0       0.0       0.0       0.0
 7 C  f+3             0.1       1.2       0.2       0.1       0.3       0.2
 7 C  f-3             0.6       0.1       0.1       0.0       0.0       0.0
10 H  s               0.1       0.2       0.1       0.0       0.0       0.0
11 H  s               0.7       0.2       1.2       0.0       0.0       0.0
11 H  px              0.1       0.0       0.0       0.0       0.0       0.0
11 H  py              0.1       0.1       0.2       0.0       0.0       0.0
12 H  s               0.8       0.2       0.3       0.4       0.0       0.1
12 H  px              0.1       0.1       0.0       0.0       0.0       0.0
12 H  py              0.1       0.0       0.1       0.1       0.0       0.1
13 H  s               0.0       0.3       0.7       0.6       0.0       0.1
13 H  px              0.0       0.0       0.2       0.0       0.0       0.0
13 H  py              0.0       0.2       0.0       0.1       0.0       0.0
15 H  s               0.2       0.3       0.0       0.0       0.1       0.0

                    294       295       296       297       298       299   
                  22.43306  22.48517  22.56973  22.83271  22.96080  22.97572
                   0.00000   0.00000   0.00000   0.00000   0.00000   0.00000
                  --------  --------  --------  --------  --------  --------
 0 C  s               1.4      50.9      44.8       0.0       0.0       1.0
 1 C  s              20.6       0.2       1.7       7.2      21.4       1.8
 1 C  px              0.1       0.1       0.1       0.1       0.1       0.1
 1 C  py              0.0       0.0       0.0       0.2       0.0       0.4
 1 C  dx2y2           0.0       0.0       0.0       0.1       0.0       0.2
 1 C  dxy             0.0       0.0       0.2       0.0       0.0       0.0
 2 C  s              37.3       0.0       0.0       5.7      13.5      37.8
 2 C  px              0.0       0.0       0.1       0.4       0.1       0.0
 2 C  dxy             0.0       0.0       0.0       0.1       0.0       0.0
 3 C  s               6.1       0.6       0.0      67.7       3.1      18.3
 3 C  px              0.1       0.0       0.0       0.0       0.0       0.0
 4 N  s               0.7       0.0       0.0       0.1       0.0       0.4
 4 N  px              0.1       0.0       0.0       0.1       0.1       0.1
 4 N  py              0.0       0.0       0.0       0.5       0.1       0.0
 4 N  dx2y2           0.0       0.0       0.0       0.1       0.0       0.0
 5 C  s              10.8       0.1       3.1       7.6      42.1      29.9
 5 C  px              0.2       0.0       0.0       0.1       0.0       0.0
 6 C  s              18.9       0.1       2.3       7.1      18.1       7.8
 6 C  px              0.0       0.1       0.1       0.0       0.2       0.1
 6 C  py              0.1       0.0       0.1       0.0       0.1       0.3
 6 C  dx2y2           0.0       0.0       0.0       0.0       0.1       0.1
 6 C  dxy             0.0       0.0       0.2       0.0       0.0       0.0
 7 C  s               2.6      46.5      46.3       2.1       0.0       0.7
10 H  s               0.0       0.1       0.1       0.0       0.0       0.0
12 H  s               0.0       0.0       0.0       0.1       0.0       0.0
14 H  s               0.0       0.1       0.1       0.0       0.0       0.0
16 H  s               0.0       0.1       0.1       0.0       0.0       0.0

                    300       301   
                  23.41988  32.48572
                   0.00000   0.00000
                  --------  --------
 1 C  s              45.4       0.0
 1 C  py              0.1       0.0
 1 C  dx2y2           0.1       0.0
 2 C  s               3.7       0.0
 3 C  s               1.5       0.0
 4 N  s               0.1      99.7
 5 C  s               3.6       0.0
 6 C  s              44.1       0.0
 6 C  py              0.2       0.0
 7 C  s               0.1       0.0


                      *****************************
                      * MAYER POPULATION ANALYSIS *
                      *****************************

  NA   - Mulliken gross atomic population
  ZA   - Total nuclear charge
  QA   - Mulliken gross atomic charge
  VA   - Mayer's total valence
  BVA  - Mayer's bonded valence
  FA   - Mayer's free valence

  ATOM       NA         ZA         QA         VA         BVA        FA
  0 C      6.3824     6.0000    -0.3824     3.8771     3.8771    -0.0000
  1 C      5.9861     6.0000     0.0139     3.7675     3.7675     0.0000
  2 C      6.1283     6.0000    -0.1283     3.8372     3.8372    -0.0000
  3 C      6.0510     6.0000    -0.0510     4.0755     4.0755    -0.0000
  4 N      7.2192     7.0000    -0.2192     3.1160     3.1160     0.0000
  5 C      6.1042     6.0000    -0.1042     4.1186     4.1186    -0.0000
  6 C      5.8758     6.0000     0.1242     3.6115     3.6115    -0.0000
  7 C      6.3798     6.0000    -0.3798     3.8817     3.8817    -0.0000
  8 H      0.8672     1.0000     0.1328     0.9658     0.9658    -0.0000
  9 H      0.8672     1.0000     0.1328     0.9658     0.9658    -0.0000
 10 H      0.8708     1.0000     0.1292     0.9722     0.9722    -0.0000
 11 H      0.8815     1.0000     0.1185     0.9690     0.9690    -0.0000
 12 H      0.8813     1.0000     0.1187     0.9763     0.9763    -0.0000
 13 H      0.8906     1.0000     0.1094     0.9826     0.9826     0.0000
 14 H      0.8679     1.0000     0.1321     0.9587     0.9587    -0.0000
 15 H      0.8789     1.0000     0.1211     0.9810     0.9810    -0.0000
 16 H      0.8680     1.0000     0.1320     0.9587     0.9587    -0.0000

  Mayer bond orders larger than 0.100000
B(  0-C ,  1-C ) :   0.9211 B(  0-C ,  8-H ) :   0.9747 B(  0-C ,  9-H ) :   0.9746 
B(  0-C , 10-H ) :   0.9978 B(  1-C ,  2-C ) :   1.4039 B(  1-C ,  6-C ) :   1.3738 
B(  2-C ,  3-C ) :   1.4228 B(  2-C , 11-H ) :   0.9683 B(  3-C ,  4-N ) :   1.4911 
B(  3-C , 12-H ) :   0.9880 B(  4-N ,  5-C ) :   1.5399 B(  5-C ,  6-C ) :   1.3842 
B(  5-C , 13-H ) :   0.9979 B(  6-C ,  7-C ) :   0.9171 B(  7-C , 14-H ) :   0.9807 
B(  7-C , 15-H ) :   0.9837 B(  7-C , 16-H ) :   0.9810 

-------
TIMINGS
-------

Total SCF time: 0 days 0 hours 1 min 34 sec 

Total time                  ....      94.275 sec
Sum of individual times     ....      92.384 sec  ( 98.0%)

SCF preparation             ....       0.060 sec  (  0.1%)
Fock matrix formation       ....      91.839 sec  ( 97.4%)
  Startup                   ....       0.004 sec  (  0.0% of F)
  Split-RI-J                ....       3.449 sec  (  3.8% of F)
  Chain of spheres X        ....      81.430 sec  ( 88.7% of F)
  XC integration            ....       8.798 sec  (  9.6% of F)
    Basis function eval.    ....       2.085 sec  ( 23.7% of XC)
    Density eval.           ....       1.967 sec  ( 22.4% of XC)
    XC-Functional eval.     ....       2.162 sec  ( 24.6% of XC)
    XC-Potential eval.      ....       2.478 sec  ( 28.2% of XC)
Diagonalization             ....       0.000 sec  (  0.0%)
Density matrix formation    ....       0.015 sec  (  0.0%)
Total Energy calculation    ....       0.003 sec  (  0.0%)
Population analysis         ....       0.194 sec  (  0.2%)
Orbital Transformation      ....       0.026 sec  (  0.0%)
Orbital Orthonormalization  ....       0.000 sec  (  0.0%)
DIIS solution               ....       0.085 sec  (  0.1%)
  MO trafo                  ....       0.000 sec  (  0.0 % of DIIS)
  Orb grad                  ....       0.000 sec  (  0.0 % of DIIS)
  Energy W gradient         ....       0.000 sec  (  0.0 % of DIIS)
  DIIS error                ....       0.012 sec  ( 14.0 % of DIIS)
  DIIS work                 ....       0.060 sec  ( 70.7 % of DIIS)
  Form Q                    ....       0.000 sec  (  0.0 % of DIIS)
  Form QpQm                 ....       0.000 sec  (  0.0 % of DIIS)
  Exp/Cayley                ....       0.000 sec  (  0.0 % of DIIS)
  Orb update                ....       0.000 sec  (  0.0 % of DIIS)
  Wake-sleep                ....       0.001 sec  (  0.7 % of DIIS)
SOSCF solution              ....       0.042 sec  (  0.0%)
  MO trafo                  ....       0.024 sec  ( 56.7 % of SOSCF)
  Orb grad                  ....       0.000 sec  (  0.6 % of SOSCF)
  Rot update                ....       0.001 sec  (  2.0 % of SOSCF)
  Step                      ....       0.017 sec  ( 40.5 % of SOSCF)
Grid generation             ....       0.120 sec  (  0.1%)
Finished LeanSCF after  94.3 sec

Maximum memory used throughout the entire LEANSCF-calculation: 41.7 MB
------------------   -----------------
gCP correction             0.009906818
------------------   -----------------

-------------------------   --------------------
FINAL SINGLE POINT ENERGY      -326.929436566199
-------------------------   --------------------


------------------------------------------------------------------------------
                              ORCA PROPERTY CALCULATIONS
------------------------------------------------------------------------------

GBWName                                 ... sp.gbw
Number of atoms                         ...     17
Number of basis functions               ...    302
Max core memory                         ...   1024 MB

Electric properties:
Dipole moment                           ... YES
Quadrupole moment                       ...  NO
Static polarizability (Dipole/Dipole)   ...  NO
Static polarizability (Dipole/Quad.)    ...  NO
Static polarizability (Quad./Quad.)     ...  NO
Static polarizability (Velocity)        ...  NO

Atomic electric properties:
Dipole moment                           ...  NO
Quadrupole moment                       ...  NO
Static polarizability                   ...  NO

Choice of electric origin               ... Center of mass
Position of electric origin             ...    -0.013484     0.001031     0.000036

General magnetic properties:
Magnetizability                         ...  NO

EPR properties:
g-Tensor (aka g-matrix)                 ...  NO
Zero-Field splitting spin-orbit         ...  NO
Zero-field splitting spin-spin          ...  NO
Hyperfine couplings                     ...  NO (   0 nuclei)
Quadrupole couplings                    ...  NO (   0 nuclei)
Contact density                         ...  NO (   0 nuclei)

NMR properties:
Chemical shifts                         ...  NO (   0 nuclei)
Spin-rotation constants                 ...  NO (   0 nuclei)
Spin-spin couplings                     ...  NO (   0 nuclei,    0 pairs)

Choice of magnetic origin               ... GIAO
Position of magnetic origin             ...     0.000000     0.000000     0.000000

Properties with geometric perturbations:
SCF Hessian                             ...  NO
IR spectrum                             ...  NO
VCD spectrum                            ...  NO
X-ray spectroscopy properties:
SCF XES/XAS/RIXS spectra                ...  NO


-------------
DIPOLE MOMENT
-------------

Method             : SCF
Type of density    : Electron Density
Multiplicity       :   1
Irrep              :   0
Energy             :  -326.9393433841985370 Eh
Relativity type    : 
Basis              : AO
                                X                 Y                 Z
Electronic contribution:     -6.973036238       0.494020845       0.001592698
Nuclear contribution   :      8.041549676      -0.948805122      -0.001987853
                        -----------------------------------------
Total Dipole Moment    :      1.068513438      -0.454784277      -0.000395155
                        -----------------------------------------
Magnitude (a.u.)       :      1.161270796
Magnitude (Debye)      :      2.951715788



--------------------
Rotational spectrum 
--------------------
 
Rotational constants in cm-1:             0.105992             0.073434             0.044091 
Rotational constants in MHz :          3177.569752          2201.491869          1321.815679 

Dipole components along the rotational axes: 
x,y,z [a.u.] :    -1.071987    -0.446535    -0.000201 
x,y,z [Debye]:    -2.724775    -1.135001    -0.000511 

 

Dipole moment calculation done in   0.0 sec 

Maximum memory used throughout the entire PROP-calculation: 26.4 MB

--------------------------------
SUGGESTED CITATIONS FOR THIS RUN
--------------------------------

Below you find a list of papers that are relevant to this ORCA run
We neither can nor want to force you to cite these papers, but we appreciate if you do
You receive ORCA, which is the product of decades of hard work by many enthusiastic individuals, for free
The only thing we kindly ask in return is that you cite our papers,
We deeply appreciate it, if you show your appreciation for ORCA by not just citing the generic ORCA reference.

Please note that relegating all ORCA citations to the supporting information does *not* help us.
SI sections are not indexed - citations you put there will not count into any citation statistics
But we need these citations in order to attract the funding resources that allow us to do what we are doing

Therefore, if you are a happy ORCA user, please consider citing a few of the papers listed below in the main body of your paper

In addition to the list printed below, the program has created the file sp.bibtex that contains the list in bibtex format
You can import this file easily into all common literature databanks and citation aid programs


List of essential papers. We consider these as the minimum necessary citations

  1. Neese,F.
     Software update: the ORCA program system, version 5.0
     WIRES Comput. Molec. Sci., 2022 12(1)e1606
     doi.org/10.1002/wcms.1606

List of papers to cite with high priority. The work reported in these papers was absolutely
necessary for this run to complete.
Our perspective: the developers of density functionals and basis sets usually get cited in chemistry papers
Good! But without the algorithms to do something with them, the functionals or basis sets would not do anything.
Hence, in our opinion, the algorithm design and method developments papers are equally worthy of getting cited

  1. Neese,F.
     An improvement of the resolution of the identity approximation for the formation of the Coulomb matrix
     J. Comp. Chem., 2003 24(14)1740-1747
     doi.org/10.1002/jcc.10318
  2. Neese,F.; Wennmohs,F.; Hansen,A.; Becker,U.
     Efficient, approximate and parallel Hartree-Fock and hybrid DFT calculations. A 'chain-of-spheres' algorithm for the Hartree-Fock exchange
     Chem. Phys., 2009 356(1-3)98-109
     doi.org/10.1016/j.chemphys.2008.10.036
  3. Helmich-Paris,B.; de Souza,B.; Neese,F.; Izsák,R.
     An improved chain of spheres for exchange algorithm
     J. Chem. Phys., 2021 155 104109
     doi.org/doi: 10.1063/5.0058766.
  4. Neese,F.
     The SHARK Integral Generation and Digestion System
     J. Comp. Chem., 2022  1-16
     doi.org/10.1002/jcc.26942

List of suggested additional citations. These are papers that are important in the 'surrounding' of 
of this run, or papers that preceded the highly important papers. If you like your results we are grateful for a citation.

  1. Izsak,R.; Neese,F.
     An overlap fitted chain of spheres exchange method
     J. Chem. Phys., 2011 135 144105
     doi.org/10.1063/1.3646921
  2. Izsak,R.; Hansen,A.; Neese,F.
     The resolution of identity and chain of spheres approximations for the LPNO-CCSD singles Fock term
     Molec. Phys., 2012 110 2413-2417
     doi.org/10.1080/00268976.2012.687466
  3. Neese,F.
     The ORCA program system
     WIRES Comput. Molec. Sci., 2012 2(1)73-78
     doi.org/10.1002/wcms.81
  4. Izsak,R.; Neese,F.; Klopper,W.
     Robust fitting techniques in the chain of spheres approximation to the Fock exchange: The role of the complementary space
     J. Chem. Phys., 2013 139 
     doi.org/10.1063/1.4819264
  5. Neese,F.
     Software update: the ORCA program system, version 4.0
     WIRES Comput. Molec. Sci., 2018 8(1)1-6
     doi.org/10.1002/wcms.1327
  6. Neese,F.; Wennmohs,F.; Becker,U.; Riplinger,C.
     The ORCA quantum chemistry program package
     J. Chem. Phys., 2020 152 Art. No. L224108
     doi.org/10.1063/5.0004608

List of optional additional citations

  1. Neese,F.
     Approximate second-order SCF convergence for spin unrestricted wavefunctions
     Chem. Phys. Lett., 2000 325(1-3)93-98
     doi.org/10.1016/s0009-2614(00)00662-x

Timings for individual modules:

Sum of individual times          ...       95.700 sec (=   1.595 min)
Startup calculation              ...        1.273 sec (=   0.021 min)   1.3 %
SCF iterations                   ...       94.379 sec (=   1.573 min)  98.6 %
Property calculations            ...        0.048 sec (=   0.001 min)   0.1 %
                             ****ORCA TERMINATED NORMALLY****
TOTAL RUN TIME: 0 days 0 hours 1 minutes 35 seconds 755 msec
