26
 energy: -615.610900154345 gnorm: 0.016322207716 xtb: 6.7.1 (41059b4)
C            3.49755548664986       -0.00000575130000       -0.00001862690001
C            2.81279738664642       -1.20157502623245       -0.00001368860001
C            1.41749447132813       -1.22604258294329        0.00000188500000
C            0.67641338559974       -2.44500774108345        0.00000737800000
C           -0.67641599219974       -2.44500502608345        0.00000980360000
C           -1.41749771632813       -1.22603982494329        0.00000750660000
C           -2.81280048284643       -1.20157294393245        0.00000509160000
C           -3.49755680224986       -0.00000260110000       -0.00001626950001
C           -2.81279679104642        1.20157285433245       -0.00002114960001
C           -1.41749878792813        1.22604577624329       -0.00000261370000
C           -0.70763305251357        0.00000208440000        0.00000421440000
C            0.70763075661357        0.00000162680000        0.00000497300000
C            1.41750033792813        1.22604146034329        0.00000656630000
C            2.81280074624643        1.20157086703245       -0.00000327500000
C            0.67641715749974        2.44500964568345        0.00001637370001
C           -0.67641135079974        2.44500865828345        0.00001255940001
H            4.57818765982872       -0.00000531070000       -0.00001405890001
H            3.35651287328736       -2.13567338404637       -0.00001998370001
H            1.22846490614437       -3.37458538269537        0.00001397450001
H           -1.22846296254436       -3.37458450689537        0.00002240130001
H           -3.35651725058736       -2.13567004624637        0.00000248360000
H           -4.57819228272872        0.00000303570000       -0.00002175640001
H           -3.35651998378736        2.13566450094637       -0.00002240950001
H            3.35653100768737        2.13565789144637        0.00000529810000
H            1.22847011984437        3.37458715529537        0.00001611920001
H           -1.22845922214436        3.37458846229537        0.00000925210000
26
 energy: -615.611675827512 gnorm: 0.004704158752 xtb: 6.7.1 (41059b4)
C            3.50778164275211       -0.00000488700059       -0.00000927433414
C            2.82046623138276       -1.20618929666726       -0.00000944069194
C            1.42116089818783       -1.23094201349771        0.00000066258644
C            0.67897157204609       -2.45281781577800        0.00000841123697
C           -0.67897429745358       -2.45281607029642        0.00001229091662
C           -1.42116227435376       -1.23093937528749        0.00000560118464
C           -2.82046781015095       -1.20618546452706       -0.00000121676537
C           -3.50778149133339       -0.00000006593310       -0.00001201045132
C           -2.82046530442339        1.20618751912591       -0.00001147310681
C           -1.42116239945465        1.23094265999032       -0.00000055056159
C           -0.70922406945685        0.00000075016329        0.00000414278683
C            0.70922431693967       -0.00000012660463        0.00000438155876
C            1.42116455504113        1.23093954291938        0.00000539397520
C            2.82046822671531        1.20618378139950       -0.00000013374828
C            0.67897482306617        2.45281760725361        0.00001006525087
C           -0.67897034723604        2.45281802801199        0.00000574959725
H            4.59197373053368       -0.00000448159494       -0.00001890814555
H            3.36521650789282       -2.14446674054542       -0.00001692329071
H            1.23110510305320       -3.38700297232224        0.00001065201913
H           -1.23110670803155       -3.38700181974006        0.00001750916746
H           -3.36521950035468       -2.14446200329431        0.00000254250292
H           -4.59197421367864        0.00000395717867       -0.00002160173775
H           -3.36522122116109        2.14446129269434       -0.00002170171600
H            3.36522783742770        2.14445513441769        0.00000150181908
H            1.23110964868939        3.38700220571079        0.00001722617860
H           -1.23110199710840        3.38700455951595        0.00000912695313
26
 energy: -615.611735080306 gnorm: 0.001166726966 xtb: 6.7.1 (41059b4)
C            3.51189241053381       -0.00000403264004       -0.00000867243612
C            2.82372818441625       -1.20749651987483       -0.00000659156550
C            1.42289581583402       -1.23273466801462        0.00000154873844
C            0.67987880646545       -2.45513864262039        0.00000659505580
C           -0.67988202966904       -2.45513707007250        0.00000949880255
C           -1.42289716552030       -1.23273219830926        0.00000481403350
C           -2.82372905789203       -1.20749175456556       -0.00000105247130
C           -3.51189102814009        0.00000138905462       -0.00001050929500
C           -2.82372676757560        1.20749467895693       -0.00000958976321
C           -1.42289609643439        1.23273402168396       -0.00000028610838
C           -0.70968130138028        0.00000024546146        0.00000366961331
C            0.70968043388710       -0.00000080992975        0.00000411547071
C            1.42289835823078        1.23273165235470        0.00000459912894
C            2.82372973112289        1.20749067594292       -0.00000077163800
C            0.67988235031248        2.45513713151592        0.00000876846878
C           -0.67987806800850        2.45513775261657        0.00000515903167
H            4.59720211147557       -0.00000403483412       -0.00001534127173
H            3.36900539568465       -2.14690781869720       -0.00001247967029
H            1.23079767911103       -3.39145315395918        0.00000900654484
H           -1.23080116733784       -3.39145102130544        0.00001495267289
H           -3.36900728916836       -2.14690177561053       -0.00000027978753
H           -4.59720010264584        0.00000377970228       -0.00001831724746
H           -3.36900652334490        2.14690374537211       -0.00001632573473
H            3.36901185456107        2.14689900825346       -0.00000026763772
H            1.23080253641949        3.39145075837274        0.00001338222969
H           -1.23079567654304        3.39145257106435        0.00000638598510
26
 energy: -615.611736635039 gnorm: 0.000378900749 xtb: 6.7.1 (41059b4)
C            3.51229776062049       -0.00000363070233       -0.00000623965854
C            2.82414974689734       -1.20748209873810       -0.00000468571726
C            1.42321546396128       -1.23292343662343        0.00000158983295
C            0.67998686303673       -2.45500051137830        0.00000600020992
C           -0.67999029474400       -2.45499859713078        0.00000783503635
C           -1.42321724723581       -1.23292079144428        0.00000355502353
C           -2.82415033841438       -1.20747684182470       -0.00000188549526
C           -3.51229584113931        0.00000195135945       -0.00000848507914
C           -2.82414830050684        1.20748004298949       -0.00000702273987
C           -1.42321554754181        1.23292206302408        0.00000004564083
C           -0.70959069224024        0.00000004718356        0.00000314937561
C            0.70958740638679       -0.00000107165841        0.00000356134487
C            1.42321757927177        1.23292011879892        0.00000354259558
C            2.82415145378025        1.20747622082339       -0.00000095405465
C            0.67999067332230        2.45499845735907        0.00000630983432
C           -0.67998635038840        2.45499874471274        0.00000374760761
H            4.59761655752184       -0.00000411990839       -0.00001251579834
H            3.36961435463141       -2.14679599567765       -0.00000855490852
H            1.22976542118159       -3.39199355190010        0.00000743331364
H           -1.22976898833714       -3.39199093633727        0.00001112123273
H           -3.36961556069140       -2.14678905288513       -0.00000151514969
H           -4.59761331963727        0.00000331999829       -0.00001509475434
H           -3.36961322856979        2.14679238149152       -0.00001228865521
H            3.36961862790427        2.14678860495278       -0.00000136465234
H            1.22977064357216        3.39199062784943        0.00000991659985
H           -1.22976345735839        3.39199196733623        0.00000480607376
26
 energy: -615.611736635039 gnorm: 0.000378900749 xtb: 6.7.1 (41059b4)
C            3.51229776062049       -0.00000363070233       -0.00000623965854
C            2.82414974689734       -1.20748209873810       -0.00000468571726
C            1.42321546396128       -1.23292343662343        0.00000158983295
C            0.67998686303673       -2.45500051137830        0.00000600020992
C           -0.67999029474400       -2.45499859713078        0.00000783503635
C           -1.42321724723581       -1.23292079144428        0.00000355502353
C           -2.82415033841438       -1.20747684182470       -0.00000188549526
C           -3.51229584113931        0.00000195135945       -0.00000848507914
C           -2.82414830050684        1.20748004298949       -0.00000702273987
C           -1.42321554754181        1.23292206302408        0.00000004564083
C           -0.70959069224024        0.00000004718356        0.00000314937561
C            0.70958740638679       -0.00000107165841        0.00000356134487
C            1.42321757927177        1.23292011879892        0.00000354259558
C            2.82415145378025        1.20747622082339       -0.00000095405465
C            0.67999067332230        2.45499845735907        0.00000630983432
C           -0.67998635038840        2.45499874471274        0.00000374760761
H            4.59761655752184       -0.00000411990839       -0.00001251579834
H            3.36961435463141       -2.14679599567765       -0.00000855490852
H            1.22976542118159       -3.39199355190010        0.00000743331364
H           -1.22976898833714       -3.39199093633727        0.00001112123273
H           -3.36961556069140       -2.14678905288513       -0.00000151514969
H           -4.59761331963727        0.00000331999829       -0.00001509475434
H           -3.36961322856979        2.14679238149152       -0.00001228865521
H            3.36961862790427        2.14678860495278       -0.00000136465234
H            1.22977064357216        3.39199062784943        0.00000991659985
H           -1.22976345735839        3.39199196733623        0.00000480607376
