      -----------------------------------------------------------      
     |                   =====================                   |     
     |                           x T B                           |     
     |                   =====================                   |     
     |                         S. Grimme                         |     
     |          Mulliken Center for Theoretical Chemistry        |     
     |                    University of Bonn                     |     
      -----------------------------------------------------------      

   * xtb version 6.7.1 (41059b4) compiled by 'michael@archlinux' on 2025-03-24

   xtb is free software: you can redistribute it and/or modify it under
   the terms of the GNU Lesser General Public License as published by
   the Free Software Foundation, either version 3 of the License, or
   (at your option) any later version.
   
   xtb is distributed in the hope that it will be useful,
   but WITHOUT ANY WARRANTY; without even the implied warranty of
   MERCHANTABILITY or FITNESS FOR A PARTICULAR PURPOSE.  See the
   GNU Lesser General Public License for more details.
   
   Cite this work as:
   * C. Bannwarth, E. Caldeweyher, S. Ehlert, A. Hansen, P. Pracht,
     J. Seibert, S. Spicher, S. Grimme, WIREs Comput. Mol. Sci., 2020, 11,
     e01493. DOI: 10.1002/wcms.1493
   
   for GFN2-xTB:
   * C. Bannwarth, S. Ehlert and S. Grimme., J. Chem. Theory Comput., 2019,
     15, 1652-1671. DOI: 10.1021/acs.jctc.8b01176
   for GFN1-xTB:
   * S. Grimme, C. Bannwarth, P. Shushkov, J. Chem. Theory Comput., 2017,
     13, 1989-2009. DOI: 10.1021/acs.jctc.7b00118
   for GFN0-xTB:
   * P. Pracht, E. Caldeweyher, S. Ehlert, S. Grimme, ChemRxiv, 2019, preprint.
     DOI: 10.26434/chemrxiv.8326202.v1
   for GFN-FF:
   * S. Spicher and S. Grimme, Angew. Chem. Int. Ed., 2020, 59, 15665-15673.
     DOI: 10.1002/anie.202004239
   
   for ALPB and GBSA implicit solvation:
   * S. Ehlert, M. Stahn, S. Spicher, S. Grimme, J. Chem. Theory Comput.,
     2021, 17, 4250-4261. DOI: 10.1021/acs.jctc.1c00471
   
   for ddCOSMO and CPCM-X implicit solvation:
   * M. Stahn, S. Ehlert, S. Grimme, J. Phys. Chem. A,
     2023, XX, XXXX-XXXX. DOI: 10.1021/acs.jpca.3c04382
   
   for DFT-D4:
   * E. Caldeweyher, C. Bannwarth and S. Grimme, J. Chem. Phys., 2017,
     147, 034112. DOI: 10.1063/1.4993215
   * E. Caldeweyher, S. Ehlert, A. Hansen, H. Neugebauer, S. Spicher,
     C. Bannwarth and S. Grimme, J. Chem. Phys., 2019, 150, 154122.
     DOI: 10.1063/1.5090222
   * E. Caldeweyher, J.-M. Mewes, S. Ehlert and S. Grimme, Phys. Chem. Chem. Phys.
     2020, 22, 8499-8512. DOI: 10.1039/D0CP00502A
   
   for sTDA-xTB:
   * S. Grimme and C. Bannwarth, J. Chem. Phys., 2016, 145, 054103.
     DOI: 10.1063/1.4959605
   
   in the mass-spec context:
   * V. Asgeirsson, C. Bauer and S. Grimme, Chem. Sci., 2017, 8, 4879.
     DOI: 10.1039/c7sc00601b
   * J. Koopman and S. Grimme, ACS Omega 2019, 4, 12, 15120-15133.
     DOI: 10.1021/acsomega.9b02011
   
   for metadynamics refer to:
   * S. Grimme, J. Chem. Theory Comput., 2019, 155, 2847-2862
     DOI: 10.1021/acs.jctc.9b00143
   
   for SPH calculations refer to:
   * S. Spicher and S. Grimme, J. Chem. Theory Comput., 2021, 17, 1701-1714
     DOI: 10.1021/acs.jctc.0c01306
   
   for ONIOM refer to:
   * C. Plett, A. Katbashev, S. Ehlert, S. Grimme, M. Bursch,
     Phys. Chem. Chem. Phys., 2023, 25, 17860-17868. DOI: 10.1039/D3CP02178E
   
   for DIPRO refer to:
   * J. Kohn, N. Gildemeister, S. Grimme, D. Fazzi, A. Hansen,
     J. Chem. Phys., 2023, just accepted.
   
   for PTB refer to:
   * S. Grimme, M. Mueller, A. Hansen, J. Chem. Phys., 2023, 158, 124111.
     DOI: 10.1063/5.0137838
   
   with help from (in alphabetical order)
   P. Atkinson, C. Bannwarth, F. Bohle, G. Brandenburg, E. Caldeweyher
   M. Checinski, S. Dohm, S. Ehlert, S. Ehrlich, I. Gerasimov, C. Hölzer
   A. Katbashev, J. Kohn, J. Koopman, C. Lavigne, S. Lehtola, F. März, M. Müller,
   F. Musil, H. Neugebauer, J. Pisarek, C. Plett, P. Pracht, F. Pultar,
   J. Seibert, P. Shushkov, S. Spicher, M. Stahn, M. Steiner, T. Strunk,
   J. Stückrath, T. Rose, and J. Unsleber
   
 * started run on 2025/04/08 at 22:36:26.018     
   ID    Z sym.   atoms
    1    6 C      1-3, 6
    2    8 O      4, 5
    3    1 H      7-14

           -------------------------------------------------
          |                Calculation Setup                |
           -------------------------------------------------

          program call               : /usr/bin/xtb xtb_opt.coord --opt normal --orca -I xtb_opt-xcontrol-inp
          coordinate file            : xtb_opt.coord
          omp threads                :                    16

           -------------------------------------------------
          |                   Orca driver                   |
           -------------------------------------------------
orca executable           : /home/michael/Documents/CHEM4561/orca_avx2/orca
orca input file           : xtb_opt.inp
orca input line           : 
orca parallel             : true
orca number of threads    : 16
                         * ORCA takes the control...
  ------------------------------------------------------------------------

                                 *****************
                                 * O   R   C   A *
                                 *****************

                                            #,                                       
                                            ###                                      
                                            ####                                     
                                            #####                                    
                                            ######                                   
                                           ########,                                 
                                     ,,################,,,,,                         
                               ,,#################################,,                 
                          ,,##########################################,,             
                       ,#########################################, ''#####,          
                    ,#############################################,,   '####,        
                  ,##################################################,,,,####,       
                ,###########''''           ''''###############################       
              ,#####''   ,,,,##########,,,,          '''####'''          '####       
            ,##' ,,,,###########################,,,                        '##       
           ' ,,###''''                  '''############,,,                           
         ,,##''                                '''############,,,,        ,,,,,,###''
      ,#''                                            '''#######################'''  
     '                                                          ''''####''''         
             ,#######,   #######,   ,#######,      ##                                
            ,#'     '#,  ##    ##  ,#'     '#,    #''#        ,####,   ,####,        
            ##       ##  ##   ,#'  ##            #'  '#       #'       #'  '#        
            ##       ##  #######   ##           ,######,      #####,   #    #        
            '#,     ,#'  ##    ##  '#,     ,#' ,#      #,     #,   #   #,  ,#        
             '#######'   ##     ##  '#######'  #'      '#     '####' # '####'        



                #########################################################
                #                        -***-                          #
                #          Department of theory and spectroscopy        #
                #                                                       #
                #                      Frank Neese                      #
                #                                                       #
                #     Directorship, Architecture, Infrastructure        #
                #                    SHARK, DRIVERS                     #
                #        Core code/Algorithms in most modules           #
                #                                                       #
                #        Max Planck Institute fuer Kohlenforschung      #
                #                Kaiser Wilhelm Platz 1                 #
                #                 D-45470 Muelheim/Ruhr                 #
                #                      Germany                          #
                #                                                       #
                #                  All rights reserved                  #
                #                        -***-                          #
                #########################################################


                         Program Version 6.0.1  -  RELEASE   -


 With contributions from (in alphabetic order):
[Max-Planck-Institut fuer Kohlenforschung]                               
  Daniel Aravena         : Magnetic Suceptibility                        
  Michael Atanasov       : Ab Initio Ligand Field Theory (pilot matlab implementation)
  Alexander A. Auer      : GIAO ZORA, VPT2 properties, NMR spectrum      
  Ute Becker             : All parallelization in ORCA, NUMFREQ, NUMCALC 
  Giovanni Bistoni       : ED, misc. LED, open-shell LED, HFLD           
  Martin Brehm           : Molecular dynamics                            
  Dmytro Bykov           : pre 5.0 version of the SCF Hessian            
  Marcos Casanova-Páez   : Triplet and SCS-CIS(D). UHF-(DLPNO)-IP/EA/STEOM-CCSD. UHF-CVS-IP/STEOM-CCSD   
  Vijay G. Chilkuri      : MRCI spin determinant printing, contributions to CSF-ICE 
  Pauline Colinet        : FMM embedding                                 
  Dipayan Datta          : RHF DLPNO-CCSD density                        
  Achintya Kumar Dutta   : EOM-CC, STEOM-CC                              
  Nicolas Foglia         : Exact transition moments, OPA infrastructure, MCD improvements    
  Dmitry Ganyushin       : Spin-Orbit,Spin-Spin,Magnetic field MRCI      
  Miquel Garcia-Rates    : C-PCM and meta-GGA Hessian, CCSD/C-PCM, Gaussian charge scheme 
  Tiago L. C. Gouveia    : GS-ROHF, GS-ROCIS                             
  Yang Guo               : DLPNO-NEVPT2, F12-NEVPT2, CIM, IAO-localization        
  Andreas Hansen         : Spin unrestricted coupled pair/coupled cluster methods 
  Ingolf Harden          : AUTO-CI MPn and infrastructure                
  Benjamin Helmich-Paris : MC-RPA, TRAH-(SCF,CASSCF), AVAS, COSX integrals, SCF dyn. polar. 
  Lee Huntington         : MR-EOM, pCC                                   
  Robert Izsak           : Overlap fitted RIJCOSX, COSX-SCS-MP3, EOM     
  Riya Kayal             : Wick's Theorem for AUTO-CI, AUTO-CI UHF-CCSDT 
  Emily Kempfer          : AUTO-CI, RHF CISDT and CCSDT                  
  Christian Kollmar      : KDIIS, OOCD, Brueckner-CCSD(T), CCSD density, CASPT2, CASPT2-K, improved NEVPT2 
  Axel Koslowski         : Symmetry handling                             
  Simone Kossmann        : meta-GGA functionals, TD-DFT gradient, OOMP2, (MP2 Hessian; deprecated post 5.0) 
  Lucas Lang             : DCDCAS                                        
  Marvin Lechner         : AUTO-CI (C++ implementation), FIC-MRCC        
  Spencer Leger          : CASSCF response                               
  Dagmar Lenk            : GEPOL surface, SMD, ORCA-2-JSON               
  Dimitrios Liakos       : Extrapolation schemes; Compound Job, initial MDCI parallelization 
  Dimitrios Manganas     : Further ROCIS development; embedding schemes. LFT, Crystal Embedding 
  Dimitrios Pantazis     : SARC Basis sets                               
  Anastasios Papadopoulos: AUTO-CI, single reference methods and gradients 
  Taras Petrenko         : pre 6.0 DFT Hessian and TD-DFT gradient, (ASA, deprecated), ECA, 1-Electron XAS/XES, NRVS 
  Peter Pinski           : DLPNO-MP2, DLPNO-MP2 Gradient                 
  Christoph Reimann      : Effective Core Potentials                     
  Marius Retegan         : Local ZFS, SOC                                
  Christoph Riplinger    : Optimizer, TS searches, QM/MM, DLPNO-CCSD(T), (RO)-DLPNO pert. Triples 
  Michael Roemelt        : Original ROCIS implementation                 
  Masaaki Saitow         : Open-shell DLPNO-CCSD energy and density      
  Barbara Sandhoefer     : DKH picture change effects                    
  Kantharuban Sivalingam : CASSCF convergence/infrastructure, NEVPT2 and variants, FIC-MRCI 
  Bernardo de Souza      : ESD, SOC TD-DFT                               
  Georgi L. Stoychev     : AutoAux, RI-MP2 NMR, DLPNO-MP2 response, X2C  
  Van Anh Tran           : RI-MP2 g-tensors                              
  Willem Van den Heuvel  : Paramagnetic NMR                              
  Zikuan Wang            : NOTCH, Electric field optimization            
  Frank Wennmohs         : Technical directorship and infrastructure     
  Hang Xu                : AUTO-CI-Response properties                   
                                                                         
[FACCTs GmbH]                                                            
  Markus Bursch, Miquel Garcia-Rates, Christoph Riplinger, Bernardo de Souza, Georgi L. Stoychev 
                                                                 
  APM, Basis sets (HGBS, AHGBS, def-TZVP (Ac-Lr), def2-XVPD (La-Lu)), CI-OPT, improved COSX, DLPNO-Multilevel,           
  DOCKER, DRACO, updates on ESD, GOAT, IRC, LR-CPCM, MBIS, meta-GGA TD-DFT gradient, ML-optimized integration grids, 
  MM, NACMEs, nearIR, NEB, NEB-TS, NL-DFT gradient (VV10), 2- and 3-layer-ONIOM, interface openCOSMO-RS, QMMM,   
  Crystal-QMMM, SF, symmetry and pop. for TD-DFT, r2SCAN hybrids, SOLVATOR                                   
                                                                         
[Other institutions]                                                     
  V. Asgeirsson          : NEB                                           
  Christoph Bannwarth    : sTDA-DFT, sTD-DFT, PBEh-3c, B97-3c, D3        
  Sebastian Ehlert       : rSCAN, r2SCAN, r2SCAN-3c, D4, dhf basis sets  
  Marvin Friede          : D4 for Fr, Ra, Ac-Lr                          
  Lars Goerigk           : TD-DFT with DH, B97 family of functionals     
  Stefan Grimme          : VdW corrections, initial TS optimization, DFT functionals, gCP, sTDA/sTD-DF 
  Waldemar Hujo          : DFT-NL                                        
  H. Jonsson             : NEB                                           
  Holger Kruse           : gCP                                           
  Marcel Mueller         : wB97X-3c, vDZP basis set                      
  Hagen Neugebauer       : wr2SCAN                                       
  Tobias Risthaus        : range-separated hybrid DFT                    
  Lukas Wittmann         : regularized MP2, r2SCAN double-hybrids, wr2SCAN        
                                                                         
We gratefully acknowledge several colleagues who have allowed us to      
interface, adapt or use parts of their codes:                            
  Ed Valeev, F. Pavosevic, A. Kumar             : LibInt (2-el integral package), F12 methods 
  Garnet Chan, S. Sharma, J. Yang, R. Olivares  : DMRG                   
  Ulf Ekstrom                                   : XCFun DFT Library      
  Mihaly Kallay                                 : mrcc  (arbitrary order and MRCC methods)
  Frank Weinhold                                : gennbo (NPA and NBO analysis)           
  Simon Mueller                                 : openCOSMO-RS                            
  Christopher J. Cramer and Donald G. Truhlar   : smd solvation model                     
  S Lehtola, MJT Oliveira, MAL Marques          : LibXC Library                           
  Liviu Ungur et al                             : ANISO software                          


 Your calculation uses the libint2 library for the computation of 2-el integrals
 For citations please refer to: http://libint.valeyev.net

 Your ORCA version has been built with support for libXC version: 6.2.2
 For citations please refer to: https://libxc.gitlab.io

 This ORCA versions uses:
   CBLAS   interface :  Fast vector & matrix operations
   LAPACKE interface :  Fast linear algebra routines
   SCALAPACK package :  Parallel linear algebra routines
   Shared memory     :  Shared parallel matrices
   BLAS/LAPACK       :  OpenBLAS 0.3.27  USE64BITINT DYNAMIC_ARCH NO_AFFINITY Zen SINGLE_THREADED
        Core in use  :  Zen
   Copyright (c) 2011-2014, The OpenBLAS Project




***************************************
The coordinates will be read from file: xtb_opt.xyz
***************************************


Your calculation utilizes the geometrical counterpoise correction gCP
Please cite in your paper:
H.Kruse, S. Grimme J.Chem.Phys., 136, (2012), 154101 
   

Your calculation utilizes the atom-pairwise dispersion correction
based on EEQ partial charges (D4)


================================================================================

----- Orbital basis set information -----
Your calculation utilizes the basis: def2-mTZVPP
   Stefan Grimme, Andreas Hansen, Sebastian Ehlert, and Jan-Michael Mewes 
   J. Chem. Phys. 154, 064103 (2021). DOI: 10.1063/5.0040021

----- AuxJ basis set information -----
Your calculation utilizes the auxiliary basis: def2/J
   F. Weigend, Phys. Chem. Chem. Phys. 8, 1057 (2006).

================================================================================
                                        WARNINGS
                       Please study these warnings very carefully!
================================================================================

WARNING: Old DensityContainer found on disk!
         Will remove this file - 
         If you want to keep old densities, please start your calculation with a different basename. 



WARNING: SCAN, rSCAN, or r2SCAN functional requested.
  ===> : libXC variant has now been activated.



================================================================================
                                       INPUT FILE
================================================================================
NAME = xtb_opt.inp
|  1> ! r2scan-3c def2/J RI DEFGRID2 scfconv7 ENGRAD tightSCF miniprint
|  2> * xyzfile 0 1 xtb_opt.xyz
|  3> 
|  4>                          ****END OF INPUT****
================================================================================

                     *******************************
                     * Energy+Gradient Calculation *
                     *******************************

---------------------------------
CARTESIAN COORDINATES (ANGSTROEM)
---------------------------------
  C     -2.484184    0.073798    0.376519
  C     -1.233910    0.689411   -0.237410
  C      0.031113    0.003145    0.213741
  O      0.096737   -0.954455    0.949317
  O      1.122851    0.615560   -0.318934
  C      2.384825    0.025641    0.052109
  H     -2.433205    0.097125    1.468653
  H     -3.373616    0.623519    0.056145
  H     -2.593349   -0.971799    0.075578
  H     -1.142333    1.754006    0.009716
  H     -1.259765    0.644703   -1.333444
  H      3.146512    0.633127   -0.439053
  H      2.437688   -1.012183   -0.291901
  H      2.514251    0.047765    1.138790

----------------------------
CARTESIAN COORDINATES (A.U.)
----------------------------
  NO LB      ZA    FRAG     MASS         X           Y           Z
   0 C     6.0000    0    12.011   -4.694427    0.139458    0.711518
   1 C     6.0000    0    12.011   -2.331753    1.302797   -0.448639
   2 C     6.0000    0    12.011    0.058795    0.005943    0.403912
   3 O     8.0000    0    15.999    0.182806   -1.803658    1.793949
   4 O     8.0000    0    15.999    2.121881    1.163240   -0.602698
   5 C     6.0000    0    12.011    4.506667    0.048454    0.098471
   6 H     1.0000    0     1.008   -4.598092    0.183540    2.775352
   7 H     1.0000    0     1.008   -6.375210    1.178279    0.106099
   8 H     1.0000    0     1.008   -4.900720   -1.836434    0.142821
   9 H     1.0000    0     1.008   -2.158696    3.314591    0.018360
  10 H     1.0000    0     1.008   -2.380611    1.218312   -2.519843
  11 H     1.0000    0     1.008    5.946045    1.196436   -0.829691
  12 H     1.0000    0     1.008    4.606563   -1.912749   -0.551613
  13 H     1.0000    0     1.008    4.751246    0.090263    2.152001

------------------------------------------------------------------------------
                   ___                                                        
                  /   \      - P O W E R E D   B Y -                         
                 /     \                                                     
                 |  |  |   _    _      __       _____    __    __             
                 |  |  |  | |  | |    /  \     |  _  \  |  |  /  |          
                  \  \/   | |  | |   /    \    | | | |  |  | /  /          
                 / \  \   | |__| |  /  /\  \   | |_| |  |  |/  /          
                |  |  |   |  __  | /  /__\  \  |    /   |      \           
                |  |  |   | |  | | |   __   |  |    \   |  |\   \          
                \     /   | |  | | |  |  |  |  | |\  \  |  | \   \       
                 \___/    |_|  |_| |__|  |__|  |_| \__\ |__|  \__/        
                                                                              
                      - O R C A' S   B I G   F R I E N D -                    
                                      &                                       
                       - I N T E G R A L  F E E D E R -                       
                                                                              
 v1 FN, 2020, v2 2021, v3 2022-2024                                           
------------------------------------------------------------------------------


----------------------
SHARK INTEGRAL PACKAGE
----------------------

Number of atoms                             ...     14
Number of basis functions                   ...    164
Number of shells                            ...     80
Maximum angular momentum                    ...      2
Integral batch strategy                     ... SHARK/LIBINT Hybrid
RI-J (if used) integral strategy            ... SPLIT-RIJ (Revised 2003 algorithm where possible)
Printlevel                                  ...      1
Contraction scheme used                     ... SEGMENTED contraction
Prescreening option                         ... SCHWARTZ
   Thresh                                   ... 3.000e-11
   Tcut                                     ... 1.000e-12
   Tpresel                                  ... 1.000e-12 
Coulomb Range Separation                    ... NOT USED
Exchange Range Separation                   ... NOT USED
Multipole approximations                    ... NOT USED
Finite Nucleus Model                        ... NOT USED
CABS basis                                  ... NOT available
Auxiliary Coulomb fitting basis             ... AVAILABLE
   # of basis functions in Aux-J            ...    382
   # of shells in Aux-J                     ...    130
   Maximum angular momentum in Aux-J        ...      4
Auxiliary J/K fitting basis                 ... NOT available
Auxiliary Correlation fitting basis         ... NOT available
Auxiliary 'external' fitting basis          ... NOT available

Checking pre-screening integrals            ... done (  0.0 sec) Dimension = 80
Check shell pair data                       ... done (  0.0 sec)
Shell pair information
Shell pair cut-off parameter TPreSel        ...   1.0e-12
Total number of shell pairs                 ...      3240
Shell pairs after pre-screening             ...      2999
Total number of primitive shell pairs       ...     11481
Primitive shell pairs kept                  ...      7906
          la=0 lb=0:    977 shell pairs
          la=1 lb=0:   1109 shell pairs
          la=1 lb=1:    327 shell pairs
          la=2 lb=0:    351 shell pairs
          la=2 lb=1:    199 shell pairs
          la=2 lb=2:     36 shell pairs

Calculating one electron integrals          ... done (  0.0 sec)
Calculating RI/J V-Matrix + Cholesky decomp.... done (  0.0 sec)
Calculating Nuclear repulsion               ... done (  0.0 sec) ENN=    244.793415525212 Eh

Diagonalization of the overlap matrix:
Smallest eigenvalue                        ... 1.791e-04
Time for diagonalization                   ...    0.002 sec
Threshold for overlap eigenvalues          ... 1.000e-07
Number of eigenvalues below threshold      ... 0
Time for construction of square roots      ...    0.001 sec
Total time needed                          ...    0.003 sec

-------------------
DFT GRID GENERATION
-------------------

General Integration Accuracy     IntAcc      ... 4.388
Radial Grid Type                 RadialGrid  ... OptM3 with GC (2021)
Angular Grid (max. ang.)         AngularGrid ... 4 (Lebedev-302)
Angular grid pruning method      GridPruning ... 4 (adaptive)
Weight generation scheme         WeightScheme... mBecke (2022)
Basis function cutoff            BFCut       ... 1.0000e-11
Integration weight cutoff        WCut        ... 1.0000e-14
Partially contracted basis set               ... off
Rotationally invariant grid construction     ... off
Angular grids for H and He will be reduced by one unit
Diffuse basis detected: some atoms will have their outermost
                        angular grid increased by 1.

Total number of grid points                  ...    62810
Total number of batches                      ...      990
Average number of points per batch           ...       63
Average number of grid points per atom       ...     4486
Initializing property integral containers    ... done (  0.0 sec)

SHARK setup successfully completed in   0.4 seconds

Maximum memory used throughout the entire STARTUP-calculation: 28.5 MB
Occupation numbers will be reassigned to an Aufbau configuration
             **** ENERGY FILE WAS UPDATED (xtb_opt.en.tmp) ****
Finished Guess after   0.0 sec
Maximum memory used throughout the entire GUESS-calculation: 11.6 MB
----------------------------------------D-I-I-S--------------------------------------------
Iteration    Energy (Eh)           Delta-E    RMSDP     MaxDP     DIISErr   Damp  Time(sec)
-------------------------------------------------------------------------------------------
               ***  Starting incremental Fock matrix formation  ***
                              *** Initializing SOSCF ***
---------------------------------------S-O-S-C-F--------------------------------------
Iteration    Energy (Eh)           Delta-E    RMSDP     MaxDP     MaxGrad    Time(sec)
--------------------------------------------------------------------------------------
    1    -307.6407880583965380     0.00e+00  4.25e-06  9.97e-05  3.44e-05     0.8
               *** Restarting incremental Fock matrix formation ***
    2    -307.6407880111992199     4.72e-08  9.98e-06  2.05e-04  9.26e-05     0.8
    3    -307.6407874801971047     5.31e-07  7.80e-06  1.73e-04  2.88e-04     0.6
    4    -307.6407880951526295    -6.15e-07  1.23e-06  3.09e-05  9.61e-06     0.6
                  *** Gradient check signals convergence ***

               *****************************************************
               *                     SUCCESS                       *
               *           SCF CONVERGED AFTER   4 CYCLES          *
               *****************************************************

             **** ENERGY FILE WAS UPDATED (xtb_opt.en.tmp) ****

----------------
TOTAL SCF ENERGY
----------------

Total Energy       :       -307.64078809515263 Eh           -8371.33143 eV

Components:
Nuclear Repulsion  :        244.79341552521211 Eh            6661.16748 eV
Electronic Energy  :       -552.43420362036477 Eh          -15032.49892 eV
One Electron Energy:       -903.14106274191204 Eh          -24575.71772 eV
Two Electron Energy:        350.70685912154732 Eh            9543.21880 eV

Virial components:
Potential Energy   :       -613.91399792113873 Eh          -16705.44917 eV
Kinetic Energy     :        306.27320982598610 Eh            8334.11774 eV
Virial Ratio       :          2.00446522328853

DFT components:
N(Alpha)           :       24.000003320930 electrons
N(Beta)            :       24.000003320930 electrons
N(Total)           :       48.000006641859 electrons
E(X)               :      -40.196739192717 Eh       
E(C)               :       -1.536734867108 Eh       
E(XC)              :      -41.733474059825 Eh       

---------------
SCF CONVERGENCE
---------------

  Last Energy change         ...    6.1496e-07  Tolerance :   1.0000e-07
  Last MAX-Density change    ...    3.0905e-05  Tolerance :   1.0000e-07
  Last RMS-Density change    ...    1.2302e-06  Tolerance :   5.0000e-09
  Last DIIS Error            ...    1.2730e-04  Tolerance :   1.0000e-07
  Last Orbital Gradient      ...    9.6066e-06  Tolerance :   1.0000e-04
  Last Orbital Rotation      ...    2.6216e-05  Tolerance :   1.0000e-04


----------------
ORBITAL ENERGIES
----------------

  NO   OCC          E(Eh)            E(eV) 
   0   2.0000     -18.997222      -516.9407 
   1   2.0000     -18.937089      -515.3044 
   2   2.0000     -10.155916      -276.3565 
   3   2.0000     -10.086253      -274.4609 
   4   2.0000     -10.049192      -273.4524 
   5   2.0000     -10.026355      -272.8310 
   6   2.0000      -1.064196       -28.9583 
   7   2.0000      -0.979560       -26.6552 
   8   2.0000      -0.756983       -20.5986 
   9   2.0000      -0.689979       -18.7753 
  10   2.0000      -0.609908       -16.5964 
  11   2.0000      -0.524481       -14.2719 
  12   2.0000      -0.470964       -12.8156 
  13   2.0000      -0.457597       -12.4519 
  14   2.0000      -0.438979       -11.9452 
  15   2.0000      -0.417992       -11.3741 
  16   2.0000      -0.397193       -10.8082 
  17   2.0000      -0.356827        -9.7098 
  18   2.0000      -0.349270        -9.5041 
  19   2.0000      -0.342644        -9.3238 
  20   2.0000      -0.322865        -8.7856 
  21   2.0000      -0.318441        -8.6652 
  22   2.0000      -0.274625        -7.4729 
  23   2.0000      -0.242689        -6.6039 
  24   0.0000      -0.018558        -0.5050 
  25   0.0000       0.066155         1.8002 
  26   0.0000       0.085419         2.3244 
  27   0.0000       0.114918         3.1271 
  28   0.0000       0.132594         3.6081 
  29   0.0000       0.151224         4.1150 
  30   0.0000       0.154212         4.1963 
  31   0.0000       0.166234         4.5235 
  32   0.0000       0.184090         5.0093 
  33   0.0000       0.184913         5.0317 
  34   0.0000       0.191971         5.2238 
*Only the first 10 virtual orbitals were printed.
Total SCF time: 0 days 0 hours 0 min 2 sec 
Finished LeanSCF after   2.9 sec

Maximum memory used throughout the entire LEANSCF-calculation: 17.4 MB


-------------------------------------------------------------------------------
                          DFT DISPERSION CORRECTION                            
                                                                               
                                DFTD4 V3.4.0                                   
-------------------------------------------------------------------------------
-------------------------   ----------------
Dispersion correction           -0.002939591
-------------------------   ----------------

------------------   -----------------
gCP correction             0.009183043
------------------   -----------------

-------------------------   --------------------
FINAL SINGLE POINT ENERGY      -307.634544643926
-------------------------   --------------------

------------------------------------------------------------------------------
                         ORCA SCF GRADIENT CALCULATION
------------------------------------------------------------------------------

Nuc. rep. gradient        (SHARK) ... done (  0.0 sec)
HCore & Overlap gradient  (SHARK) ... done (  0.1 sec)
Split-RIJ-J gradient      (SHARK) ... done (  0.5 sec)
XC gradient                       ... done (  2.4 sec)
Dispersion correction             ... done (  0.0 sec)

-------------------
DISPERSION GRADIENT
-------------------

   1   C   :   -0.000060573   -0.000001232    0.000005986
   2   C   :   -0.000044539    0.000020311   -0.000013405
   3   C   :    0.000015065   -0.000002149    0.000000239
   4   O   :    0.000011946   -0.000035884    0.000026494
   5   O   :    0.000046326    0.000009331   -0.000010515
   6   C   :    0.000063821   -0.000008531    0.000002379
   7   H   :   -0.000022814   -0.000001032    0.000008908
   8   H   :   -0.000024988    0.000003109   -0.000000029
   9   H   :   -0.000023424   -0.000006930    0.000001044
  10   H   :   -0.000015745    0.000017396   -0.000002934
  11   H   :   -0.000016770    0.000007329   -0.000014918
  12   H   :    0.000024799    0.000003034   -0.000003778
  13   H   :    0.000023337   -0.000003754   -0.000001625
  14   H   :    0.000023560   -0.000000999    0.000002155

Difference to translation invariance:
           :    0.0000000000   -0.0000000000   -0.0000000000

Difference to rotation invariance:
           :    0.0000000000    0.0000000000    0.0000000000

Norm of the Dispersion gradient    ...    0.0001408950
RMS gradient                       ...    0.0000217406
MAX gradient                       ...    0.0000638206
gCP correction                   ... done

------------------
CARTESIAN GRADIENT
------------------

   1   C   :   -0.000148137    0.000120603   -0.000107078
   2   C   :    0.000755310    0.000227113    0.000201470
   3   C   :   -0.002622227   -0.000350342   -0.000680452
   4   O   :    0.000238526   -0.001386422    0.001506687
   5   O   :    0.002333146    0.001591345   -0.000961904
   6   C   :   -0.000995751    0.000381244   -0.000202438
   7   H   :    0.000099550   -0.000095854    0.000665518
   8   H   :   -0.000109293    0.000295439   -0.000065013
   9   H   :   -0.000175122   -0.000576789   -0.000278773
  10   H   :   -0.000028736    0.000266710   -0.000109736
  11   H   :    0.000066495   -0.000145228   -0.000212435
  12   H   :    0.000426860    0.000465548   -0.000324470
  13   H   :    0.000000254   -0.000773043   -0.000296485
  14   H   :    0.000159126   -0.000020324    0.000865109

Difference to translation invariance:
           :    0.0000000000    0.0000000000    0.0000000000

Difference to rotation invariance:
           :    0.0001052522   -0.0001133860    0.0000847080

Norm of the Cartesian gradient     ...    0.0050621860
RMS gradient                       ...    0.0007811123
MAX gradient                       ...    0.0026222274

-------
TIMINGS
-------

Total SCF gradient time     ....        3.038 sec

Densities                   ....       0.000 sec  (  0.0%)
One electron gradient       ....       0.099 sec  (  3.2%)
RI-J Coulomb gradient       ....       0.545 sec  ( 18.0%)
XC gradient                 ....       2.370 sec  ( 78.0%)

Maximum memory used throughout the entire SCFGRAD-calculation: 31.6 MB

------------------------------------------------------------------------------
                              ORCA PROPERTY CALCULATIONS
------------------------------------------------------------------------------

GBWName                                 ... xtb_opt.gbw
Number of atoms                         ...     14
Number of basis functions               ...    164
Max core memory                         ...   1024 MB

Electric properties:
Dipole moment                           ... YES
Quadrupole moment                       ...  NO
Static polarizability (Dipole/Dipole)   ...  NO
Static polarizability (Dipole/Quad.)    ...  NO
Static polarizability (Quad./Quad.)     ...  NO
Static polarizability (Velocity)        ...  NO

Atomic electric properties:
Dipole moment                           ...  NO
Quadrupole moment                       ...  NO
Static polarizability                   ...  NO

Choice of electric origin               ... Center of mass
Position of electric origin             ...     0.024592     0.127006     0.335439

General magnetic properties:
Magnetizability                         ...  NO

EPR properties:
g-Tensor (aka g-matrix)                 ...  NO
Zero-Field splitting spin-orbit         ...  NO
Zero-field splitting spin-spin          ...  NO
Hyperfine couplings                     ...  NO (   0 nuclei)
Quadrupole couplings                    ...  NO (   0 nuclei)
Contact density                         ...  NO (   0 nuclei)

NMR properties:
Chemical shifts                         ...  NO (   0 nuclei)
Spin-rotation constants                 ...  NO (   0 nuclei)
Spin-spin couplings                     ...  NO (   0 nuclei,    0 pairs)

Choice of magnetic origin               ... GIAO
Position of magnetic origin             ...     0.000000     0.000000     0.000000

Properties with geometric perturbations:
SCF Hessian                             ...  NO
IR spectrum                             ...  NO
VCD spectrum                            ...  NO
X-ray spectroscopy properties:
SCF XES/XAS/RIXS spectra                ...  NO


-------------
DIPOLE MOMENT
-------------

Method             : SCF
Type of density    : Electron Density
Multiplicity       :   1
Irrep              :   0
Energy             :  -307.6407880951526295 Eh
Relativity type    : 
Basis              : AO
                                X                 Y                 Z
Electronic contribution:      2.772682338      -0.683592000       0.279889800
Nuclear contribution   :     -2.616675915       1.192547566      -0.686023256
                        -----------------------------------------
Total Dipole Moment    :      0.156006423       0.508955566      -0.406133456
                        -----------------------------------------
Magnitude (a.u.)       :      0.669565647
Magnitude (Debye)      :      1.701900623



--------------------
Rotational spectrum 
--------------------
 
Rotational constants in cm-1:             0.316020             0.071425             0.060223 
Rotational constants in MHz :          9474.048365          2141.268834          1805.434566 

Dipole components along the rotational axes: 
x,y,z [a.u.] :     0.168133     0.648111    -0.001298 
x,y,z [Debye]:     0.427360     1.647367    -0.003300 

 

Dipole moment calculation done in   0.0 sec 

Maximum memory used throughout the entire PROP-calculation: 9.9 MB

--------------------------------
SUGGESTED CITATIONS FOR THIS RUN
--------------------------------

Below you find a list of papers that are relevant to this ORCA run
We neither can nor want to force you to cite these papers, but we appreciate if you do
You receive ORCA, which is the product of decades of hard work by many enthusiastic individuals, for free
The only thing we kindly ask in return is that you cite our papers,
We deeply appreciate it, if you show your appreciation for ORCA by not just citing the generic ORCA reference.

Please note that relegating all ORCA citations to the supporting information does *not* help us.
SI sections are not indexed - citations you put there will not count into any citation statistics
But we need these citations in order to attract the funding resources that allow us to do what we are doing

Therefore, if you are a happy ORCA user, please consider citing a few of the papers listed below in the main body of your paper

In addition to the list printed below, the program has created the file xtb_opt.bibtex that contains the list in bibtex format
You can import this file easily into all common literature databanks and citation aid programs


List of essential papers. We consider these as the minimum necessary citations

  1. Neese,F.
     Software update: the ORCA program system, version 5.0
     WIRES Comput. Molec. Sci., 2022 12(1)e1606
     doi.org/10.1002/wcms.1606
  2. Grimme,S.; Hansen,A.; Ehlert,S.; Mewes,J.
     r2SCAN-3c: A 'Swiss army knife' composite electronic-structure method
     J. Chem. Phys., 2021 154 064103
     doi.org/10.1063/5.0040021

List of papers to cite with high priority. The work reported in these papers was absolutely
necessary for this run to complete.
Our perspective: the developers of density functionals and basis sets usually get cited in chemistry papers
Good! But without the algorithms to do something with them, the functionals or basis sets would not do anything.
Hence, in our opinion, the algorithm design and method developments papers are equally worthy of getting cited

  1. Neese,F.
     An improvement of the resolution of the identity approximation for the formation of the Coulomb matrix
     J. Comp. Chem., 2003 24(14)1740-1747
     doi.org/10.1002/jcc.10318
  2. Neese,F.
     The SHARK Integral Generation and Digestion System
     J. Comp. Chem., 2022  1-16
     doi.org/10.1002/jcc.26942
  3. Lehtola,S.; Steigemann,C.; Oliveira,M.; Marques,M.
     Recent developments in Libxc - A comprehensive library of functionals for density functional theory
     Software X, 2018 7 
     doi.org/10.1016/j.softx.2017.11.002
  4. Caldeweyher,E.; Bannwarth,C.; Grimme,S.
     Extension of the D3 dispersion coefficient model
     J. Chem. Phys., 2017 147 034112
     doi.org/10.1063/1.4993215
  5. Caldeweyher,E.; Ehlert,S.; Hansen,A.; Neugebauer,H.; Spicher,S.; Bannwarth,C.; Grimme,S.
     A generally applicable atomic-charge dependent London dispersion correction
     J. Chem. Phys., 2019 150 154122
     doi.org/10.1063/1.5090222
  6. Caldeweyher,E.; Mewes,J.; Ehlert,S.; Grimme,S.
     Extension and evaluation of the D4 London-dispersion model for periodic systems
     Phys. Chem. Chem. Phys., 2020 22(16)8499-8512
     doi.org/10.1039/D0CP00502A
  7. Wittmann,L.; Gordiy,I.; Friede,M.; Helmich-Paris,B.; Grimme,S.; Hansen,A.; Bursch,M.
     Extension of the D3 and D4 London Dispersion Corrections to the full Actinides Series
     Phys. Chem. Chem. Phys., 2024 26(32)21379-21394
     doi.org/https://doi.org/10.1039/D4CP01514B 

List of suggested additional citations. These are papers that are important in the 'surrounding' of 
of this run, or papers that preceded the highly important papers. If you like your results we are grateful for a citation.

  1. Neese,F.
     The ORCA program system
     WIRES Comput. Molec. Sci., 2012 2(1)73-78
     doi.org/10.1002/wcms.81
  2. Neese,F.
     Software update: the ORCA program system, version 4.0
     WIRES Comput. Molec. Sci., 2018 8(1)1-6
     doi.org/10.1002/wcms.1327
  3. Neese,F.; Wennmohs,F.; Becker,U.; Riplinger,C.
     The ORCA quantum chemistry program package
     J. Chem. Phys., 2020 152 Art. No. L224108
     doi.org/10.1063/5.0004608

List of optional additional citations

  1. Neese,F.
     Approximate second-order SCF convergence for spin unrestricted wavefunctions
     Chem. Phys. Lett., 2000 325(1-3)93-98
     doi.org/10.1016/s0009-2614(00)00662-x

Timings for individual modules:

Sum of individual times          ...        6.480 sec (=   0.108 min)
Startup calculation              ...        0.419 sec (=   0.007 min)   6.5 %
SCF iterations                   ...        2.936 sec (=   0.049 min)  45.3 %
Property calculations            ...        0.046 sec (=   0.001 min)   0.7 %
SCF Gradient evaluation          ...        3.079 sec (=   0.051 min)  47.5 %
                             ****ORCA TERMINATED NORMALLY****
TOTAL RUN TIME: 0 days 0 hours 0 minutes 6 seconds 560 msec
  ------------------------------------------------------------------------
          * successful ORCA run, taking over control again...

         :::::::::::::::::::::::::::::::::::::::::::::::::::::
         ::                  ORCA SUMMARY                   ::
         :::::::::::::::::::::::::::::::::::::::::::::::::::::
         :: total energy            -307.634544643926 Eh    ::
         :: gradient norm              0.005062186003 Eh/a0 ::
         :: HOMO-LUMO gap              0.000000000000 eV    ::
         :::::::::::::::::::::::::::::::::::::::::::::::::::::

      ----------------------------------------------------------- 
     |                       L-ANC optimizer                     |
      ----------------------------------------------------------- 
          low memory version by Sebastian Ehlert

          ...................................................
          :                      SETUP                      :
          :.................................................:
          :   energy convergence        0.5000000E-05 Eh    :
          :   grad. convergence         0.1000000E-02 Eh/a0 :
          :   optimization log               true           :
          :   writing optlog all                1     steps :
          :   Hessian reset                     8     steps :
          :   maximium step len.        1.0000000     a0    :
          :   LBFGS images                      8           :
          ...................................................
 * calculating model hessian...
Using Lindh-Hessian (1995)
 Shifting diagonal of input Hessian by    1.0000000000000000E-002
 Lowest  eigenvalues of input Hessian
    0.000000    0.000000    0.000000    0.000000    0.000000    0.000000
    0.013182    0.015484    0.017313    0.022106    0.032717    0.037904
    0.040750    0.054407    0.063684    0.064835    0.077687    0.094802
 Highest eigenvalues
    1.144197    1.151416    1.217015    1.309957    1.707308    2.298136


........................................................................
.............................. CYCLE    1 ..............................
........................................................................
                         * ORCA takes the control...
  ------------------------------------------------------------------------

                                 *****************
                                 * O   R   C   A *
                                 *****************

                                            #,                                       
                                            ###                                      
                                            ####                                     
                                            #####                                    
                                            ######                                   
                                           ########,                                 
                                     ,,################,,,,,                         
                               ,,#################################,,                 
                          ,,##########################################,,             
                       ,#########################################, ''#####,          
                    ,#############################################,,   '####,        
                  ,##################################################,,,,####,       
                ,###########''''           ''''###############################       
              ,#####''   ,,,,##########,,,,          '''####'''          '####       
            ,##' ,,,,###########################,,,                        '##       
           ' ,,###''''                  '''############,,,                           
         ,,##''                                '''############,,,,        ,,,,,,###''
      ,#''                                            '''#######################'''  
     '                                                          ''''####''''         
             ,#######,   #######,   ,#######,      ##                                
            ,#'     '#,  ##    ##  ,#'     '#,    #''#        ,####,   ,####,        
            ##       ##  ##   ,#'  ##            #'  '#       #'       #'  '#        
            ##       ##  #######   ##           ,######,      #####,   #    #        
            '#,     ,#'  ##    ##  '#,     ,#' ,#      #,     #,   #   #,  ,#        
             '#######'   ##     ##  '#######'  #'      '#     '####' # '####'        



                #########################################################
                #                        -***-                          #
                #          Department of theory and spectroscopy        #
                #                                                       #
                #                      Frank Neese                      #
                #                                                       #
                #     Directorship, Architecture, Infrastructure        #
                #                    SHARK, DRIVERS                     #
                #        Core code/Algorithms in most modules           #
                #                                                       #
                #        Max Planck Institute fuer Kohlenforschung      #
                #                Kaiser Wilhelm Platz 1                 #
                #                 D-45470 Muelheim/Ruhr                 #
                #                      Germany                          #
                #                                                       #
                #                  All rights reserved                  #
                #                        -***-                          #
                #########################################################


                         Program Version 6.0.1  -  RELEASE   -


 With contributions from (in alphabetic order):
[Max-Planck-Institut fuer Kohlenforschung]                               
  Daniel Aravena         : Magnetic Suceptibility                        
  Michael Atanasov       : Ab Initio Ligand Field Theory (pilot matlab implementation)
  Alexander A. Auer      : GIAO ZORA, VPT2 properties, NMR spectrum      
  Ute Becker             : All parallelization in ORCA, NUMFREQ, NUMCALC 
  Giovanni Bistoni       : ED, misc. LED, open-shell LED, HFLD           
  Martin Brehm           : Molecular dynamics                            
  Dmytro Bykov           : pre 5.0 version of the SCF Hessian            
  Marcos Casanova-Páez   : Triplet and SCS-CIS(D). UHF-(DLPNO)-IP/EA/STEOM-CCSD. UHF-CVS-IP/STEOM-CCSD   
  Vijay G. Chilkuri      : MRCI spin determinant printing, contributions to CSF-ICE 
  Pauline Colinet        : FMM embedding                                 
  Dipayan Datta          : RHF DLPNO-CCSD density                        
  Achintya Kumar Dutta   : EOM-CC, STEOM-CC                              
  Nicolas Foglia         : Exact transition moments, OPA infrastructure, MCD improvements    
  Dmitry Ganyushin       : Spin-Orbit,Spin-Spin,Magnetic field MRCI      
  Miquel Garcia-Rates    : C-PCM and meta-GGA Hessian, CCSD/C-PCM, Gaussian charge scheme 
  Tiago L. C. Gouveia    : GS-ROHF, GS-ROCIS                             
  Yang Guo               : DLPNO-NEVPT2, F12-NEVPT2, CIM, IAO-localization        
  Andreas Hansen         : Spin unrestricted coupled pair/coupled cluster methods 
  Ingolf Harden          : AUTO-CI MPn and infrastructure                
  Benjamin Helmich-Paris : MC-RPA, TRAH-(SCF,CASSCF), AVAS, COSX integrals, SCF dyn. polar. 
  Lee Huntington         : MR-EOM, pCC                                   
  Robert Izsak           : Overlap fitted RIJCOSX, COSX-SCS-MP3, EOM     
  Riya Kayal             : Wick's Theorem for AUTO-CI, AUTO-CI UHF-CCSDT 
  Emily Kempfer          : AUTO-CI, RHF CISDT and CCSDT                  
  Christian Kollmar      : KDIIS, OOCD, Brueckner-CCSD(T), CCSD density, CASPT2, CASPT2-K, improved NEVPT2 
  Axel Koslowski         : Symmetry handling                             
  Simone Kossmann        : meta-GGA functionals, TD-DFT gradient, OOMP2, (MP2 Hessian; deprecated post 5.0) 
  Lucas Lang             : DCDCAS                                        
  Marvin Lechner         : AUTO-CI (C++ implementation), FIC-MRCC        
  Spencer Leger          : CASSCF response                               
  Dagmar Lenk            : GEPOL surface, SMD, ORCA-2-JSON               
  Dimitrios Liakos       : Extrapolation schemes; Compound Job, initial MDCI parallelization 
  Dimitrios Manganas     : Further ROCIS development; embedding schemes. LFT, Crystal Embedding 
  Dimitrios Pantazis     : SARC Basis sets                               
  Anastasios Papadopoulos: AUTO-CI, single reference methods and gradients 
  Taras Petrenko         : pre 6.0 DFT Hessian and TD-DFT gradient, (ASA, deprecated), ECA, 1-Electron XAS/XES, NRVS 
  Peter Pinski           : DLPNO-MP2, DLPNO-MP2 Gradient                 
  Christoph Reimann      : Effective Core Potentials                     
  Marius Retegan         : Local ZFS, SOC                                
  Christoph Riplinger    : Optimizer, TS searches, QM/MM, DLPNO-CCSD(T), (RO)-DLPNO pert. Triples 
  Michael Roemelt        : Original ROCIS implementation                 
  Masaaki Saitow         : Open-shell DLPNO-CCSD energy and density      
  Barbara Sandhoefer     : DKH picture change effects                    
  Kantharuban Sivalingam : CASSCF convergence/infrastructure, NEVPT2 and variants, FIC-MRCI 
  Bernardo de Souza      : ESD, SOC TD-DFT                               
  Georgi L. Stoychev     : AutoAux, RI-MP2 NMR, DLPNO-MP2 response, X2C  
  Van Anh Tran           : RI-MP2 g-tensors                              
  Willem Van den Heuvel  : Paramagnetic NMR                              
  Zikuan Wang            : NOTCH, Electric field optimization            
  Frank Wennmohs         : Technical directorship and infrastructure     
  Hang Xu                : AUTO-CI-Response properties                   
                                                                         
[FACCTs GmbH]                                                            
  Markus Bursch, Miquel Garcia-Rates, Christoph Riplinger, Bernardo de Souza, Georgi L. Stoychev 
                                                                 
  APM, Basis sets (HGBS, AHGBS, def-TZVP (Ac-Lr), def2-XVPD (La-Lu)), CI-OPT, improved COSX, DLPNO-Multilevel,           
  DOCKER, DRACO, updates on ESD, GOAT, IRC, LR-CPCM, MBIS, meta-GGA TD-DFT gradient, ML-optimized integration grids, 
  MM, NACMEs, nearIR, NEB, NEB-TS, NL-DFT gradient (VV10), 2- and 3-layer-ONIOM, interface openCOSMO-RS, QMMM,   
  Crystal-QMMM, SF, symmetry and pop. for TD-DFT, r2SCAN hybrids, SOLVATOR                                   
                                                                         
[Other institutions]                                                     
  V. Asgeirsson          : NEB                                           
  Christoph Bannwarth    : sTDA-DFT, sTD-DFT, PBEh-3c, B97-3c, D3        
  Sebastian Ehlert       : rSCAN, r2SCAN, r2SCAN-3c, D4, dhf basis sets  
  Marvin Friede          : D4 for Fr, Ra, Ac-Lr                          
  Lars Goerigk           : TD-DFT with DH, B97 family of functionals     
  Stefan Grimme          : VdW corrections, initial TS optimization, DFT functionals, gCP, sTDA/sTD-DF 
  Waldemar Hujo          : DFT-NL                                        
  H. Jonsson             : NEB                                           
  Holger Kruse           : gCP                                           
  Marcel Mueller         : wB97X-3c, vDZP basis set                      
  Hagen Neugebauer       : wr2SCAN                                       
  Tobias Risthaus        : range-separated hybrid DFT                    
  Lukas Wittmann         : regularized MP2, r2SCAN double-hybrids, wr2SCAN        
                                                                         
We gratefully acknowledge several colleagues who have allowed us to      
interface, adapt or use parts of their codes:                            
  Ed Valeev, F. Pavosevic, A. Kumar             : LibInt (2-el integral package), F12 methods 
  Garnet Chan, S. Sharma, J. Yang, R. Olivares  : DMRG                   
  Ulf Ekstrom                                   : XCFun DFT Library      
  Mihaly Kallay                                 : mrcc  (arbitrary order and MRCC methods)
  Frank Weinhold                                : gennbo (NPA and NBO analysis)           
  Simon Mueller                                 : openCOSMO-RS                            
  Christopher J. Cramer and Donald G. Truhlar   : smd solvation model                     
  S Lehtola, MJT Oliveira, MAL Marques          : LibXC Library                           
  Liviu Ungur et al                             : ANISO software                          


 Your calculation uses the libint2 library for the computation of 2-el integrals
 For citations please refer to: http://libint.valeyev.net

 Your ORCA version has been built with support for libXC version: 6.2.2
 For citations please refer to: https://libxc.gitlab.io

 This ORCA versions uses:
   CBLAS   interface :  Fast vector & matrix operations
   LAPACKE interface :  Fast linear algebra routines
   SCALAPACK package :  Parallel linear algebra routines
   Shared memory     :  Shared parallel matrices
   BLAS/LAPACK       :  OpenBLAS 0.3.27  USE64BITINT DYNAMIC_ARCH NO_AFFINITY Zen SINGLE_THREADED
        Core in use  :  Zen
   Copyright (c) 2011-2014, The OpenBLAS Project




***************************************
The coordinates will be read from file: xtb_opt.xyz
***************************************


Your calculation utilizes the geometrical counterpoise correction gCP
Please cite in your paper:
H.Kruse, S. Grimme J.Chem.Phys., 136, (2012), 154101 
   

Your calculation utilizes the atom-pairwise dispersion correction
based on EEQ partial charges (D4)


================================================================================

----- Orbital basis set information -----
Your calculation utilizes the basis: def2-mTZVPP
   Stefan Grimme, Andreas Hansen, Sebastian Ehlert, and Jan-Michael Mewes 
   J. Chem. Phys. 154, 064103 (2021). DOI: 10.1063/5.0040021

----- AuxJ basis set information -----
Your calculation utilizes the auxiliary basis: def2/J
   F. Weigend, Phys. Chem. Chem. Phys. 8, 1057 (2006).

================================================================================
                                        WARNINGS
                       Please study these warnings very carefully!
================================================================================

WARNING: Old DensityContainer found on disk!
         Will remove this file - 
         If you want to keep old densities, please start your calculation with a different basename. 



WARNING: SCAN, rSCAN, or r2SCAN functional requested.
  ===> : libXC variant has now been activated.



================================================================================
                                       INPUT FILE
================================================================================
NAME = xtb_opt.inp
|  1> ! r2scan-3c def2/J RI DEFGRID2 scfconv7 ENGRAD tightSCF miniprint
|  2> * xyzfile 0 1 xtb_opt.xyz
|  3> 
|  4>                          ****END OF INPUT****
================================================================================

                     *******************************
                     * Energy+Gradient Calculation *
                     *******************************

---------------------------------
CARTESIAN COORDINATES (ANGSTROEM)
---------------------------------
  C     -2.483946    0.073637    0.375910
  C     -1.234230    0.690289   -0.236657
  C      0.031830    0.005862    0.216031
  O      0.096460   -0.954100    0.946886
  O      1.122251    0.614341   -0.318577
  C      2.385006    0.024659    0.051626
  H     -2.434834    0.099328    1.467255
  H     -3.374514    0.619769    0.053677
  H     -2.589906   -0.972191    0.077534
  H     -1.143743    1.754277    0.012154
  H     -1.259417    0.647176   -1.332512
  H      3.146176    0.630781   -0.440036
  H      2.437740   -1.012623   -0.290599
  H      2.514741    0.048159    1.137135

----------------------------
CARTESIAN COORDINATES (A.U.)
----------------------------
  NO LB      ZA    FRAG     MASS         X           Y           Z
   0 C     6.0000    0    12.011   -4.693977    0.139154    0.710367
   1 C     6.0000    0    12.011   -2.332357    1.304457   -0.447217
   2 C     6.0000    0    12.011    0.060150    0.011077    0.408239
   3 O     8.0000    0    15.999    0.182282   -1.802988    1.789355
   4 O     8.0000    0    15.999    2.120747    1.160936   -0.602024
   5 C     6.0000    0    12.011    4.507008    0.046599    0.097558
   6 H     1.0000    0     1.008   -4.601169    0.187702    2.772710
   7 H     1.0000    0     1.008   -6.376907    1.171193    0.101435
   8 H     1.0000    0     1.008   -4.894212   -1.837175    0.146518
   9 H     1.0000    0     1.008   -2.161361    3.315103    0.022968
  10 H     1.0000    0     1.008   -2.379953    1.222986   -2.518083
  11 H     1.0000    0     1.008    5.945411    1.192004   -0.831548
  12 H     1.0000    0     1.008    4.606661   -1.913580   -0.549152
  13 H     1.0000    0     1.008    4.752171    0.091008    2.148874

------------------------------------------------------------------------------
                   ___                                                        
                  /   \      - P O W E R E D   B Y -                         
                 /     \                                                     
                 |  |  |   _    _      __       _____    __    __             
                 |  |  |  | |  | |    /  \     |  _  \  |  |  /  |          
                  \  \/   | |  | |   /    \    | | | |  |  | /  /          
                 / \  \   | |__| |  /  /\  \   | |_| |  |  |/  /          
                |  |  |   |  __  | /  /__\  \  |    /   |      \           
                |  |  |   | |  | | |   __   |  |    \   |  |\   \          
                \     /   | |  | | |  |  |  |  | |\  \  |  | \   \       
                 \___/    |_|  |_| |__|  |__|  |_| \__\ |__|  \__/        
                                                                              
                      - O R C A' S   B I G   F R I E N D -                    
                                      &                                       
                       - I N T E G R A L  F E E D E R -                       
                                                                              
 v1 FN, 2020, v2 2021, v3 2022-2024                                           
------------------------------------------------------------------------------


----------------------
SHARK INTEGRAL PACKAGE
----------------------

Number of atoms                             ...     14
Number of basis functions                   ...    164
Number of shells                            ...     80
Maximum angular momentum                    ...      2
Integral batch strategy                     ... SHARK/LIBINT Hybrid
RI-J (if used) integral strategy            ... SPLIT-RIJ (Revised 2003 algorithm where possible)
Printlevel                                  ...      1
Contraction scheme used                     ... SEGMENTED contraction
Prescreening option                         ... SCHWARTZ
   Thresh                                   ... 3.000e-11
   Tcut                                     ... 1.000e-12
   Tpresel                                  ... 1.000e-12 
Coulomb Range Separation                    ... NOT USED
Exchange Range Separation                   ... NOT USED
Multipole approximations                    ... NOT USED
Finite Nucleus Model                        ... NOT USED
CABS basis                                  ... NOT available
Auxiliary Coulomb fitting basis             ... AVAILABLE
   # of basis functions in Aux-J            ...    382
   # of shells in Aux-J                     ...    130
   Maximum angular momentum in Aux-J        ...      4
Auxiliary J/K fitting basis                 ... NOT available
Auxiliary Correlation fitting basis         ... NOT available
Auxiliary 'external' fitting basis          ... NOT available

Checking pre-screening integrals            ... done (  0.0 sec) Dimension = 80
Check shell pair data                       ... done (  0.0 sec)
Shell pair information
Shell pair cut-off parameter TPreSel        ...   1.0e-12
Total number of shell pairs                 ...      3240
Shell pairs after pre-screening             ...      2999
Total number of primitive shell pairs       ...     11481
Primitive shell pairs kept                  ...      7906
          la=0 lb=0:    977 shell pairs
          la=1 lb=0:   1109 shell pairs
          la=1 lb=1:    327 shell pairs
          la=2 lb=0:    351 shell pairs
          la=2 lb=1:    199 shell pairs
          la=2 lb=2:     36 shell pairs

Calculating one electron integrals          ... done (  0.0 sec)
Calculating RI/J V-Matrix + Cholesky decomp.... done (  0.0 sec)
Calculating Nuclear repulsion               ... done (  0.0 sec) ENN=    244.893681818578 Eh

Diagonalization of the overlap matrix:
Smallest eigenvalue                        ... 1.793e-04
Time for diagonalization                   ...    0.002 sec
Threshold for overlap eigenvalues          ... 1.000e-07
Number of eigenvalues below threshold      ... 0
Time for construction of square roots      ...    0.001 sec
Total time needed                          ...    0.004 sec

-------------------
DFT GRID GENERATION
-------------------

General Integration Accuracy     IntAcc      ... 4.388
Radial Grid Type                 RadialGrid  ... OptM3 with GC (2021)
Angular Grid (max. ang.)         AngularGrid ... 4 (Lebedev-302)
Angular grid pruning method      GridPruning ... 4 (adaptive)
Weight generation scheme         WeightScheme... mBecke (2022)
Basis function cutoff            BFCut       ... 1.0000e-11
Integration weight cutoff        WCut        ... 1.0000e-14
Partially contracted basis set               ... off
Rotationally invariant grid construction     ... off
Angular grids for H and He will be reduced by one unit
Diffuse basis detected: some atoms will have their outermost
                        angular grid increased by 1.

Total number of grid points                  ...    62800
Total number of batches                      ...      990
Average number of points per batch           ...       63
Average number of grid points per atom       ...     4486
Initializing property integral containers    ... done (  0.0 sec)

SHARK setup successfully completed in   0.4 seconds

Maximum memory used throughout the entire STARTUP-calculation: 28.5 MB
Occupation numbers will be reassigned to an Aufbau configuration
             **** ENERGY FILE WAS UPDATED (xtb_opt.en.tmp) ****
Finished Guess after   0.0 sec
Maximum memory used throughout the entire GUESS-calculation: 11.6 MB
----------------------------------------D-I-I-S--------------------------------------------
Iteration    Energy (Eh)           Delta-E    RMSDP     MaxDP     DIISErr   Damp  Time(sec)
-------------------------------------------------------------------------------------------
               ***  Starting incremental Fock matrix formation  ***
                              *** Initializing SOSCF ***
---------------------------------------S-O-S-C-F--------------------------------------
Iteration    Energy (Eh)           Delta-E    RMSDP     MaxDP     MaxGrad    Time(sec)
--------------------------------------------------------------------------------------
    1    -307.6407974276544337     0.00e+00  5.80e-05  1.16e-03  1.56e-04     0.8
               *** Restarting incremental Fock matrix formation ***
    2    -307.6408209552749895    -2.35e-05  2.48e-05  4.20e-04  1.45e-04     0.8
    3    -307.6408222570755697    -1.30e-06  1.09e-05  2.17e-04  1.06e-04     0.6
    4    -307.6408221747391281     8.23e-08  7.96e-06  1.47e-04  1.75e-04     0.6
                 **** Energy Check signals convergence ****

               *****************************************************
               *                     SUCCESS                       *
               *           SCF CONVERGED AFTER   4 CYCLES          *
               *****************************************************

             **** ENERGY FILE WAS UPDATED (xtb_opt.en.tmp) ****

----------------
TOTAL SCF ENERGY
----------------

Total Energy       :       -307.64082217473913 Eh           -8371.33236 eV

Components:
Nuclear Repulsion  :        244.89368181857785 Eh            6663.89587 eV
Electronic Energy  :       -552.53450399331700 Eh          -15035.22823 eV
One Electron Energy:       -903.34034902604674 Eh          -24581.14058 eV
Two Electron Energy:        350.80584503272974 Eh            9545.91235 eV

Virial components:
Potential Energy   :       -613.93135814117386 Eh          -16705.92157 eV
Kinetic Energy     :        306.29053596643473 Eh            8334.58921 eV
Virial Ratio       :          2.00440851430177

DFT components:
N(Alpha)           :       24.000002113762 electrons
N(Beta)            :       24.000002113762 electrons
N(Total)           :       48.000004227524 electrons
E(X)               :      -40.200788030473 Eh       
E(C)               :       -1.536887028023 Eh       
E(XC)              :      -41.737675058496 Eh       

---------------
SCF CONVERGENCE
---------------

  Last Energy change         ...   -8.2336e-08  Tolerance :   1.0000e-07
  Last MAX-Density change    ...    1.4702e-04  Tolerance :   1.0000e-07
  Last RMS-Density change    ...    7.9600e-06  Tolerance :   5.0000e-09
  Last DIIS Error            ...    2.4282e-03  Tolerance :   1.0000e-07
  Last Orbital Gradient      ...    1.7465e-04  Tolerance :   1.0000e-04
  Last Orbital Rotation      ...    2.3157e-04  Tolerance :   1.0000e-04


----------------
ORBITAL ENERGIES
----------------

  NO   OCC          E(Eh)            E(eV) 
   0   2.0000     -18.996538      -516.9221 
   1   2.0000     -18.937128      -515.3055 
   2   2.0000     -10.155448      -276.3438 
   3   2.0000     -10.086038      -274.4550 
   4   2.0000     -10.048955      -273.4460 
   5   2.0000     -10.025893      -272.8184 
   6   2.0000      -1.064672       -28.9712 
   7   2.0000      -0.979788       -26.6614 
   8   2.0000      -0.756900       -20.5963 
   9   2.0000      -0.690335       -18.7850 
  10   2.0000      -0.609933       -16.5971 
  11   2.0000      -0.524571       -14.2743 
  12   2.0000      -0.470964       -12.8156 
  13   2.0000      -0.457739       -12.4557 
  14   2.0000      -0.439050       -11.9472 
  15   2.0000      -0.418060       -11.3760 
  16   2.0000      -0.397293       -10.8109 
  17   2.0000      -0.357071        -9.7164 
  18   2.0000      -0.349391        -9.5074 
  19   2.0000      -0.342626        -9.3233 
  20   2.0000      -0.322576        -8.7777 
  21   2.0000      -0.318412        -8.6644 
  22   2.0000      -0.274615        -7.4726 
  23   2.0000      -0.242592        -6.6013 
  24   0.0000      -0.017916        -0.4875 
  25   0.0000       0.066231         1.8022 
  26   0.0000       0.085494         2.3264 
  27   0.0000       0.115083         3.1316 
  28   0.0000       0.132809         3.6139 
  29   0.0000       0.151659         4.1269 
  30   0.0000       0.154415         4.2018 
  31   0.0000       0.166387         4.5276 
  32   0.0000       0.184299         5.0150 
  33   0.0000       0.185165         5.0386 
  34   0.0000       0.192090         5.2270 
*Only the first 10 virtual orbitals were printed.
Total SCF time: 0 days 0 hours 0 min 2 sec 
Finished LeanSCF after   2.9 sec

Maximum memory used throughout the entire LEANSCF-calculation: 17.4 MB


-------------------------------------------------------------------------------
                          DFT DISPERSION CORRECTION                            
                                                                               
                                DFTD4 V3.4.0                                   
-------------------------------------------------------------------------------
-------------------------   ----------------
Dispersion correction           -0.002939823
-------------------------   ----------------

------------------   -----------------
gCP correction             0.009197185
------------------   -----------------

-------------------------   --------------------
FINAL SINGLE POINT ENERGY      -307.634564813138
-------------------------   --------------------

------------------------------------------------------------------------------
                         ORCA SCF GRADIENT CALCULATION
------------------------------------------------------------------------------

Nuc. rep. gradient        (SHARK) ... done (  0.0 sec)
HCore & Overlap gradient  (SHARK) ... done (  0.1 sec)
Split-RIJ-J gradient      (SHARK) ... done (  0.5 sec)
XC gradient                       ... done (  2.3 sec)
Dispersion correction             ... done (  0.0 sec)

-------------------
DISPERSION GRADIENT
-------------------

   1   C   :   -0.000060567   -0.000001229    0.000005972
   2   C   :   -0.000044530    0.000020334   -0.000013358
   3   C   :    0.000015063   -0.000002110    0.000000277
   4   O   :    0.000011923   -0.000035859    0.000026399
   5   O   :    0.000046347    0.000009305   -0.000010499
   6   C   :    0.000063768   -0.000008492    0.000002351
   7   H   :   -0.000022816   -0.000001012    0.000008920
   8   H   :   -0.000025007    0.000003088   -0.000000059
   9   H   :   -0.000023405   -0.000006963    0.000001047
  10   H   :   -0.000015758    0.000017396   -0.000002901
  11   H   :   -0.000016764    0.000007344   -0.000014903
  12   H   :    0.000024851    0.000003057   -0.000003825
  13   H   :    0.000023327   -0.000003856   -0.000001658
  14   H   :    0.000023566   -0.000001003    0.000002237

Difference to translation invariance:
           :    0.0000000000   -0.0000000000   -0.0000000000

Difference to rotation invariance:
           :    0.0000000000   -0.0000000000   -0.0000000000

Norm of the Dispersion gradient    ...    0.0001408551
RMS gradient                       ...    0.0000217344
MAX gradient                       ...    0.0000637682
gCP correction                   ... done

------------------
CARTESIAN GRADIENT
------------------

   1   C   :   -0.000141793    0.000033423   -0.000019589
   2   C   :    0.000420646   -0.000242942   -0.000163504
   3   C   :   -0.001537133   -0.000256304    0.001223894
   4   O   :    0.000174187   -0.000018810   -0.000273742
   5   O   :    0.001266654    0.000548493   -0.000640025
   6   C   :   -0.000363155    0.000117140   -0.000127867
   7   H   :    0.000081305   -0.000087300    0.000115269
   8   H   :   -0.000024091    0.000115146    0.000062831
   9   H   :   -0.000110209   -0.000077224   -0.000118517
  10   H   :    0.000063977   -0.000014046   -0.000051979
  11   H   :   -0.000065022   -0.000057808   -0.000108062
  12   H   :    0.000134194    0.000086658   -0.000025511
  13   H   :    0.000057465   -0.000132101   -0.000048099
  14   H   :    0.000042975   -0.000014325    0.000174901

Difference to translation invariance:
           :    0.0000000000    0.0000000000    0.0000000000

Difference to rotation invariance:
           :    0.0000795793   -0.0001212589    0.0001064723

Norm of the Cartesian gradient     ...    0.0026417308
RMS gradient                       ...    0.0004076279
MAX gradient                       ...    0.0015371328

-------
TIMINGS
-------

Total SCF gradient time     ....        3.004 sec

Densities                   ....       0.000 sec  (  0.0%)
One electron gradient       ....       0.097 sec  (  3.2%)
RI-J Coulomb gradient       ....       0.549 sec  ( 18.3%)
XC gradient                 ....       2.330 sec  ( 77.6%)

Maximum memory used throughout the entire SCFGRAD-calculation: 31.6 MB

------------------------------------------------------------------------------
                              ORCA PROPERTY CALCULATIONS
------------------------------------------------------------------------------

GBWName                                 ... xtb_opt.gbw
Number of atoms                         ...     14
Number of basis functions               ...    164
Max core memory                         ...   1024 MB

Electric properties:
Dipole moment                           ... YES
Quadrupole moment                       ...  NO
Static polarizability (Dipole/Dipole)   ...  NO
Static polarizability (Dipole/Quad.)    ...  NO
Static polarizability (Quad./Quad.)     ...  NO
Static polarizability (Velocity)        ...  NO

Atomic electric properties:
Dipole moment                           ...  NO
Quadrupole moment                       ...  NO
Static polarizability                   ...  NO

Choice of electric origin               ... Center of mass
Position of electric origin             ...     0.024502     0.127306     0.335233

General magnetic properties:
Magnetizability                         ...  NO

EPR properties:
g-Tensor (aka g-matrix)                 ...  NO
Zero-Field splitting spin-orbit         ...  NO
Zero-field splitting spin-spin          ...  NO
Hyperfine couplings                     ...  NO (   0 nuclei)
Quadrupole couplings                    ...  NO (   0 nuclei)
Contact density                         ...  NO (   0 nuclei)

NMR properties:
Chemical shifts                         ...  NO (   0 nuclei)
Spin-rotation constants                 ...  NO (   0 nuclei)
Spin-spin couplings                     ...  NO (   0 nuclei,    0 pairs)

Choice of magnetic origin               ... GIAO
Position of magnetic origin             ...     0.000000     0.000000     0.000000

Properties with geometric perturbations:
SCF Hessian                             ...  NO
IR spectrum                             ...  NO
VCD spectrum                            ...  NO
X-ray spectroscopy properties:
SCF XES/XAS/RIXS spectra                ...  NO


-------------
DIPOLE MOMENT
-------------

Method             : SCF
Type of density    : Electron Density
Multiplicity       :   1
Irrep              :   0
Energy             :  -307.6408221747391281 Eh
Relativity type    : 
Basis              : AO
                                X                 Y                 Z
Electronic contribution:      2.777721604      -0.679286205       0.280559246
Nuclear contribution   :     -2.616274673       1.189848402      -0.685113213
                        -----------------------------------------
Total Dipole Moment    :      0.161446931       0.510562197      -0.404553967
                        -----------------------------------------
Magnitude (a.u.)       :      0.671120541
Magnitude (Debye)      :      1.705852849



--------------------
Rotational spectrum 
--------------------
 
Rotational constants in cm-1:             0.316673             0.071432             0.060248 
Rotational constants in MHz :          9493.624932          2141.469428          1806.182141 

Dipole components along the rotational axes: 
x,y,z [a.u.] :     0.173239     0.648375     0.000662 
x,y,z [Debye]:     0.440339     1.648039     0.001683 

 

Dipole moment calculation done in   0.0 sec 

Maximum memory used throughout the entire PROP-calculation: 9.9 MB

--------------------------------
SUGGESTED CITATIONS FOR THIS RUN
--------------------------------

Below you find a list of papers that are relevant to this ORCA run
We neither can nor want to force you to cite these papers, but we appreciate if you do
[...]
    2    -307.6408429557616273     3.17e-09  3.73e-06  7.97e-05  3.31e-05     0.8
    3    -307.6408429033119774     5.24e-08  2.68e-06  5.95e-05  7.18e-05     0.6
                 **** Energy Check signals convergence ****

               *****************************************************
               *                     SUCCESS                       *
               *           SCF CONVERGED AFTER   3 CYCLES          *
               *****************************************************

             **** ENERGY FILE WAS UPDATED (xtb_opt.en.tmp) ****

----------------
TOTAL SCF ENERGY
----------------

Total Energy       :       -307.64084290331198 Eh           -8371.33293 eV

Components:
Nuclear Repulsion  :        244.95074771938923 Eh            6665.44871 eV
Electronic Energy  :       -552.59159062270123 Eh          -15036.78164 eV
One Electron Energy:       -903.45301342611469 Eh          -24584.20633 eV
Two Electron Energy:        350.86142280341346 Eh            9547.42470 eV

Virial components:
Potential Energy   :       -613.93179104273395 Eh          -16705.93335 eV
Kinetic Energy     :        306.29094813942203 Eh            8334.60042 eV
Virial Ratio       :          2.00440723035431

DFT components:
N(Alpha)           :       23.999995098233 electrons
N(Beta)            :       23.999995098233 electrons
N(Total)           :       47.999990196465 electrons
E(X)               :      -40.201423880760 Eh       
E(C)               :       -1.536920598538 Eh       
E(XC)              :      -41.738344479299 Eh       

---------------
SCF CONVERGENCE
---------------

  Last Energy change         ...   -5.2450e-08  Tolerance :   1.0000e-07
  Last MAX-Density change    ...    5.9462e-05  Tolerance :   1.0000e-07
  Last RMS-Density change    ...    2.6760e-06  Tolerance :   5.0000e-09
  Last DIIS Error            ...    7.5647e-05  Tolerance :   1.0000e-07
  Last Orbital Gradient      ...    7.1782e-05  Tolerance :   1.0000e-04
  Last Orbital Rotation      ...    6.5410e-05  Tolerance :   1.0000e-04


----------------
ORBITAL ENERGIES
----------------

  NO   OCC          E(Eh)            E(eV) 
   0   2.0000     -18.997440      -516.9466 
   1   2.0000     -18.936091      -515.2772 
   2   2.0000     -10.155542      -276.3464 
   3   2.0000     -10.086375      -274.4642 
   4   2.0000     -10.048813      -273.4421 
   5   2.0000     -10.025653      -272.8119 
   6   2.0000      -1.065349       -28.9896 
   7   2.0000      -0.979535       -26.6545 
   8   2.0000      -0.756714       -20.5912 
   9   2.0000      -0.690858       -18.7992 
  10   2.0000      -0.609741       -16.5919 
  11   2.0000      -0.524916       -14.2837 
  12   2.0000      -0.470889       -12.8135 
  13   2.0000      -0.457986       -12.4624 
  14   2.0000      -0.439151       -11.9499 
  15   2.0000      -0.418148       -11.3784 
  16   2.0000      -0.397160       -10.8073 
  17   2.0000      -0.356940        -9.7128 
  18   2.0000      -0.349392        -9.5074 
  19   2.0000      -0.342597        -9.3225 
  20   2.0000      -0.322527        -8.7764 
  21   2.0000      -0.318208        -8.6589 
  22   2.0000      -0.274969        -7.4823 
  23   2.0000      -0.242133        -6.5888 
  24   0.0000      -0.017599        -0.4789 
  25   0.0000       0.065876         1.7926 
  26   0.0000       0.085318         2.3216 
  27   0.0000       0.115056         3.1308 
  28   0.0000       0.132795         3.6135 
  29   0.0000       0.151992         4.1359 
  30   0.0000       0.154491         4.2039 
  31   0.0000       0.166442         4.5291 
  32   0.0000       0.184225         5.0130 
  33   0.0000       0.185133         5.0377 
  34   0.0000       0.191963         5.2236 
*Only the first 10 virtual orbitals were printed.
Total SCF time: 0 days 0 hours 0 min 2 sec 
Finished LeanSCF after   2.4 sec

Maximum memory used throughout the entire LEANSCF-calculation: 17.4 MB


-------------------------------------------------------------------------------
                          DFT DISPERSION CORRECTION                            
                                                                               
                                DFTD4 V3.4.0                                   
-------------------------------------------------------------------------------
-------------------------   ----------------
Dispersion correction           -0.002940361
-------------------------   ----------------

------------------   -----------------
gCP correction             0.009198932
------------------   -----------------

-------------------------   --------------------
FINAL SINGLE POINT ENERGY      -307.634584332820
-------------------------   --------------------

------------------------------------------------------------------------------
                         ORCA SCF GRADIENT CALCULATION
------------------------------------------------------------------------------

Nuc. rep. gradient        (SHARK) ... done (  0.0 sec)
HCore & Overlap gradient  (SHARK) ... done (  0.1 sec)
Split-RIJ-J gradient      (SHARK) ... done (  0.6 sec)
XC gradient                       ... done (  2.5 sec)
Dispersion correction             ... done (  0.0 sec)

-------------------
DISPERSION GRADIENT
-------------------

   1   C   :   -0.000060551   -0.000001319    0.000005954
   2   C   :   -0.000044518    0.000020540   -0.000013184
   3   C   :    0.000015123   -0.000002094    0.000000227
   4   O   :    0.000011776   -0.000035894    0.000026232
   5   O   :    0.000046450    0.000009249   -0.000010522
   6   C   :    0.000063627   -0.000008549    0.000002259
   7   H   :   -0.000022887   -0.000000895    0.000008934
   8   H   :   -0.000025029    0.000002949   -0.000000197
   9   H   :   -0.000023270   -0.000007026    0.000001189
  10   H   :   -0.000015763    0.000017440   -0.000002738
  11   H   :   -0.000016744    0.000007544   -0.000014861
  12   H   :    0.000024862    0.000003003   -0.000003869
  13   H   :    0.000023310   -0.000003918   -0.000001667
  14   H   :    0.000023613   -0.000001029    0.000002242

Difference to translation invariance:
           :    0.0000000000   -0.0000000000   -0.0000000000

Difference to rotation invariance:
           :   -0.0000000000    0.0000000000   -0.0000000000

Norm of the Dispersion gradient    ...    0.0001408096
RMS gradient                       ...    0.0000217274
MAX gradient                       ...    0.0000636272
gCP correction                   ... done

------------------
CARTESIAN GRADIENT
------------------

   1   C   :    0.000063731   -0.000000620   -0.000021421
   2   C   :   -0.000062582    0.000029124   -0.000032967
   3   C   :    0.000275609    0.000323213   -0.000184180
   4   O   :   -0.000074753   -0.000297732    0.000164445
   5   O   :   -0.000305218    0.000027945   -0.000021047
   6   C   :    0.000137449   -0.000072254    0.000047525
   7   H   :    0.000013472   -0.000012535    0.000097860
   8   H   :   -0.000020132    0.000039052   -0.000008435
   9   H   :   -0.000019704   -0.000079973   -0.000016709
  10   H   :    0.000022542    0.000031443   -0.000012414
  11   H   :   -0.000025209    0.000004007   -0.000056108
  12   H   :    0.000012489    0.000061131   -0.000015056
  13   H   :    0.000003674   -0.000056147   -0.000020114
  14   H   :   -0.000021367    0.000003346    0.000078622

Difference to translation invariance:
           :    0.0000000000   -0.0000000000   -0.0000000000

Difference to rotation invariance:
           :    0.0000974636   -0.0001124586    0.0000936759

Norm of the Cartesian gradient     ...    0.0007109991
RMS gradient                       ...    0.0001097095
MAX gradient                       ...    0.0003232133

-------
TIMINGS
-------

Total SCF gradient time     ....        3.169 sec

Densities                   ....       0.000 sec  (  0.0%)
One electron gradient       ....       0.106 sec  (  3.4%)
RI-J Coulomb gradient       ....       0.581 sec  ( 18.3%)
XC gradient                 ....       2.455 sec  ( 77.5%)

Maximum memory used throughout the entire SCFGRAD-calculation: 31.6 MB

------------------------------------------------------------------------------
                              ORCA PROPERTY CALCULATIONS
------------------------------------------------------------------------------

GBWName                                 ... xtb_opt.gbw
Number of atoms                         ...     14
Number of basis functions               ...    164
Max core memory                         ...   1024 MB

Electric properties:
Dipole moment                           ... YES
Quadrupole moment                       ...  NO
Static polarizability (Dipole/Dipole)   ...  NO
Static polarizability (Dipole/Quad.)    ...  NO
Static polarizability (Quad./Quad.)     ...  NO
Static polarizability (Velocity)        ...  NO

Atomic electric properties:
Dipole moment                           ...  NO
Quadrupole moment                       ...  NO
Static polarizability                   ...  NO

Choice of electric origin               ... Center of mass
Position of electric origin             ...     0.024049     0.127359     0.333335

General magnetic properties:
Magnetizability                         ...  NO

EPR properties:
g-Tensor (aka g-matrix)                 ...  NO
Zero-Field splitting spin-orbit         ...  NO
Zero-field splitting spin-spin          ...  NO
Hyperfine couplings                     ...  NO (   0 nuclei)
Quadrupole couplings                    ...  NO (   0 nuclei)
Contact density                         ...  NO (   0 nuclei)

NMR properties:
Chemical shifts                         ...  NO (   0 nuclei)
Spin-rotation constants                 ...  NO (   0 nuclei)
Spin-spin couplings                     ...  NO (   0 nuclei,    0 pairs)

Choice of magnetic origin               ... GIAO
Position of magnetic origin             ...     0.000000     0.000000     0.000000

Properties with geometric perturbations:
SCF Hessian                             ...  NO
IR spectrum                             ...  NO
VCD spectrum                            ...  NO
X-ray spectroscopy properties:
SCF XES/XAS/RIXS spectra                ...  NO


-------------
DIPOLE MOMENT
-------------

Method             : SCF
Type of density    : Electron Density
Multiplicity       :   1
Irrep              :   0
Energy             :  -307.6408429033119774 Eh
Relativity type    : 
Basis              : AO
                                X                 Y                 Z
Electronic contribution:      2.785851551      -0.676416608       0.268353612
Nuclear contribution   :     -2.613728001       1.188856812      -0.671732497
                        -----------------------------------------
Total Dipole Moment    :      0.172123550       0.512440204      -0.403378884
                        -----------------------------------------
Magnitude (a.u.)       :      0.674489439
Magnitude (Debye)      :      1.714415908



--------------------
Rotational spectrum 
--------------------
 
Rotational constants in cm-1:             0.316859             0.071486             0.060291 
Rotational constants in MHz :          9499.185861          2143.099945          1807.474343 

Dipole components along the rotational axes: 
x,y,z [a.u.] :     0.183617     0.649013     0.001798 
x,y,z [Debye]:     0.466719     1.649659     0.004569 

 

Dipole moment calculation done in   0.0 sec 

Maximum memory used throughout the entire PROP-calculation: 9.9 MB

--------------------------------
SUGGESTED CITATIONS FOR THIS RUN
--------------------------------

Below you find a list of papers that are relevant to this ORCA run
We neither can nor want to force you to cite these papers, but we appreciate if you do
You receive ORCA, which is the product of decades of hard work by many enthusiastic individuals, for free
The only thing we kindly ask in return is that you cite our papers,
We deeply appreciate it, if you show your appreciation for ORCA by not just citing the generic ORCA reference.

Please note that relegating all ORCA citations to the supporting information does *not* help us.
SI sections are not indexed - citations you put there will not count into any citation statistics
But we need these citations in order to attract the funding resources that allow us to do what we are doing

Therefore, if you are a happy ORCA user, please consider citing a few of the papers listed below in the main body of your paper

In addition to the list printed below, the program has created the file xtb_opt.bibtex that contains the list in bibtex format
You can import this file easily into all common literature databanks and citation aid programs


List of essential papers. We consider these as the minimum necessary citations

  1. Neese,F.
     Software update: the ORCA program system, version 5.0
     WIRES Comput. Molec. Sci., 2022 12(1)e1606
     doi.org/10.1002/wcms.1606
  2. Grimme,S.; Hansen,A.; Ehlert,S.; Mewes,J.
     r2SCAN-3c: A 'Swiss army knife' composite electronic-structure method
     J. Chem. Phys., 2021 154 064103
     doi.org/10.1063/5.0040021

List of papers to cite with high priority. The work reported in these papers was absolutely
necessary for this run to complete.
Our perspective: the developers of density functionals and basis sets usually get cited in chemistry papers
Good! But without the algorithms to do something with them, the functionals or basis sets would not do anything.
Hence, in our opinion, the algorithm design and method developments papers are equally worthy of getting cited

  1. Neese,F.
     An improvement of the resolution of the identity approximation for the formation of the Coulomb matrix
     J. Comp. Chem., 2003 24(14)1740-1747
     doi.org/10.1002/jcc.10318
  2. Neese,F.
     The SHARK Integral Generation and Digestion System
     J. Comp. Chem., 2022  1-16
     doi.org/10.1002/jcc.26942
  3. Lehtola,S.; Steigemann,C.; Oliveira,M.; Marques,M.
     Recent developments in Libxc - A comprehensive library of functionals for density functional theory
     Software X, 2018 7 
     doi.org/10.1016/j.softx.2017.11.002
  4. Caldeweyher,E.; Bannwarth,C.; Grimme,S.
     Extension of the D3 dispersion coefficient model
     J. Chem. Phys., 2017 147 034112
     doi.org/10.1063/1.4993215
  5. Caldeweyher,E.; Ehlert,S.; Hansen,A.; Neugebauer,H.; Spicher,S.; Bannwarth,C.; Grimme,S.
     A generally applicable atomic-charge dependent London dispersion correction
     J. Chem. Phys., 2019 150 154122
     doi.org/10.1063/1.5090222
  6. Caldeweyher,E.; Mewes,J.; Ehlert,S.; Grimme,S.
     Extension and evaluation of the D4 London-dispersion model for periodic systems
     Phys. Chem. Chem. Phys., 2020 22(16)8499-8512
     doi.org/10.1039/D0CP00502A
  7. Wittmann,L.; Gordiy,I.; Friede,M.; Helmich-Paris,B.; Grimme,S.; Hansen,A.; Bursch,M.
     Extension of the D3 and D4 London Dispersion Corrections to the full Actinides Series
     Phys. Chem. Chem. Phys., 2024 26(32)21379-21394
     doi.org/https://doi.org/10.1039/D4CP01514B 

List of suggested additional citations. These are papers that are important in the 'surrounding' of 
of this run, or papers that preceded the highly important papers. If you like your results we are grateful for a citation.

  1. Neese,F.
     The ORCA program system
     WIRES Comput. Molec. Sci., 2012 2(1)73-78
     doi.org/10.1002/wcms.81
  2. Neese,F.
     Software update: the ORCA program system, version 4.0
     WIRES Comput. Molec. Sci., 2018 8(1)1-6
     doi.org/10.1002/wcms.1327
  3. Neese,F.; Wennmohs,F.; Becker,U.; Riplinger,C.
     The ORCA quantum chemistry program package
     J. Chem. Phys., 2020 152 Art. No. L224108
     doi.org/10.1063/5.0004608

List of optional additional citations

  1. Neese,F.
     Approximate second-order SCF convergence for spin unrestricted wavefunctions
     Chem. Phys. Lett., 2000 325(1-3)93-98
     doi.org/10.1016/s0009-2614(00)00662-x

Timings for individual modules:

Sum of individual times          ...        6.100 sec (=   0.102 min)
Startup calculation              ...        0.411 sec (=   0.007 min)   6.7 %
SCF iterations                   ...        2.427 sec (=   0.040 min)  39.8 %
Property calculations            ...        0.046 sec (=   0.001 min)   0.7 %
SCF Gradient evaluation          ...        3.216 sec (=   0.054 min)  52.7 %
                             ****ORCA TERMINATED NORMALLY****
TOTAL RUN TIME: 0 days 0 hours 0 minutes 6 seconds 182 msec
  ------------------------------------------------------------------------
          * successful ORCA run, taking over control again...

         :::::::::::::::::::::::::::::::::::::::::::::::::::::
         ::                  ORCA SUMMARY                   ::
         :::::::::::::::::::::::::::::::::::::::::::::::::::::
         :: total energy            -307.634584332820 Eh    ::
         :: gradient norm              0.000710999079 Eh/a0 ::
         :: HOMO-LUMO gap              0.000000000000 eV    ::
         :::::::::::::::::::::::::::::::::::::::::::::::::::::

           -------------------------------------------------
          |                Property Printout                |
           -------------------------------------------------
           -------------------------------------------------
          |                Geometry Summary                 |
           -------------------------------------------------

      molecular mass/u    :       88.1052794
   center of mass at/Å    :        0.0127377       0.0673908       0.1763960
  moments of inertia/u·Å² :        0.5320244E+02   0.2358109E+03   0.2795997E+03
rotational constants/cm⁻¹ :        0.3168583E+00   0.7148794E-01   0.6029202E-01

 * 12 selected distances

     #   Z          #   Z                                           value/Å
     1   6          2   6                                         1.5218712 (max)
     3   6          4   8                                         1.2087781
     3   6          5   8                                         1.3555144
     5   8          6   6                                         1.4431266
     1   6          7   1                                         1.0927399
     1   6          8   1                                         1.0932779
     1   6          9   1                                         1.0926392
     2   6         10   1                                         1.0965530
     2   6         11   1                                         1.0969154
     6   6         12   1                                         1.0899749 (min)
     6   6         13   1                                         1.0933000
     6   6         14   1                                         1.0932599

 * 3 distinct bonds (by element types)

   Z      Z             #   av. dist./Å        max./Å        min./Å
   1 H    6 C           8     1.0935825     1.0969154     1.0899749
   6 C    6 C           1     1.5218712     1.5218712     1.5218712
   6 C    8 O           3     1.3358064     1.4431266     1.2087781


optimized geometry written to: xtbopt.coord


           -------------------------------------------------
          | TOTAL ENERGY             -307.634584332820 Eh   |
          | GRADIENT NORM               0.000710999079 Eh/α |
           -------------------------------------------------

------------------------------------------------------------------------
 * finished run on 2025/04/08 at 22:37:15.654     
------------------------------------------------------------------------
 total:
 * wall-time:     0 d,  0 h,  0 min, 49.636 sec
 *  cpu-time:     0 d,  0 h,  0 min,  0.513 sec
 * ratio c/w:     0.010 speedup
 SCF:
 * wall-time:     0 d,  0 h,  0 min,  6.579 sec
 *  cpu-time:     0 d,  0 h,  0 min,  0.069 sec
 * ratio c/w:     0.010 speedup
 ANC optimizer:
 * wall-time:     0 d,  0 h,  0 min, 42.901 sec
 *  cpu-time:     0 d,  0 h,  0 min,  0.005 sec
 * ratio c/w:     0.000 speedup

