
                                 *****************
                                 * O   R   C   A *
                                 *****************

                                            #,                                       
                                            ###                                      
                                            ####                                     
                                            #####                                    
                                            ######                                   
                                           ########,                                 
                                     ,,################,,,,,                         
                               ,,#################################,,                 
                          ,,##########################################,,             
                       ,#########################################, ''#####,          
                    ,#############################################,,   '####,        
                  ,##################################################,,,,####,       
                ,###########''''           ''''###############################       
              ,#####''   ,,,,##########,,,,          '''####'''          '####       
            ,##' ,,,,###########################,,,                        '##       
           ' ,,###''''                  '''############,,,                           
         ,,##''                                '''############,,,,        ,,,,,,###''
      ,#''                                            '''#######################'''  
     '                                                          ''''####''''         
             ,#######,   #######,   ,#######,      ##                                
            ,#'     '#,  ##    ##  ,#'     '#,    #''#        ,####,   ,####,        
            ##       ##  ##   ,#'  ##            #'  '#       #'       #'  '#        
            ##       ##  #######   ##           ,######,      #####,   #    #        
            '#,     ,#'  ##    ##  '#,     ,#' ,#      #,     #,   #   #,  ,#        
             '#######'   ##     ##  '#######'  #'      '#     '####' # '####'        



                #########################################################
                #                        -***-                          #
                #          Department of theory and spectroscopy        #
                #                                                       #
                #                      Frank Neese                      #
                #                                                       #
                #     Directorship, Architecture, Infrastructure        #
                #                    SHARK, DRIVERS                     #
                #        Core code/Algorithms in most modules           #
                #                                                       #
                #        Max Planck Institute fuer Kohlenforschung      #
                #                Kaiser Wilhelm Platz 1                 #
                #                 D-45470 Muelheim/Ruhr                 #
                #                      Germany                          #
                #                                                       #
                #                  All rights reserved                  #
                #                        -***-                          #
                #########################################################


                         Program Version 6.0.1  -  RELEASE   -


 With contributions from (in alphabetic order):
[Max-Planck-Institut fuer Kohlenforschung]                               
  Daniel Aravena         : Magnetic Suceptibility                        
  Michael Atanasov       : Ab Initio Ligand Field Theory (pilot matlab implementation)
  Alexander A. Auer      : GIAO ZORA, VPT2 properties, NMR spectrum      
  Ute Becker             : All parallelization in ORCA, NUMFREQ, NUMCALC 
  Giovanni Bistoni       : ED, misc. LED, open-shell LED, HFLD           
  Martin Brehm           : Molecular dynamics                            
  Dmytro Bykov           : pre 5.0 version of the SCF Hessian            
  Marcos Casanova-Páez   : Triplet and SCS-CIS(D). UHF-(DLPNO)-IP/EA/STEOM-CCSD. UHF-CVS-IP/STEOM-CCSD   
  Vijay G. Chilkuri      : MRCI spin determinant printing, contributions to CSF-ICE 
  Pauline Colinet        : FMM embedding                                 
  Dipayan Datta          : RHF DLPNO-CCSD density                        
  Achintya Kumar Dutta   : EOM-CC, STEOM-CC                              
  Nicolas Foglia         : Exact transition moments, OPA infrastructure, MCD improvements    
  Dmitry Ganyushin       : Spin-Orbit,Spin-Spin,Magnetic field MRCI      
  Miquel Garcia-Rates    : C-PCM and meta-GGA Hessian, CCSD/C-PCM, Gaussian charge scheme 
  Tiago L. C. Gouveia    : GS-ROHF, GS-ROCIS                             
  Yang Guo               : DLPNO-NEVPT2, F12-NEVPT2, CIM, IAO-localization        
  Andreas Hansen         : Spin unrestricted coupled pair/coupled cluster methods 
  Ingolf Harden          : AUTO-CI MPn and infrastructure                
  Benjamin Helmich-Paris : MC-RPA, TRAH-(SCF,CASSCF), AVAS, COSX integrals, SCF dyn. polar. 
  Lee Huntington         : MR-EOM, pCC                                   
  Robert Izsak           : Overlap fitted RIJCOSX, COSX-SCS-MP3, EOM     
  Riya Kayal             : Wick's Theorem for AUTO-CI, AUTO-CI UHF-CCSDT 
  Emily Kempfer          : AUTO-CI, RHF CISDT and CCSDT                  
  Christian Kollmar      : KDIIS, OOCD, Brueckner-CCSD(T), CCSD density, CASPT2, CASPT2-K, improved NEVPT2 
  Axel Koslowski         : Symmetry handling                             
  Simone Kossmann        : meta-GGA functionals, TD-DFT gradient, OOMP2, (MP2 Hessian; deprecated post 5.0) 
  Lucas Lang             : DCDCAS                                        
  Marvin Lechner         : AUTO-CI (C++ implementation), FIC-MRCC        
  Spencer Leger          : CASSCF response                               
  Dagmar Lenk            : GEPOL surface, SMD, ORCA-2-JSON               
  Dimitrios Liakos       : Extrapolation schemes; Compound Job, initial MDCI parallelization 
  Dimitrios Manganas     : Further ROCIS development; embedding schemes. LFT, Crystal Embedding 
  Dimitrios Pantazis     : SARC Basis sets                               
  Anastasios Papadopoulos: AUTO-CI, single reference methods and gradients 
  Taras Petrenko         : pre 6.0 DFT Hessian and TD-DFT gradient, (ASA, deprecated), ECA, 1-Electron XAS/XES, NRVS 
  Peter Pinski           : DLPNO-MP2, DLPNO-MP2 Gradient                 
  Christoph Reimann      : Effective Core Potentials                     
  Marius Retegan         : Local ZFS, SOC                                
  Christoph Riplinger    : Optimizer, TS searches, QM/MM, DLPNO-CCSD(T), (RO)-DLPNO pert. Triples 
  Michael Roemelt        : Original ROCIS implementation                 
  Masaaki Saitow         : Open-shell DLPNO-CCSD energy and density      
  Barbara Sandhoefer     : DKH picture change effects                    
  Kantharuban Sivalingam : CASSCF convergence/infrastructure, NEVPT2 and variants, FIC-MRCI 
  Bernardo de Souza      : ESD, SOC TD-DFT                               
  Georgi L. Stoychev     : AutoAux, RI-MP2 NMR, DLPNO-MP2 response, X2C  
  Van Anh Tran           : RI-MP2 g-tensors                              
  Willem Van den Heuvel  : Paramagnetic NMR                              
  Zikuan Wang            : NOTCH, Electric field optimization            
  Frank Wennmohs         : Technical directorship and infrastructure     
  Hang Xu                : AUTO-CI-Response properties                   
                                                                         
[FACCTs GmbH]                                                            
  Markus Bursch, Miquel Garcia-Rates, Christoph Riplinger, Bernardo de Souza, Georgi L. Stoychev 
                                                                 
  APM, Basis sets (HGBS, AHGBS, def-TZVP (Ac-Lr), def2-XVPD (La-Lu)), CI-OPT, improved COSX, DLPNO-Multilevel,           
  DOCKER, DRACO, updates on ESD, GOAT, IRC, LR-CPCM, MBIS, meta-GGA TD-DFT gradient, ML-optimized integration grids, 
  MM, NACMEs, nearIR, NEB, NEB-TS, NL-DFT gradient (VV10), 2- and 3-layer-ONIOM, interface openCOSMO-RS, QMMM,   
  Crystal-QMMM, SF, symmetry and pop. for TD-DFT, r2SCAN hybrids, SOLVATOR                                   
                                                                         
[Other institutions]                                                     
  V. Asgeirsson          : NEB                                           
  Christoph Bannwarth    : sTDA-DFT, sTD-DFT, PBEh-3c, B97-3c, D3        
  Sebastian Ehlert       : rSCAN, r2SCAN, r2SCAN-3c, D4, dhf basis sets  
  Marvin Friede          : D4 for Fr, Ra, Ac-Lr                          
  Lars Goerigk           : TD-DFT with DH, B97 family of functionals     
  Stefan Grimme          : VdW corrections, initial TS optimization, DFT functionals, gCP, sTDA/sTD-DF 
  Waldemar Hujo          : DFT-NL                                        
  H. Jonsson             : NEB                                           
  Holger Kruse           : gCP                                           
  Marcel Mueller         : wB97X-3c, vDZP basis set                      
  Hagen Neugebauer       : wr2SCAN                                       
  Tobias Risthaus        : range-separated hybrid DFT                    
  Lukas Wittmann         : regularized MP2, r2SCAN double-hybrids, wr2SCAN        
                                                                         
We gratefully acknowledge several colleagues who have allowed us to      
interface, adapt or use parts of their codes:                            
  Ed Valeev, F. Pavosevic, A. Kumar             : LibInt (2-el integral package), F12 methods 
  Garnet Chan, S. Sharma, J. Yang, R. Olivares  : DMRG                   
  Ulf Ekstrom                                   : XCFun DFT Library      
  Mihaly Kallay                                 : mrcc  (arbitrary order and MRCC methods)
  Frank Weinhold                                : gennbo (NPA and NBO analysis)           
  Simon Mueller                                 : openCOSMO-RS                            
  Christopher J. Cramer and Donald G. Truhlar   : smd solvation model                     
  S Lehtola, MJT Oliveira, MAL Marques          : LibXC Library                           
  Liviu Ungur et al                             : ANISO software                          


 Your calculation uses the libint2 library for the computation of 2-el integrals
 For citations please refer to: http://libint.valeyev.net

 Your ORCA version has been built with support for libXC version: 6.2.2
 For citations please refer to: https://libxc.gitlab.io

 This ORCA versions uses:
   CBLAS   interface :  Fast vector & matrix operations
   LAPACKE interface :  Fast linear algebra routines
   SCALAPACK package :  Parallel linear algebra routines
   Shared memory     :  Shared parallel matrices
   BLAS/LAPACK       :  OpenBLAS 0.3.27  USE64BITINT DYNAMIC_ARCH NO_AFFINITY Zen SINGLE_THREADED
        Core in use  :  Zen
   Copyright (c) 2011-2014, The OpenBLAS Project


Your calculation utilizes the geometrical counterpoise correction gCP
Please cite in your paper:
H.Kruse, S. Grimme J.Chem.Phys., 136, (2012), 154101 
   

Your calculation utilizes the atom-pairwise dispersion correction
based on EEQ partial charges (D4)


================================================================================

----- Orbital basis set information -----
Your calculation utilizes the basis: def2-SV(P)
   F. Weigend and R. Ahlrichs, Phys. Chem. Chem. Phys. 7, 3297 (2005).

----- AuxJ basis set information -----
Your calculation utilizes the auxiliary basis: def2/J
   F. Weigend, Phys. Chem. Chem. Phys. 8, 1057 (2006).

================================================================================
                                        WARNINGS
                       Please study these warnings very carefully!
================================================================================

WARNING: Old DensityContainer found on disk!
         Will remove this file - 
         If you want to keep old densities, please start your calculation with a different basename. 


================================================================================
                                       INPUT FILE
================================================================================
NAME = sp.inp
|  1> ! pbe def2-sv(p) def2/J RI DEFGRID1 loosescf d4 GCP(DFT/SV(P)) printgap
|  2> %output
|  3>     printlevel normal
|  4> end
|  5> * xyz 0 1
|  6> C -2.4393927426 1.159e-05 0.0066050476
|  7> C -0.9404746981 -7.63837e-05 -0.0090846172
|  8> C -0.2312574798 -1.194602136 -0.0052242958
|  9> C 1.1522413423 -1.196299594 0.0015300449
| 10> C 1.8485269955 2.79339e-05 0.0049428168
| 11> C 1.1521225631 1.1963797376 0.0016500146
| 12> C -0.23130129 1.19454081 -0.0052343408
| 13> H -2.833199986 -0.8865537413 -0.4852789546
| 14> H -2.8004838011 0.0024764306 1.0358801516
| 15> H -2.8330961706 0.884234921 -0.4894977754
| 16> H -0.7692030722 -2.1323600051 -0.0087636589
| 17> H 1.6885327525 -2.1343381397 0.0030184112
| 18> H 2.9286401246 0.0002246822 0.0084958231
| 19> H 1.6885284964 2.134339419 0.0026042283
| 20> H -0.7694816105 2.1321914381 -0.0090746279
| 21> *
| 22> 
| 23>                          ****END OF INPUT****
================================================================================

                       ****************************
                       * Single Point Calculation *
                       ****************************

---------------------------------
CARTESIAN COORDINATES (ANGSTROEM)
---------------------------------
  C     -2.439393    0.000012    0.006605
  C     -0.940475   -0.000076   -0.009085
  C     -0.231257   -1.194602   -0.005224
  C      1.152241   -1.196300    0.001530
  C      1.848527    0.000028    0.004943
  C      1.152123    1.196380    0.001650
  C     -0.231301    1.194541   -0.005234
  H     -2.833200   -0.886554   -0.485279
  H     -2.800484    0.002476    1.035880
  H     -2.833096    0.884235   -0.489498
  H     -0.769203   -2.132360   -0.008764
  H      1.688533   -2.134338    0.003018
  H      2.928640    0.000225    0.008496
  H      1.688528    2.134339    0.002604
  H     -0.769482    2.132191   -0.009075

----------------------------
CARTESIAN COORDINATES (A.U.)
----------------------------
  NO LB      ZA    FRAG     MASS         X           Y           Z
   0 C     6.0000    0    12.011   -4.609784    0.000022    0.012482
   1 C     6.0000    0    12.011   -1.777240   -0.000144   -0.017167
   2 C     6.0000    0    12.011   -0.437013   -2.257471   -0.009872
   3 C     6.0000    0    12.011    2.177421   -2.260679    0.002891
   4 C     6.0000    0    12.011    3.493210    0.000053    0.009341
   5 C     6.0000    0    12.011    2.177196    2.260830    0.003118
   6 C     6.0000    0    12.011   -0.437096    2.257355   -0.009891
   7 H     1.0000    0     1.008   -5.353972   -1.675344   -0.917044
   8 H     1.0000    0     1.008   -5.292147    0.004680    1.957530
   9 H     1.0000    0     1.008   -5.353776    1.670962   -0.925017
  10 H     1.0000    0     1.008   -1.453583   -4.029576   -0.016561
  11 H     1.0000    0     1.008    3.190864   -4.033315    0.005704
  12 H     1.0000    0     1.008    5.534328    0.000425    0.016055
  13 H     1.0000    0     1.008    3.190856    4.033317    0.004921
  14 H     1.0000    0     1.008   -1.454110    4.029258   -0.017149

--------------------------------
INTERNAL COORDINATES (ANGSTROEM)
--------------------------------
 C      0   0   0     0.000000000000     0.00000000     0.00000000
 C      1   0   0     1.499000159256     0.00000000     0.00000000
 C      2   1   0     1.389206873623   120.69800159     0.00000000
 C      3   2   1     1.383516350910   120.76923620   181.02273758
 C      4   3   2     1.384205516488   120.13023123     0.00000000
 C      5   4   3     1.384285958258   119.59522070     0.00000000
 C      6   5   4     1.383442204550   120.12809027     0.00000000
 H      1   2   3     1.087672792359   110.93220043   330.23508060
 H      1   2   3     1.090779568786   109.93159551    89.59529171
 H      1   2   3     1.087644840604   110.93027963   208.95583741
 H      3   2   1     1.081104901724   119.45975687     1.09735234
 H      4   3   2     1.080521635650   119.82760306   180.08815689
 H      5   4   3     1.080118990768   120.21092169   180.10558970
 H      6   5   4     1.080509416773   120.03115042   180.10263690
 H      7   6   5     1.081129735765   119.77878590   180.07922359

---------------------------
INTERNAL COORDINATES (A.U.)
---------------------------
 C      0   0   0     0.000000000000     0.00000000     0.00000000
 C      1   0   0     2.832699775698     0.00000000     0.00000000
 C      2   1   0     2.625220534509   120.69800159     0.00000000
 C      3   2   1     2.614467005021   120.76923620   181.02273758
 C      4   3   2     2.615769339225   120.13023123     0.00000000
 C      5   4   3     2.615921352139   119.59522070     0.00000000
 C      6   5   4     2.614326888708   120.12809027     0.00000000
 H      1   2   3     2.055403700876   110.93220043   330.23508060
 H      1   2   3     2.061274657483   109.93159551    89.59529171
 H      1   2   3     2.055350879714   110.93027963   208.95583741
 H      3   2   1     2.042992186299   119.45975687     1.09735234
 H      4   3   2     2.041889973155   119.82760306   180.08815689
 H      5   4   3     2.041129084599   120.21092169   180.10558970
 H      6   5   4     2.041866882824   120.03115042   180.10263690
 H      7   6   5     2.043039115834   119.77878590   180.07922359

---------------------
BASIS SET INFORMATION
---------------------
There are 2 groups of distinct atoms

 Group   1 Type C   : 7s4p1d contracted to 3s2p1d pattern {511/31/1}
 Group   2 Type H   : 4s contracted to 2s pattern {31}

Atom   0C    basis set group =>   1
Atom   1C    basis set group =>   1
Atom   2C    basis set group =>   1
Atom   3C    basis set group =>   1
Atom   4C    basis set group =>   1
Atom   5C    basis set group =>   1
Atom   6C    basis set group =>   1
Atom   7H    basis set group =>   2
Atom   8H    basis set group =>   2
Atom   9H    basis set group =>   2
Atom  10H    basis set group =>   2
Atom  11H    basis set group =>   2
Atom  12H    basis set group =>   2
Atom  13H    basis set group =>   2
Atom  14H    basis set group =>   2
---------------------------------
AUXILIARY/J BASIS SET INFORMATION
---------------------------------
There are 2 groups of distinct atoms

 Group   1 Type C   : 12s5p4d2f1g contracted to 6s4p3d1f1g pattern {711111/2111/211/2/1}
 Group   2 Type H   : 5s2p1d contracted to 3s1p1d pattern {311/2/1}

Atom   0C    basis set group =>   1
Atom   1C    basis set group =>   1
Atom   2C    basis set group =>   1
Atom   3C    basis set group =>   1
Atom   4C    basis set group =>   1
Atom   5C    basis set group =>   1
Atom   6C    basis set group =>   1
Atom   7H    basis set group =>   2
Atom   8H    basis set group =>   2
Atom   9H    basis set group =>   2
Atom  10H    basis set group =>   2
Atom  11H    basis set group =>   2
Atom  12H    basis set group =>   2
Atom  13H    basis set group =>   2
Atom  14H    basis set group =>   2

Checking for AutoStart:
The File: sp.gbw exists
Trying to determine its content:
     ... Fine, the file contains calculation information
     ... Fine, the calculation information was read
     ... Fine, the file contains a basis set
     ... Fine, the basis set was read
     ... Fine, the file contains a geometry
     ... Fine, the geometry was read
     ... Fine, the file contains a set of orbitals
     ... Fine, the orbitals can be read
     => possible old guess file was deleted
     => GBW file was renamed to GES file
     => GES file is set as startup file
     => Guess is set to MORead
     ... now leaving AutoStart

------------------------------------------------------------------------------
                             ORCA STARTUP CALCULATIONS
                           -- RI-GTO INTEGRALS CHOSEN --
------------------------------------------------------------------------------
------------------------------------------------------------------------------
                   ___                                                        
                  /   \      - P O W E R E D   B Y -                         
                 /     \                                                     
                 |  |  |   _    _      __       _____    __    __             
                 |  |  |  | |  | |    /  \     |  _  \  |  |  /  |          
                  \  \/   | |  | |   /    \    | | | |  |  | /  /          
                 / \  \   | |__| |  /  /\  \   | |_| |  |  |/  /          
                |  |  |   |  __  | /  /__\  \  |    /   |      \           
                |  |  |   | |  | | |   __   |  |    \   |  |\   \          
                \     /   | |  | | |  |  |  |  | |\  \  |  | \   \       
                 \___/    |_|  |_| |__|  |__|  |_| \__\ |__|  \__/        
                                                                              
                      - O R C A' S   B I G   F R I E N D -                    
                                      &                                       
                       - I N T E G R A L  F E E D E R -                       
                                                                              
 v1 FN, 2020, v2 2021, v3 2022-2024                                           
------------------------------------------------------------------------------


----------------------
SHARK INTEGRAL PACKAGE
----------------------

Number of atoms                             ...     15
Number of basis functions                   ...    114
Number of shells                            ...     58
Maximum angular momentum                    ...      2
Integral batch strategy                     ... SHARK/LIBINT Hybrid
RI-J (if used) integral strategy            ... SPLIT-RIJ (Revised 2003 algorithm where possible)
Printlevel                                  ...      1
Contraction scheme used                     ... SEGMENTED contraction
Prescreening option                         ... SCHWARTZ
   Thresh                                   ... 1.000e-09
   Tcut                                     ... 1.000e-10
   Tpresel                                  ... 1.000e-10 
Coulomb Range Separation                    ... NOT USED
Exchange Range Separation                   ... NOT USED
Multipole approximations                    ... NOT USED
Finite Nucleus Model                        ... NOT USED
CABS basis                                  ... NOT available
Auxiliary Coulomb fitting basis             ... AVAILABLE
   # of basis functions in Aux-J            ...    431
   # of shells in Aux-J                     ...    145
   Maximum angular momentum in Aux-J        ...      4
Auxiliary J/K fitting basis                 ... NOT available
Auxiliary Correlation fitting basis         ... NOT available
Auxiliary 'external' fitting basis          ... NOT available

Checking pre-screening integrals            ... done (  0.0 sec) Dimension = 58
Check shell pair data                       ... done (  0.0 sec)
Shell pair information
Shell pair cut-off parameter TPreSel        ...   1.0e-10
Total number of shell pairs                 ...      1711
Shell pairs after pre-screening             ...      1664
Total number of primitive shell pairs       ...      6901
Primitive shell pairs kept                  ...      4935
          la=0 lb=0:    670 shell pairs
          la=1 lb=0:    511 shell pairs
          la=1 lb=1:    105 shell pairs
          la=2 lb=0:    252 shell pairs
          la=2 lb=1:     98 shell pairs
          la=2 lb=2:     28 shell pairs

Calculating one electron integrals          ... done (  0.0 sec)
Calculating RI/J V-Matrix + Cholesky decomp.... done (  0.0 sec)
Calculating Nuclear repulsion               ... done (  0.0 sec) ENN=    270.958564642045 Eh

Diagonalization of the overlap matrix:
Smallest eigenvalue                        ... 2.790e-04
Time for diagonalization                   ...    0.001 sec
Threshold for overlap eigenvalues          ... 1.000e-07
Number of eigenvalues below threshold      ... 0
Time for construction of square roots      ...    0.000 sec
Total time needed                          ...    0.002 sec

-------------------
DFT GRID GENERATION
-------------------

General Integration Accuracy     IntAcc      ... 4.159
Radial Grid Type                 RadialGrid  ... OptM3 with GC (2021)
Angular Grid (max. ang.)         AngularGrid ... 3 (Lebedev-194)
Angular grid pruning method      GridPruning ... 4 (adaptive)
Weight generation scheme         WeightScheme... mBecke (2022)
Basis function cutoff            BFCut       ... 1.0000e-10
Integration weight cutoff        WCut        ... 1.0000e-14
Partially contracted basis set               ... off
Rotationally invariant grid construction     ... off
Angular grids for H and He will be reduced by one unit

Total number of grid points                  ...    34165
Total number of batches                      ...      540
Average number of points per batch           ...       63
Average number of grid points per atom       ...     2278
Initializing property integral containers    ... done (  0.0 sec)

SHARK setup successfully completed in   0.2 seconds

Maximum memory used throughout the entire STARTUP-calculation: 16.9 MB
-------------------------------------------------------------------------------
                                 ORCA GUESS
                   Start orbitals & Density for SCF / CASSCF
-------------------------------------------------------------------------------

------------
SCF SETTINGS
------------
Hamiltonian:
 Density Functional     Method          .... DFT(GTOs)
 Exchange Functional    Exchange        .... PBE
   PBE kappa parameter   XKappa         ....  0.804000
   PBE mue parameter    XMuePBE         ....  0.219520
 Correlation Functional Correlation     .... PBE
   PBE beta parameter  CBetaPBE         ....  0.066725
 LDA part of GGA corr.  LDAOpt          .... PW91-LDA
 Gradients option       PostSCFGGA      .... off
   NL short-range parameter             ....  6.400000
 RI-approximation to the Coulomb term is turned on
   Number of AuxJ basis functions       .... 431


General Settings:
 Integral files         IntName         .... sp
 Hartree-Fock type      HFTyp           .... RHF
 Total Charge           Charge          ....    0
 Multiplicity           Mult            ....    1
 Number of Electrons    NEL             ....   50
 Basis Dimension        Dim             ....  114
 Nuclear Repulsion      ENuc            ....    270.9585646420 Eh

Convergence Acceleration:
 AO-DIIS                CNVDIIS         .... on
   Start iteration      DIISMaxIt       ....    12
   Startup error        DIISStart       ....  0.200000
   # of expansion vecs  DIISMaxEq       ....     5
   Bias factor          DIISBfac        ....   1.050
   Max. coefficient     DIISMaxC        ....  10.000
 MO-DIIS                CNVKDIIS        .... off
 Trust-Rad. Augm. Hess. CNVTRAH         .... auto
   Auto Start mean grad. ratio tolernc. ....  1.125000
   Auto Start start iteration           ....     1
   Auto Start num. interpolation iter.  ....    10
   Max. Number of Micro iterations      ....    24
   Max. Number of Macro iterations      .... Maxiter - #DIIS iter
   Number of Davidson start vectors     ....     2
   Converg. threshold    (grad. norm)   ....   1.000e-04
   Grad. Scal. Fac. for Micro threshold ....   0.100
   Minimum threshold for Micro iter.    ....   1.000e-02
   NR start threshold (gradient norm)   ....   1.000e-04
   Initial trust radius                 ....   0.400
   Minimum AH scaling param. (alpha)    ....   1.000
   Maximum AH scaling param. (alpha)    .... 1000.000
   Quad. conv. algorithm                .... NR
   White noise on init. David. guess    .... on
   Maximum white noise                  ....   0.010
   Pseudo random numbers                .... off
   Inactive MOs                         .... canonical
   Orbital update algorithm             .... Taylor
   Preconditioner                       .... Diag
   Full preconditioner red. dimension   ....   250
 SOSCF                  CNVSOSCF        .... on
   Start iteration      SOSCFMaxIt      ....   150
   Startup grad/error   SOSCFStart      ....  0.003300
   Hessian update       SOSCFHessUp     .... L-BFGS
 Level Shifting         CNVShift        .... on
   Level shift para.    LevelShift      ....    0.2500
   Turn off err/grad.   ShiftErr        ....    0.0010
 Zerner damping         CNVZerner       .... off
 Static damping         CNVDamp         .... on
   Fraction old density DampFac         ....    0.7000
   Max. Damping (<1)    DampMax         ....    0.9800
   Min. Damping (>=0)   DampMin         ....    0.0000
   Turn off err/grad.   DampErr         ....    0.1000

SCF Procedure:
 Maximum # iterations   MaxIter         ....   125
 SCF integral mode      SCFMode         .... Direct
   Integral package                     .... SHARK and LIBINT hybrid scheme
 Reset frequency        DirectResetFreq ....    20
 Integral Threshold     Thresh          ....  1.000e-09 Eh
 Primitive CutOff       TCut            ....  1.000e-10 Eh

Convergence Tolerance:
 Convergence Check Mode ConvCheckMode   .... Total+1el-Energy
 Convergence forced     ConvForced      .... 0
 Energy Change          TolE            ....  1.000e-05 Eh
 1-El. energy change                    ....  1.000e-02 Eh
 Orbital Gradient       TolG            ....  1.000e-04
 Orbital Rotation angle TolX            ....  1.000e-04
 DIIS Error             TolErr          ....  5.000e-04

---------------------
INITIAL GUESS: MOREAD
---------------------
Guess MOs are being read from file: sp.ges
Input Geometry matches current geometry (good)
Input basis set matches current basis set (good)
Occupation numbers will be reassigned to an Aufbau configuration
MOs were renormalized
MOs were reorthogonalized (Cholesky)
                      ------------------
                      INITIAL GUESS DONE (   0.0 sec)
                      ------------------
             **** ENERGY FILE WAS UPDATED (sp.en.tmp) ****
Finished Guess after   0.0 sec
Maximum memory used throughout the entire GUESS-calculation: 8.9 MB

-------------------------------------------------------------------------------------------
                                      ORCA LEAN-SCF
                              memory conserving SCF solver
-------------------------------------------------------------------------------------------

----------------------------------------D-I-I-S--------------------------------------------
Iteration    Energy (Eh)           Delta-E    RMSDP     MaxDP     DIISErr   Damp  Time(sec)
-------------------------------------------------------------------------------------------
               ***  Starting incremental Fock matrix formation  ***
                              *** Initializing SOSCF ***
---------------------------------------S-O-S-C-F--------------------------------------
Iteration    Energy (Eh)           Delta-E    RMSDP     MaxDP     MaxGrad    Time(sec)
--------------------------------------------------------------------------------------
    1    -270.9827390371413003     0.00e+00  2.54e-05  2.75e-04  6.51e-05     0.2
               *** Restarting incremental Fock matrix formation ***
    2    -270.9827390961082756    -5.90e-08  3.21e-05  4.79e-04  1.11e-04     0.2
    3    -270.9827381927085526     9.03e-07  2.34e-05  3.78e-04  3.32e-04     0.2
                 **** Energy Check signals convergence ****

               *****************************************************
               *                     SUCCESS                       *
               *           SCF CONVERGED AFTER   3 CYCLES          *
               *****************************************************

             **** ENERGY FILE WAS UPDATED (sp.en.tmp) ****

----------------
TOTAL SCF ENERGY
----------------

Total Energy       :       -270.98273819270855 Eh           -7373.81518 eV

Components:
Nuclear Repulsion  :        270.95856464204462 Eh            7373.15739 eV
Electronic Energy  :       -541.94130283475317 Eh          -14746.97257 eV
One Electron Energy:       -900.66292175510887 Eh          -24508.28408 eV
Two Electron Energy:        358.72161892035570 Eh            9761.31151 eV

Virial components:
Potential Energy   :       -539.55208734603093 Eh          -14681.95871 eV
Kinetic Energy     :        268.56934915332243 Eh            7308.14353 eV
Virial Ratio       :          2.00898609259394

DFT components:
N(Alpha)           :       25.000226185169 electrons
N(Beta)            :       25.000226185169 electrons
N(Total)           :       50.000452370337 electrons
E(X)               :      -38.947633225771 Eh       
E(C)               :       -1.649613614455 Eh       
E(XC)              :      -40.597246840227 Eh       

---------------
SCF CONVERGENCE
---------------

  Last Energy change         ...   -9.0340e-07  Tolerance :   1.0000e-05
  Last MAX-Density change    ...    3.7817e-04  Tolerance :   1.0000e-03
  Last RMS-Density change    ...    2.3381e-05  Tolerance :   1.0000e-04
  Last DIIS Error            ...    1.6978e-04  Tolerance :   5.0000e-04
  Last Orbital Gradient      ...    3.3194e-04  Tolerance :   1.0000e-04
  Last Orbital Rotation      ...    4.9028e-04  Tolerance :   1.0000e-04


----------------
ORBITAL ENERGIES
----------------

  NO   OCC          E(Eh)            E(eV) 
   0   2.0000      -9.898322      -269.3470 
   1   2.0000      -9.889072      -269.0953 
   2   2.0000      -9.889035      -269.0943 
   3   2.0000      -9.887763      -269.0597 
   4   2.0000      -9.885994      -269.0116 
   5   2.0000      -9.885986      -269.0114 
   6   2.0000      -9.882428      -268.9145 
   7   2.0000      -0.774593       -21.0777 
   8   2.0000      -0.693705       -18.8767 
   9   2.0000      -0.666037       -18.1238 
  10   2.0000      -0.611664       -16.6442 
  11   2.0000      -0.539620       -14.6838 
  12   2.0000      -0.519401       -14.1336 
  13   2.0000      -0.459511       -12.5039 
  14   2.0000      -0.411418       -11.1952 
  15   2.0000      -0.398131       -10.8337 
  16   2.0000      -0.377165       -10.2632 
  17   2.0000      -0.371223       -10.1015 
  18   2.0000      -0.360534        -9.8106 
  19   2.0000      -0.339647        -9.2423 
  20   2.0000      -0.318034        -8.6542 
  21   2.0000      -0.296455        -8.0670 
  22   2.0000      -0.293770        -7.9939 
  23   2.0000      -0.226026        -6.1505 
  24   2.0000      -0.216771        -5.8986 
  25   0.0000      -0.031308        -0.8519 
  26   0.0000      -0.029132        -0.7927 
  27   0.0000       0.043393         1.1808 
  28   0.0000       0.062951         1.7130 
  29   0.0000       0.076465         2.0807 
  30   0.0000       0.094357         2.5676 
  31   0.0000       0.106324         2.8932 
  32   0.0000       0.113818         3.0971 
  33   0.0000       0.136469         3.7135 
  34   0.0000       0.137644         3.7455 
  35   0.0000       0.151692         4.1278 
*Only the first 10 virtual orbitals were printed.

                    ********************************
                    * MULLIKEN POPULATION ANALYSIS *
                    ********************************

-----------------------
MULLIKEN ATOMIC CHARGES
-----------------------
   0 C :   -0.227908
   1 C :    0.044700
   2 C :   -0.111521
   3 C :   -0.048439
   4 C :   -0.052748
   5 C :   -0.048474
   6 C :   -0.111422
   7 H :    0.106358
   8 H :    0.120871
   9 H :    0.106442
  10 H :    0.035409
  11 H :    0.050209
  12 H :    0.050902
  13 H :    0.050213
  14 H :    0.035409
Sum of atomic charges:   -0.0000000

--------------------------------
MULLIKEN REDUCED ORBITAL CHARGES
--------------------------------
  0 C s       :     3.031608  s :     3.031608
      pz      :     1.074153  p :     3.167586
      px      :     1.030859
      py      :     1.062574
      dz2     :     0.005600  d :     0.028714
      dxz     :     0.006397
      dyz     :     0.004401
      dx2y2   :     0.006072
      dxy     :     0.006245

  1 C s       :     2.999439  s :     2.999439
      pz      :     0.965613  p :     2.913679
      px      :     0.988444
      py      :     0.959622
      dz2     :     0.002640  d :     0.042182
      dxz     :     0.006463
      dyz     :     0.006522
      dx2y2   :     0.013223
      dxy     :     0.013334

  2 C s       :     3.253384  s :     3.253384
      pz      :     1.010122  p :     2.823731
      px      :     0.921307
      py      :     0.892302
      dz2     :     0.003113  d :     0.034406
      dxz     :     0.005279
      dyz     :     0.002943
      dx2y2   :     0.010176
      dxy     :     0.012894

  3 C s       :     3.184576  s :     3.184576
      pz      :     0.990637  p :     2.828652
      px      :     0.956898
      py      :     0.881117
      dz2     :     0.003070  d :     0.035212
      dxz     :     0.005636
      dyz     :     0.003124
      dx2y2   :     0.010461
      dxy     :     0.012922

  4 C s       :     3.180911  s :     3.180911
      pz      :     1.001858  p :     2.836886
      px      :     0.846466
      py      :     0.988562
      dz2     :     0.003077  d :     0.034951
      dxz     :     0.001978
      dyz     :     0.006437
      dx2y2   :     0.014279
      dxy     :     0.009180

  5 C s       :     3.184569  s :     3.184569
      pz      :     0.990641  p :     2.828692
      px      :     0.956854
      py      :     0.881197
      dz2     :     0.003070  d :     0.035213
      dxz     :     0.005637
      dyz     :     0.003123
      dx2y2   :     0.010459
      dxy     :     0.012924

  6 C s       :     3.253447  s :     3.253447
      pz      :     1.010097  p :     2.823570
      px      :     0.921215
      py      :     0.892259
      dz2     :     0.003113  d :     0.034405
      dxz     :     0.005280
      dyz     :     0.002943
      dx2y2   :     0.010173
      dxy     :     0.012897

  7 H s       :     0.893642  s :     0.893642

  8 H s       :     0.879129  s :     0.879129

  9 H s       :     0.893558  s :     0.893558

 10 H s       :     0.964591  s :     0.964591

 11 H s       :     0.949791  s :     0.949791

 12 H s       :     0.949098  s :     0.949098

 13 H s       :     0.949787  s :     0.949787

 14 H s       :     0.964591  s :     0.964591


------------------------
MULLIKEN OVERLAP CHARGES
------------------------
B(  0-C ,  1-C ) :   0.8815 B(  0-C ,  2-C ) :  -0.2193 B(  0-C ,  6-C ) :  -0.2195 
B(  0-C ,  7-H ) :   0.7158 B(  0-C ,  8-H ) :   0.7088 B(  0-C ,  9-H ) :   0.7158 
B(  1-C ,  2-C ) :   0.3430 B(  1-C ,  3-C ) :   0.3757 B(  1-C ,  4-C ) :  -0.4410 
B(  1-C ,  5-C ) :   0.3758 B(  1-C ,  6-C ) :   0.3427 B(  1-C , 10-H ) :  -0.1740 
B(  1-C , 14-H ) :  -0.1742 B(  2-C ,  3-C ) :   0.3328 B(  2-C ,  4-C ) :   0.3580 
B(  2-C ,  5-C ) :  -0.4026 B(  2-C ,  6-C ) :   0.2733 B(  2-C , 10-H ) :   0.8684 
B(  2-C , 11-H ) :  -0.1805 B(  3-C ,  4-C ) :   0.2702 B(  3-C ,  5-C ) :   0.3634 
B(  3-C ,  6-C ) :  -0.4027 B(  3-C , 10-H ) :  -0.1741 B(  3-C , 11-H ) :   0.8853 
B(  3-C , 12-H ) :  -0.1769 B(  4-C ,  5-C ) :   0.2704 B(  4-C ,  6-C ) :   0.3580 
B(  4-C , 11-H ) :  -0.1839 B(  4-C , 12-H ) :   0.8813 B(  4-C , 13-H ) :  -0.1839 
B(  5-C ,  6-C ) :   0.3328 B(  5-C , 12-H ) :  -0.1768 B(  5-C , 13-H ) :   0.8854 
B(  5-C , 14-H ) :  -0.1741 B(  6-C , 13-H ) :  -0.1806 B(  6-C , 14-H ) :   0.8686 



                     *******************************
                     * LOEWDIN POPULATION ANALYSIS *
                     *******************************

----------------------
LOEWDIN ATOMIC CHARGES
----------------------
   0 C :   -0.322878
   1 C :   -0.047425
   2 C :   -0.125240
   3 C :   -0.121343
   4 C :   -0.130666
   5 C :   -0.121343
   6 C :   -0.125210
   7 H :    0.126327
   8 H :    0.134598
   9 H :    0.126377
  10 H :    0.119951
  11 H :    0.122400
  12 H :    0.122104
  13 H :    0.122400
  14 H :    0.119948

-------------------------------
LOEWDIN REDUCED ORBITAL CHARGES
-------------------------------
  0 C s       :     2.936728  s :     2.936728
      pz      :     1.126510  p :     3.315631
      px      :     1.067257
      py      :     1.121864
      dz2     :     0.014043  d :     0.070519
      dxz     :     0.014170
      dyz     :     0.011237
      dx2y2   :     0.016766
      dxy     :     0.014303

  1 C s       :     2.850568  s :     2.850568
      pz      :     0.947711  p :     3.086367
      px      :     1.044903
      py      :     1.093753
      dz2     :     0.007088  d :     0.110490
      dxz     :     0.011768
      dyz     :     0.014046
      dx2y2   :     0.039573
      dxy     :     0.038016

  2 C s       :     2.891463  s :     2.891463
      pz      :     1.002288  p :     3.142572
      px      :     1.078309
      py      :     1.061975
      dz2     :     0.007033  d :     0.091204
      dxz     :     0.011253
      dyz     :     0.005644
      dx2y2   :     0.030692
      dxy     :     0.036581

  3 C s       :     2.891090  s :     2.891090
      pz      :     0.981013  p :     3.137513
      px      :     1.086009
      py      :     1.070490
      dz2     :     0.007037  d :     0.092740
      dxz     :     0.012201
      dyz     :     0.006014
      dx2y2   :     0.031259
      dxy     :     0.036229

  4 C s       :     2.890548  s :     2.890548
      pz      :     0.993758  p :     3.148045
      px      :     1.062340
      py      :     1.091947
      dz2     :     0.007055  d :     0.092073
      dxz     :     0.003215
      dyz     :     0.014098
      dx2y2   :     0.038934
      dxy     :     0.028771

  5 C s       :     2.891091  s :     2.891091
      pz      :     0.981010  p :     3.137512
      px      :     1.086025
      py      :     1.070477
      dz2     :     0.007037  d :     0.092740
      dxz     :     0.012203
      dyz     :     0.006012
      dx2y2   :     0.031253
      dxy     :     0.036235

  6 C s       :     2.891459  s :     2.891459
      pz      :     1.002270  p :     3.142546
      px      :     1.078311
      py      :     1.061965
      dz2     :     0.007033  d :     0.091205
      dxz     :     0.011253
      dyz     :     0.005644
      dx2y2   :     0.030684
      dxy     :     0.036590

  7 H s       :     0.873673  s :     0.873673

  8 H s       :     0.865402  s :     0.865402

  9 H s       :     0.873623  s :     0.873623

 10 H s       :     0.880049  s :     0.880049

 11 H s       :     0.877600  s :     0.877600

 12 H s       :     0.877896  s :     0.877896

 13 H s       :     0.877600  s :     0.877600

 14 H s       :     0.880052  s :     0.880052


---------------------------------
LOEWDIN BOND ORDERS (THRESH 0.050000)
---------------------------------
B(  0-C ,  1-C ) :   1.0983 B(  0-C ,  2-C ) :   0.0737 B(  0-C ,  6-C ) :   0.0737 
B(  0-C ,  7-H ) :   0.9306 B(  0-C ,  8-H ) :   0.9224 B(  0-C ,  9-H ) :   0.9306 
B(  1-C ,  2-C ) :   1.4428 B(  1-C ,  3-C ) :   0.0870 B(  1-C ,  4-C ) :   0.1154 
B(  1-C ,  5-C ) :   0.0870 B(  1-C ,  6-C ) :   1.4425 B(  2-C ,  3-C ) :   1.5098 
B(  2-C ,  4-C ) :   0.0868 B(  2-C ,  5-C ) :   0.1200 B(  2-C ,  6-C ) :   0.0841 
B(  2-C , 10-H ) :   0.8849 B(  3-C ,  4-C ) :   1.5011 B(  3-C ,  5-C ) :   0.0868 
B(  3-C ,  6-C ) :   0.1200 B(  3-C , 11-H ) :   0.8884 B(  4-C ,  5-C ) :   1.5009 
B(  4-C ,  6-C ) :   0.0868 B(  4-C , 12-H ) :   0.8898 B(  5-C ,  6-C ) :   1.5101 
B(  5-C , 13-H ) :   0.8884 B(  6-C , 14-H ) :   0.8849 

------------------------------------------
LOEWDIN REDUCED ORBITAL POPULATIONS PER MO
-------------------------------------------
THRESHOLD FOR PRINTING IS 0.1%%
                      0         1         2         3         4         5   
                  -9.89832  -9.88907  -9.88903  -9.88776  -9.88599  -9.88599
                   2.00000   2.00000   2.00000   2.00000   2.00000   2.00000
                  --------  --------  --------  --------  --------  --------
 0 C  px              0.1       0.0       0.0       0.0       0.0       0.0
 1 C  s              99.5       0.0       0.0       0.0       0.1       0.0
 1 C  py              0.0       0.0       0.0       0.0       0.0       0.2
 2 C  s               0.0       0.1       0.1       0.0      50.4      49.0
 2 C  py              0.1       0.0       0.0       0.0       0.0       0.0
 3 C  s               0.0      45.2      53.3       0.9       0.1       0.1
 3 C  py              0.0       0.0       0.0       0.1       0.0       0.0
 4 C  s               0.0       1.8       0.0      97.8       0.0       0.0
 4 C  py              0.0       0.0       0.2       0.0       0.0       0.0
 5 C  s               0.0      52.5      46.0       0.9       0.1       0.1
 5 C  py              0.0       0.0       0.0       0.1       0.0       0.0
 6 C  s               0.0       0.1       0.1       0.0      49.1      50.3
 6 C  py              0.1       0.0       0.0       0.0       0.0       0.0

                      6         7         8         9        10        11   
                  -9.88243  -0.77459  -0.69371  -0.66604  -0.61166  -0.53962
                   2.00000   2.00000   2.00000   2.00000   2.00000   2.00000
                  --------  --------  --------  --------  --------  --------
 0 C  s              99.7       2.9      17.0       0.0      22.3       0.0
 0 C  px              0.0       1.5       1.5       0.0       1.1       0.0
 0 C  py              0.0       0.0       0.0       0.2       0.0       1.9
 1 C  s               0.0      15.0      14.5       0.0       0.8       0.0
 1 C  px              0.1       1.4       3.4       0.0      13.3       0.0
 1 C  py              0.0       0.0       0.0       9.7       0.0      16.1
 1 C  dz2             0.0       0.2       0.1       0.0       0.0       0.0
 1 C  dx2y2           0.0       0.0       0.0       0.0       0.3       0.0
 1 C  dxy             0.0       0.0       0.0       0.3       0.0       0.1
 2 C  s               0.0      12.4       1.0      14.3       5.0       6.2
 2 C  px              0.0       0.4       5.5       1.8       0.0       6.5
 2 C  py              0.0       2.3       1.1       0.5       0.2       0.1
 2 C  dz2             0.0       0.2       0.0       0.1       0.0       0.0
 2 C  dx2y2           0.0       0.0       0.1       0.1       0.0       0.1
 3 C  s               0.0      10.8       5.6      14.2       0.4       7.0
 3 C  px              0.0       0.8       1.8       1.9       6.1       5.0
 3 C  py              0.0       1.8       1.5       0.5       1.2       0.2
 3 C  dz2             0.0       0.1       0.1       0.1       0.0       0.0
 3 C  dx2y2           0.0       0.0       0.0       0.1       0.1       0.0
 4 C  s               0.0      10.4      13.8       0.0      10.6       0.0
 4 C  px              0.0       2.5       0.4       0.0       0.6       0.0
 4 C  py              0.0       0.0       0.0       9.2       0.0      14.2
 4 C  dz2             0.0       0.1       0.1       0.0       0.1       0.0
 4 C  dxy             0.0       0.0       0.0       0.3       0.0       0.2
 5 C  s               0.0      10.8       5.6      14.2       0.4       7.0
 5 C  px              0.0       0.8       1.8       1.9       6.1       5.0
 5 C  py              0.0       1.8       1.5       0.5       1.2       0.2
 5 C  dz2             0.0       0.1       0.1       0.1       0.0       0.0
 5 C  dx2y2           0.0       0.0       0.0       0.1       0.1       0.0
 6 C  s               0.0      12.4       1.0      14.3       5.0       6.2
 6 C  px              0.0       0.4       5.5       1.8       0.0       6.5
 6 C  py              0.0       2.3       1.1       0.5       0.2       0.1
 6 C  dz2             0.0       0.2       0.0       0.1       0.0       0.0
 6 C  dx2y2           0.0       0.0       0.1       0.1       0.0       0.1
 7 H  s               0.1       0.5       3.4       0.0       6.2       0.3
 8 H  s               0.1       0.5       3.4       0.0       6.3       0.0
 9 H  s               0.1       0.5       3.4       0.0       6.2       0.3
10 H  s               0.0       1.6       0.3       3.3       0.9       4.1
11 H  s               0.0       1.4       1.0       3.2       0.2       4.2
12 H  s               0.0       1.3       2.6       0.0       3.6       0.0
13 H  s               0.0       1.4       1.0       3.2       0.2       4.2
14 H  s               0.0       1.6       0.3       3.3       0.9       4.1

                     12        13        14        15        16        17   
                  -0.51940  -0.45951  -0.41142  -0.39813  -0.37717  -0.37122
                   2.00000   2.00000   2.00000   2.00000   2.00000   2.00000
                  --------  --------  --------  --------  --------  --------
 0 C  s               2.9       1.3       0.0       0.0       0.0       0.0
 0 C  pz              0.0       0.0       0.0       0.2      45.2       0.0
 0 C  px              4.5       5.7       0.0       6.5       0.0       0.0
 0 C  py              0.0       0.0      13.0       0.0       0.0       0.7
 0 C  dz2             0.0       0.0       0.0       0.0       0.3       0.0
 0 C  dx2y2           0.1       0.1       0.0       0.1       0.1       0.0
 1 C  s               7.4       1.0       0.0       4.2       0.0       0.0
 1 C  pz              0.0       0.0       0.0       0.1      14.5       0.0
 1 C  px              0.9       2.7       0.0       0.9       0.0       0.0
 1 C  py              0.0       0.0      11.8       0.0       0.0       2.7
 1 C  dx2y2           0.0       0.2       0.0       0.2       0.0       0.0
 1 C  dxy             0.0       0.0       0.0       0.0       0.0       0.7
 2 C  s               1.1       0.9       0.3       2.3       0.0       0.6
 2 C  pz              0.0       0.0       0.0       0.0       3.8       0.0
 2 C  px              4.5       5.3       9.5       0.8       0.0       3.3
 2 C  py              9.4       5.2       2.9       5.7       0.0      11.1
 2 C  dx2y2           0.2       0.0       0.0       0.0       0.0       0.2
 2 C  dxy             0.0       0.0       0.0       0.6       0.0       0.0
 3 C  s               3.5       0.2       0.0       2.4       0.0       0.4
 3 C  pz              0.0       0.0       0.0       0.0       1.2       0.0
 3 C  px              2.6       3.4      12.6       2.3       0.0       3.6
 3 C  py              7.9       5.7       1.8       7.1       0.0      12.4
 3 C  dx2y2           0.0       0.0       0.1       0.1       0.0       0.2
 3 C  dxy             0.0       0.0       0.0       0.5       0.0       0.0
 4 C  s               5.5       1.5       0.0       2.9       0.0       0.0
 4 C  pz              0.0       0.0       0.0       0.0       0.8       0.0
 4 C  px              1.3      17.8       0.0       0.8       0.1       0.0
 4 C  py              0.0       0.0      13.4       0.0       0.0       3.0
 4 C  dx2y2           0.0       0.0       0.0       0.4       0.0       0.0
 4 C  dxy             0.0       0.0       0.0       0.0       0.0       0.6
 5 C  s               3.5       0.2       0.0       2.4       0.0       0.4
 5 C  pz              0.0       0.0       0.0       0.0       1.2       0.0
 5 C  px              2.6       3.4      12.6       2.3       0.0       3.6
 5 C  py              7.9       5.7       1.8       7.1       0.0      12.4
 5 C  dx2y2           0.0       0.0       0.1       0.1       0.0       0.2
 5 C  dxy             0.0       0.0       0.0       0.5       0.0       0.0
 6 C  s               1.1       0.9       0.3       2.3       0.0       0.5
 6 C  pz              0.0       0.0       0.0       0.0       3.8       0.0
 6 C  px              4.5       5.3       9.5       0.8       0.0       3.3
 6 C  py              9.4       5.2       2.9       5.6       0.0      11.1
 6 C  dx2y2           0.2       0.0       0.0       0.0       0.0       0.2
 6 C  dxy             0.0       0.0       0.0       0.6       0.0       0.0
 7 H  s               1.8       1.0       3.3       1.0       4.4       0.3
 8 H  s               1.7       1.4       0.0       0.1      19.3       0.0
 9 H  s               1.8       1.0       3.3       1.0       4.5       0.3
10 H  s               1.9       4.9       0.0       7.7       0.0       6.4
11 H  s               3.2       2.8       0.3       9.8       0.0       7.6
12 H  s               3.2       9.3       0.0       3.0       0.1       0.0
13 H  s               3.2       2.8       0.3       9.9       0.1       7.6
14 H  s               1.9       4.9       0.0       7.7       0.0       6.4

                     18        19        20        21        22        23   
                  -0.36053  -0.33965  -0.31803  -0.29646  -0.29377  -0.22603
                   2.00000   2.00000   2.00000   2.00000   2.00000   2.00000
                  --------  --------  --------  --------  --------  --------
 0 C  s               0.1       0.0       0.0       0.7       0.0       0.0
 0 C  pz              0.0       0.0       8.5       0.1       0.0       0.0
 0 C  px             18.6       0.0       0.0      13.9       0.0       0.0
 0 C  py              0.0      38.0       0.0       0.0       2.2       0.0
 0 C  dxz             0.0       0.0       0.2       0.0       0.0       0.0
 0 C  dyz             0.0       0.4       0.0       0.0       0.0       0.0
 0 C  dx2y2           0.2       0.0       0.0       0.1       0.0       0.0
 0 C  dxy             0.0       0.4       0.0       0.0       0.3       0.0
 1 C  pz              0.0       0.0       5.1       0.0       0.0       0.0
 1 C  px             18.9       0.0       0.0      10.5       0.0       0.0
 1 C  py              0.0       0.9       0.0       0.0      13.4       0.0
 1 C  dxz             0.0       0.0       0.3       0.0       0.0       0.0
 1 C  dyz             0.0       0.0       0.0       0.0       0.0       0.7
 1 C  dx2y2           0.0       0.0       0.0       1.1       0.0       0.0
 1 C  dxy             0.0       0.3       0.0       0.0       0.5       0.0
 2 C  s               0.3       0.4       0.0       0.0       0.1       0.0
 2 C  pz              0.0       0.0      11.8       0.0       0.0      24.5
 2 C  px              0.7       4.9       0.0      10.3       0.4       0.0
 2 C  py              4.2       0.2       0.0       0.1       9.9       0.0
 2 C  dxz             0.0       0.0       0.1       0.0       0.0       0.2
 2 C  dx2y2           0.2       0.1       0.0       0.5       0.0       0.0
 2 C  dxy             0.1       0.0       0.0       0.1       0.9       0.0
 3 C  s               0.3       0.1       0.0       0.0       0.1       0.0
 3 C  pz              0.0       0.0      17.4       0.0       0.0      24.3
 3 C  px              0.3       3.1       0.0      10.4       0.0       0.0
 3 C  py              3.2       1.2       0.0       0.1       8.8       0.0
 3 C  dxz             0.0       0.0       0.0       0.0       0.0       0.2
 3 C  dyz             0.0       0.0       0.1       0.0       0.0       0.0
 3 C  dx2y2           0.3       0.0       0.0       0.4       0.1       0.0
 3 C  dxy             0.1       0.1       0.0       0.1       0.9       0.0
 4 C  s               0.3       0.0       0.0       0.1       0.0       0.0
 4 C  pz              0.0       0.0      19.1       0.0       0.0       0.0
 4 C  px             21.4       0.0       0.0       8.1       0.0       0.0
 4 C  py              0.0       4.3       0.0       0.0      10.2       0.0
 4 C  dxz             0.0       0.0       0.1       0.0       0.0       0.0
 4 C  dyz             0.0       0.0       0.0       0.0       0.0       0.7
 4 C  dx2y2           0.3       0.0       0.0       1.1       0.0       0.0
 4 C  dxy             0.0       0.0       0.0       0.0       0.3       0.0
 5 C  s               0.3       0.1       0.0       0.0       0.1       0.0
 5 C  pz              0.0       0.0      17.4       0.0       0.0      24.4
 5 C  px              0.3       3.1       0.0      10.4       0.0       0.0
 5 C  py              3.2       1.2       0.0       0.1       8.8       0.0
 5 C  dxz             0.0       0.0       0.0       0.0       0.0       0.2
 5 C  dyz             0.0       0.0       0.1       0.0       0.0       0.0
 5 C  dx2y2           0.3       0.0       0.0       0.4       0.1       0.0
 5 C  dxy             0.1       0.1       0.0       0.1       0.8       0.0
 6 C  s               0.3       0.4       0.0       0.0       0.1       0.0
 6 C  pz              0.0       0.0      11.8       0.0       0.0      24.5
 6 C  px              0.7       4.9       0.0      10.3       0.4       0.0
 6 C  py              4.2       0.2       0.0       0.2       9.9       0.0
 6 C  dxz             0.0       0.0       0.1       0.0       0.0       0.2
 6 C  dx2y2           0.2       0.1       0.0       0.4       0.0       0.0
 6 C  dxy             0.1       0.0       0.0       0.1       0.9       0.0
 7 H  s               1.5      15.3       1.3       0.7       1.7       0.0
 8 H  s               1.3       0.0       5.0       0.8       0.0       0.0
 9 H  s               1.5      15.2       1.3       0.7       1.7       0.0
10 H  s               1.7       2.2       0.0       2.3       6.6       0.0
11 H  s               0.5       0.1       0.0       2.4       7.1       0.0
12 H  s              12.0       0.0       0.0       8.9       0.0       0.0
13 H  s               0.5       0.1       0.0       2.5       7.1       0.0
14 H  s               1.7       2.2       0.0       2.2       6.7       0.0

                     24        25        26        27        28        29   
                  -0.21677  -0.03131  -0.02913   0.04339   0.06295   0.07647
                   2.00000   0.00000   0.00000   0.00000   0.00000   0.00000
                  --------  --------  --------  --------  --------  --------
 0 C  s               0.0       0.0       0.0       2.5      18.4       0.0
 0 C  pz              2.3       0.0       0.1       0.1       0.1       0.0
 0 C  px              0.0       0.0       0.0       3.7       2.6       0.0
 0 C  py              0.0       0.3       0.0       0.0       0.0       4.7
 0 C  dxz             0.5       0.0       0.9       0.0       0.0       0.0
 0 C  dyz             0.0       0.1       0.0       0.0       0.0       0.1
 0 C  dx2y2           0.0       0.0       0.0       0.2       0.0       0.0
 1 C  s               0.0       0.0       0.0       0.8       0.0       0.0
 1 C  pz             27.7       0.0      29.6       0.0       0.0       0.0
 1 C  px              0.0       0.0       0.0       0.4       0.1       0.0
 1 C  py              0.0       0.0       0.0       0.0       0.0       1.5
 1 C  dz2             0.0       0.0       0.0       0.0       0.2       0.0
 1 C  dxz             0.2       0.0       0.2       0.0       0.0       0.0
 1 C  dyz             0.0       1.6       0.0       0.0       0.0       0.0
 1 C  dx2y2           0.0       0.0       0.0       0.6       0.1       0.0
 1 C  dxy             0.0       0.0       0.0       0.0       0.0       0.9
 2 C  s               0.0       0.0       0.0       2.8       0.2       0.8
 2 C  pz             10.0      23.0       7.3       0.0       0.0       0.1
 2 C  px              0.0       0.0       0.0       0.8       0.2       0.8
 2 C  py              0.0       0.0       0.0       1.7       0.0       5.3
 2 C  dxz             0.3       0.7       0.7       0.0       0.0       0.0
 2 C  dyz             0.2       0.0       0.6       0.0       0.0       0.0
 2 C  dx2y2           0.0       0.0       0.0       0.0       0.1       0.0
 2 C  dxy             0.0       0.0       0.0       0.4       0.1       0.4
 3 C  s               0.0       0.0       0.0       1.9       1.3       1.4
 3 C  pz              6.1      23.7       7.3       0.0       0.0       0.0
 3 C  px              0.0       0.0       0.0       0.9       0.3       0.9
 3 C  py              0.0       0.0       0.0       1.7       1.2       3.4
 3 C  dxz             0.4       0.6       0.6       0.0       0.0       0.0
 3 C  dyz             0.2       0.0       0.6       0.0       0.0       0.0
 3 C  dx2y2           0.0       0.0       0.0       0.3       0.1       0.0
 3 C  dxy             0.0       0.0       0.0       0.6       0.1       0.4
 4 C  s               0.0       0.0       0.0       2.2       1.0       0.0
 4 C  pz             29.8       0.0      29.9       0.1       0.0       0.0
 4 C  px              0.0       0.0       0.0       2.5       2.6       0.0
 4 C  py              0.0       0.0       0.0       0.0       0.0       0.5
 4 C  dxz             0.0       0.0       0.3       0.0       0.0       0.0
 4 C  dyz             0.0       1.6       0.0       0.0       0.0       0.0
 4 C  dx2y2           0.0       0.0       0.0       0.9       0.3       0.0
 4 C  dxy             0.0       0.0       0.0       0.0       0.0       0.1
 5 C  s               0.0       0.0       0.0       1.9       1.3       1.4
 5 C  pz              6.1      23.3       7.6       0.0       0.0       0.0
 5 C  px              0.0       0.0       0.0       0.9       0.3       0.9
 5 C  py              0.0       0.0       0.0       1.7       1.2       3.4
 5 C  dxz             0.4       0.6       0.6       0.0       0.0       0.0
 5 C  dyz             0.2       0.0       0.6       0.0       0.0       0.0
 5 C  dx2y2           0.0       0.0       0.0       0.3       0.1       0.0
 5 C  dxy             0.0       0.0       0.0       0.6       0.1       0.4
 6 C  s               0.0       0.0       0.0       2.8       0.2       0.8
 6 C  pz             10.0      23.3       7.0       0.0       0.0       0.1
 6 C  px              0.0       0.0       0.0       0.8       0.2       0.8
 6 C  py              0.0       0.0       0.0       1.7       0.0       5.3
 6 C  dxz             0.3       0.6       0.7       0.0       0.0       0.0
 6 C  dyz             0.2       0.0       0.6       0.0       0.0       0.0
 6 C  dx2y2           0.0       0.0       0.0       0.0       0.1       0.0
 6 C  dxy             0.0       0.0       0.0       0.4       0.1       0.4
 7 H  s               0.8       0.2       0.8       4.3      13.7       5.9
 8 H  s               3.4       0.0       2.9       2.1      17.3       0.0
 9 H  s               0.8       0.2       0.8       4.3      13.7       5.9
10 H  s               0.0       0.0       0.0      11.5       1.0      14.5
11 H  s               0.0       0.0       0.0       9.5       6.4      12.1
12 H  s               0.0       0.0       0.0      10.8       7.3       0.0
13 H  s               0.0       0.0       0.0       9.5       6.4      12.2
14 H  s               0.0       0.0       0.0      11.4       1.0      14.5

                     30        31        32        33        34        35   
                   0.09436   0.10632   0.11382   0.13647   0.13764   0.15169
                   0.00000   0.00000   0.00000   0.00000   0.00000   0.00000
                  --------  --------  --------  --------  --------  --------
 0 C  s               1.3       3.2       0.0       0.7       0.0       1.2
 0 C  pz             11.2       1.3       0.0       3.3       0.0      11.7
 0 C  px              0.1       0.5       0.0       0.4       0.0       1.2
 0 C  py              0.0       0.0      13.9       0.0       7.8       0.0
 0 C  dz2             0.4       0.2       0.0       0.0       0.0       0.6
 0 C  dxz             0.4       0.2       0.0       0.1       0.0       0.1
 0 C  dyz             0.0       0.0       0.5       0.0       0.9       0.0
 0 C  dx2y2           0.3       0.0       0.0       0.3       0.0       0.0
 0 C  dxy             0.0       0.0       0.1       0.0       0.7       0.0
 1 C  s               0.5       0.2       0.0       1.0       0.0       0.1
 1 C  pz              2.4       2.1       0.0       5.5       0.0       6.7
 1 C  px              0.4       1.6       0.0       0.4       0.0       1.1
 1 C  py              0.0       0.0       0.2       0.0       0.8       0.0
 1 C  dz2             0.1       0.0       0.0       0.1       0.0       0.0
 1 C  dxz             0.8       0.2       0.0       0.0       0.0       0.0
 1 C  dx2y2           0.2       1.3       0.0       0.0       0.0       0.5
 1 C  dxy             0.0       0.0       0.5       0.0       0.7       0.0
 2 C  s               0.4       1.8       0.1       0.2       5.5       0.6
 2 C  pz              4.3       2.4       0.3       4.1       0.2       4.8
 2 C  px              0.3       1.7       0.2       0.0       0.5       0.5
 2 C  py              0.7       1.7       0.4       0.5       2.4       0.3
 2 C  dz2             0.0       0.1       0.0       0.0       0.3       0.0
 2 C  dxz             0.1       0.0       0.0       0.0       0.0       0.0
 2 C  dyz             0.0       0.1       0.0       0.2       0.0       0.3
 2 C  dx2y2           0.0       0.6       0.0       0.0       0.2       0.2
 3 C  s               0.1       0.4       2.7       3.0       2.7       0.7
 3 C  pz              7.3       3.0       0.1       3.1       0.0       3.0
 3 C  px              0.0       0.0       1.0       0.8       0.1       0.9
 3 C  py              0.2       0.1       3.3       0.9       0.5       0.4
 3 C  dz2             0.0       0.0       0.1       0.1       0.2       0.0
 3 C  dyz             0.3       0.1       0.0       0.1       0.0       0.1
 3 C  dx2y2           0.0       0.0       0.0       0.0       0.2       0.0
 3 C  dxy             0.0       0.0       0.0       0.3       0.1       0.1
 4 C  s               0.6       4.1       0.0       5.0       0.0       1.6
 4 C  pz              8.0       3.1       0.0       2.9       0.0       2.7
 4 C  px              1.8       6.1       0.0       1.4       0.0       0.4
 4 C  py              0.0       0.0       0.2       0.0       0.6       0.0
 4 C  dz2             0.0       0.1       0.0       0.4       0.0       0.1
 4 C  dxz             0.3       0.1       0.0       0.1       0.0       0.1
 4 C  dx2y2           0.0       0.0       0.0       0.3       0.0       0.2
 4 C  dxy             0.0       0.0       0.0       0.0       0.4       0.0
 5 C  s               0.1       0.4       2.6       3.4       2.4       0.7
 5 C  pz              7.3       3.0       0.1       3.0       0.1       3.0
 5 C  px              0.0       0.0       1.0       0.8       0.1       0.9
 5 C  py              0.2       0.0       3.3       1.0       0.4       0.4
 5 C  dz2             0.0       0.0       0.1       0.2       0.2       0.0
 5 C  dyz             0.3       0.1       0.0       0.1       0.0       0.1
 5 C  dx2y2           0.0       0.0       0.0       0.0       0.2       0.0
 5 C  dxy             0.0       0.0       0.0       0.3       0.1       0.1
 6 C  s               0.4       1.8       0.1       0.3       5.3       0.6
 6 C  pz              4.2       2.4       0.3       4.1       0.3       4.8
 6 C  px              0.3       1.7       0.2       0.0       0.5       0.5
 6 C  py              0.7       1.7       0.4       0.7       2.3       0.3
 6 C  dz2             0.0       0.1       0.0       0.1       0.3       0.0
 6 C  dxz             0.1       0.0       0.0       0.0       0.0       0.0
 6 C  dyz             0.0       0.1       0.0       0.2       0.0       0.3
 6 C  dx2y2           0.0       0.6       0.0       0.0       0.2       0.2
 7 H  s               2.0       3.9      17.3       0.3       9.9       7.5
 8 H  s              27.4       0.3       0.0       7.5       0.0      11.8
 9 H  s               2.0       4.0      17.1       0.2      10.1       7.5
10 H  s               3.0       9.8       0.9       1.8      16.7       2.8
11 H  s               0.6       0.1      16.0      11.0       5.7       5.2
12 H  s               5.0      23.6       0.0      14.2       0.0       4.7
13 H  s               0.6       0.1      15.9      12.2       4.6       5.2
14 H  s               3.0       9.8       1.0       2.7      15.8       2.8

                     36        37        38        39        40        41   
                   0.20076   0.26733   0.27082   0.27664   0.29396   0.33434
                   0.00000   0.00000   0.00000   0.00000   0.00000   0.00000
                  --------  --------  --------  --------  --------  --------
 0 C  s               1.2       0.0       0.6       0.5       0.0       0.1
 0 C  pz              0.0       0.0       3.7       1.1       0.0       0.4
 0 C  px             27.6       0.0       2.1       9.4       0.0       1.2
 0 C  py              0.0       1.7       0.0       0.0       0.9       0.0
 0 C  dz2             1.5       0.0       0.7       1.3       0.0       0.1
 0 C  dyz             0.0       0.1       0.0       0.0       0.2       0.0
 0 C  dx2y2           6.8       0.0       0.3       1.3       0.0       0.3
 0 C  dxy             0.0       0.0       0.0       0.0       2.4       0.0
 1 C  s              20.2       0.0       8.2       1.5       0.0      13.0
 1 C  px              6.0       0.0       3.4      10.2       0.0       0.2
 1 C  py              0.0       3.6       0.0       0.0      11.5       0.0
 1 C  dz2             2.9       0.0       1.8       0.3       0.0       0.7
 1 C  dx2y2           0.3       0.0       3.1       0.7       0.0       0.1
 1 C  dxy             0.0       0.1       0.0       0.0       5.3       0.0
 2 C  s               2.8       1.2       1.4       2.6       9.4      11.7
 2 C  pz              0.0       0.0       0.2       0.1       0.3       0.0
 2 C  px              0.9       4.1       8.3       1.5       0.7       0.8
 2 C  py              0.2       2.4       1.6       2.6       3.8       0.4
 2 C  dz2             0.1       0.0       0.3       0.9       2.7       1.6
 2 C  dx2y2           0.0       1.2       4.3       1.9       0.6       0.0
 2 C  dxy             1.6       2.0       0.1       1.0       1.9       0.0
 3 C  s               0.1       9.4       1.6       1.5       1.5      13.4
 3 C  px              0.9       0.7       7.5       3.8       4.7       0.6
 3 C  py              1.2       4.3       0.6       2.9       2.6       1.0
 3 C  dz2             0.0       2.1       0.3       0.7       0.1       1.3
 3 C  dx2y2           0.7       0.8       2.9       3.1       1.9       0.2
 3 C  dxy             0.6       1.6       0.0       1.4       1.9       0.0
 4 C  s               1.2       0.0       3.7       8.7       0.0      14.0
 4 C  px              1.6       0.0       2.0       4.9       0.0       0.9
 4 C  py              0.0      16.0       0.0       0.0       5.0       0.0
 4 C  dz2             0.3       0.0       0.6       1.7       0.0       2.3
 4 C  dx2y2           0.1       0.0       2.7       1.0       0.0       0.2
 4 C  dxy             0.0       9.7       0.0       0.0       0.5       0.0
 5 C  s               0.1       9.5       1.6       1.4       1.5      13.5
 5 C  px              0.9       0.7       7.4       3.8       4.7       0.6
 5 C  py              1.2       4.3       0.6       2.8       2.6       1.0
 5 C  dz2             0.0       2.1       0.3       0.6       0.1       1.3
 5 C  dx2y2           0.7       0.8       2.9       3.2       1.9       0.2
 5 C  dxy             0.6       1.6       0.0       1.4       1.9       0.0
 6 C  s               2.8       1.2       1.4       2.6       9.4      11.7
 6 C  pz              0.0       0.0       0.2       0.1       0.2       0.0
 6 C  px              0.9       4.2       8.3       1.5       0.7       0.8
 6 C  py              0.2       2.4       1.7       2.6       3.8       0.4
 6 C  dz2             0.1       0.0       0.3       0.9       2.7       1.6
 6 C  dx2y2           0.0       1.3       4.3       1.8       0.6       0.0
 6 C  dxy             1.6       2.0       0.1       1.0       1.9       0.0
 7 H  s               1.1       0.2       1.0       0.9       2.3       0.0
 8 H  s               1.0       0.0       1.1       1.6       0.0       0.3
 9 H  s               1.1       0.2       1.0       0.9       2.3       0.0
10 H  s               3.1       2.9       0.6       1.6       0.6       1.1
11 H  s               0.5       1.5       0.7       0.9       2.2       0.4
12 H  s               1.4       0.0       3.3       1.5       0.0       0.8
13 H  s               0.5       1.5       0.8       0.8       2.2       0.4
14 H  s               3.1       2.8       0.6       1.6       0.6       1.1

                     42        43        44        45        46        47   
                   0.36211   0.38828   0.39399   0.40327   0.41544   0.43930
                   0.00000   0.00000   0.00000   0.00000   0.00000   0.00000
                  --------  --------  --------  --------  --------  --------
 0 C  s               0.0       1.1       0.0       0.6       3.2       2.3
 0 C  pz              0.0       3.6       0.0       6.1       8.8       0.4
 0 C  px              0.0      12.1       0.0       9.3      10.1       2.5
 0 C  py             18.9       0.0       0.7       0.0       0.0       0.0
 0 C  dz2             0.0       0.9       0.0       0.5       2.3       0.1
 0 C  dxz             0.0       0.0       0.0       0.3       0.3       0.1
 0 C  dyz             2.7       0.0       0.1       0.0       0.0       0.0
 0 C  dx2y2           0.0       0.0       0.0       2.1       0.1       0.1
 0 C  dxy             0.9       0.0       0.3       0.0       0.0       0.0
 1 C  s               0.0      15.7       0.0       0.0       1.3       3.0
 1 C  pz              0.0       0.7       0.0       2.4       4.8       6.8
 1 C  px              0.0       0.5       0.0       1.9       2.0       0.3
 1 C  py              3.5       0.0       0.1       0.0       0.0       0.0
 1 C  dz2             0.0       2.8       0.0       0.1       0.4       2.0
 1 C  dxz             0.0       0.1       0.0       0.2       0.4       0.1
 1 C  dx2y2           0.0       0.6       0.0       1.4       1.1       0.1
 1 C  dxy             1.8       0.0       0.1       0.0       0.0       0.0
 2 C  s               3.4       3.4       9.9       1.3       2.3       3.2
 2 C  pz              0.4       0.6       0.0       1.7       4.2       9.8
 2 C  px              6.1       0.7       5.2       1.0       0.2       0.1
 2 C  py              2.2       0.5       1.4       1.4       0.5       0.6
 2 C  dz2             0.3       0.6       2.6       0.6       1.1       1.0
 2 C  dyz             0.0       0.0       0.0       0.1       0.2       0.0
 2 C  dx2y2           1.4       0.5       0.4       0.2       0.5       0.1
 2 C  dxy             0.0       0.0       0.7       2.0       0.2       0.0
 3 C  s               1.0       3.9      10.5       0.5       3.4       1.9
 3 C  pz              0.0       0.0       0.0       0.1       0.4       9.5
 3 C  px              2.5       1.0       5.2       0.3       2.0       0.0
 3 C  py              0.9       0.4       1.1       1.6       0.1       0.1
 3 C  dz2             0.1       0.6       2.1       0.1       1.7       0.7
 3 C  dx2y2           0.1       0.4       0.1       0.6       0.3       0.0
 3 C  dxy             0.3       0.1       0.6       2.0       0.2       0.0
 4 C  s               0.0      13.6       0.0       2.3       2.8       2.7
 4 C  pz              0.0       0.0       0.0       0.0       0.3       9.3
 4 C  px              0.0       0.3       0.0       2.4       0.7       0.3
 4 C  py             10.4       0.0       0.3       0.0       0.0       0.0
 4 C  dz2             0.0       3.4       0.0       0.1       0.0       1.0
 4 C  dx2y2           0.0       0.8       0.0       2.2       0.8       0.0
 4 C  dxy             2.9       0.0       0.1       0.0       0.0       0.0
 5 C  s               1.0       3.9      10.5       0.5       3.4       1.9
 5 C  pz              0.0       0.0       0.0       0.1       0.4       9.5
 5 C  px              2.5       1.0       5.2       0.3       1.9       0.0
 5 C  py              0.9       0.4       1.1       1.6       0.1       0.1
 5 C  dz2             0.1       0.6       2.1       0.1       1.7       0.7
 5 C  dx2y2           0.1       0.4       0.1       0.6       0.3       0.0
 5 C  dxy             0.3       0.1       0.6       2.0       0.2       0.0
 6 C  s               3.4       3.4       9.9       1.3       2.2       3.2
 6 C  pz              0.4       0.6       0.0       1.7       4.1       9.7
 6 C  px              6.1       0.7       5.2       1.0       0.2       0.1
 6 C  py              2.2       0.5       1.4       1.4       0.5       0.6
 6 C  dz2             0.3       0.6       2.6       0.6       1.1       1.0
 6 C  dyz             0.0       0.0       0.0       0.1       0.2       0.0
 6 C  dx2y2           1.4       0.5       0.4       0.2       0.5       0.1
 6 C  dxy             0.0       0.0       0.7       2.0       0.2       0.0
 7 H  s               6.8       0.2       0.5       2.8       0.2       0.5
 8 H  s               0.0       1.7       0.0       1.9       8.2       0.3
 9 H  s               6.8       0.2       0.5       2.8       0.2       0.5
10 H  s               2.4       1.2       4.7       9.7       0.2       4.0
11 H  s               1.4       2.3       4.1       3.2       8.2       1.3
12 H  s               0.0       9.1       0.0       7.8       1.0       3.1
13 H  s               1.4       2.3       4.1       3.2       8.2       1.3
14 H  s               2.4       1.2       4.7       9.7       0.2       4.0

                     48        49        50        51        52        53   
                   0.45321   0.45607   0.47136   0.50043   0.51513   0.54387
                   0.00000   0.00000   0.00000   0.00000   0.00000   0.00000
                  --------  --------  --------  --------  --------  --------
 0 C  s               0.0       1.1       2.4       0.0       0.0       0.0
 0 C  pz              0.0      10.5       0.1       0.0       0.0       5.6
 0 C  px              0.0       0.3       7.3       0.0       0.0       0.0
 0 C  py              7.0       0.0       0.0       2.3       1.7       0.0
 0 C  dz2             0.0       1.9       0.1       0.0       0.0       1.7
 0 C  dxz             0.0       0.7       0.0       0.0       0.0       0.2
 0 C  dyz             1.1       0.0       0.0       0.0       0.2       0.0
 0 C  dx2y2           0.0       0.6       0.0       0.0       0.0       0.4
 0 C  dxy             0.4       0.0       0.0       1.5       2.5       0.0
 1 C  s               0.0       1.8       2.6       0.0       0.0       0.4
 1 C  pz              0.0       0.4       0.0       0.0       0.0       2.3
 1 C  px              0.0       0.7       0.6       0.0       0.0       0.1
 1 C  py              2.9       0.0       0.0       4.7       6.9       0.0
 1 C  dz2             0.0       1.2       2.5       0.0       0.0       0.1
 1 C  dxz             0.0       0.6       0.0       0.0       0.0       0.1
 1 C  dx2y2           0.0       0.4       0.0       0.0       0.0       0.1
 1 C  dxy             0.8       0.0       0.0       1.5       3.1       0.0
 2 C  s               1.7       2.1       0.5       1.1       0.5       0.2
 2 C  pz              2.0       0.5       0.0      18.1       3.3      17.3
[...]
 3 C  dyz             5.1       3.8       0.0       0.0       0.0       4.0
 3 C  dx2y2           0.0       0.0       0.2       3.0       0.7       0.0
 3 C  dxy             0.2       0.0       2.8       0.0       1.5       0.0
 4 C  s               0.0       0.0       0.0       6.1       0.0       0.0
 4 C  pz              0.0       0.3       0.0       0.0       0.0       0.0
 4 C  px              0.0       0.0       0.0       1.6       0.4       0.0
 4 C  py              0.0       0.0       0.7       0.0       0.0       0.0
 4 C  dz2             0.0       0.1       0.0      29.7       0.1       0.0
 4 C  dxz             0.0       3.6       0.0       0.0       0.0       0.0
 4 C  dyz            26.8       0.0       0.0       0.0       0.0      16.2
 4 C  dx2y2           0.0       0.0       0.0       0.9       7.0       0.0
 4 C  dxy             0.1       0.0       8.3       0.0       0.0       0.0
 5 C  s               0.0       0.0       4.2       2.1       0.2       0.0
 5 C  pz              0.4       0.2       0.0       0.0       0.0       0.0
 5 C  px              0.0       0.0       0.6       0.2       0.8       0.0
 5 C  py              0.0       0.0       0.6       1.0       0.2       0.0
 5 C  dz2             0.0       0.0      12.3      14.4       2.0       0.0
 5 C  dxz             3.5       0.5       0.0       0.0       0.0      12.4
 5 C  dyz             5.1       3.8       0.0       0.0       0.0       4.0
 5 C  dx2y2           0.0       0.0       0.2       3.0       0.7       0.0
 5 C  dxy             0.2       0.0       2.8       0.0       1.5       0.0
 6 C  s               0.0       0.0       3.3       0.2       2.0       0.0
 6 C  pz              0.4       0.5       0.0       0.0       0.0       0.0
 6 C  px              0.1       0.0       0.7       0.2       0.2       0.0
 6 C  py              0.0       0.0       0.3       0.5       1.1       0.0
 6 C  dz2             0.2       0.1      11.5       0.1      11.6       0.0
 6 C  dxz             2.0       0.3       0.0       0.0       0.0      12.6
 6 C  dyz             4.5      12.1       0.0       0.0       0.0       4.0
 6 C  dx2y2           0.1       0.0       0.7       0.9       0.0       0.0
 6 C  dxy             0.0       0.0       3.5       1.7       0.8       0.0
 7 H  s               1.0       0.2       0.0       0.0       0.0       0.1
 8 H  s               0.0       0.6       0.0       0.1       0.4       0.0
 9 H  s               1.0       0.2       0.0       0.0       0.0       0.1
10 H  s               0.0       0.0       0.7       0.2       0.1       0.0
11 H  s               0.0       0.0       0.7       0.9       0.5       0.0
12 H  s               0.0       0.0       0.0       1.5       0.7       0.0
13 H  s               0.0       0.0       0.7       0.9       0.5       0.0
14 H  s               0.0       0.0       0.7       0.2       0.1       0.0

                    108       109       110       111       112       113   
                   2.64309   2.64331   2.68462   2.69027   2.94606   3.32127
                   0.00000   0.00000   0.00000   0.00000   0.00000   0.00000
                  --------  --------  --------  --------  --------  --------
 0 C  s               0.0       0.2       0.0       1.0       0.0       0.2
 0 C  px              0.0       0.0       0.0       2.1       0.0       0.4
 0 C  dz2             0.0       0.0       0.0       1.9       0.0       0.0
 0 C  dyz             0.0       0.0       0.1       0.0       0.0       0.0
 0 C  dx2y2           0.0       0.0       0.0       9.5       0.0       0.9
 0 C  dxy             0.2       0.0       5.0       0.0       3.0       0.0
 1 C  s               0.0       2.4       0.0       0.6       0.0       0.9
 1 C  px              0.0       1.6       0.0       1.2       0.0       0.2
 1 C  py              4.3       0.0       0.2       0.0       2.8       0.0
 1 C  dz2             0.0       0.2       0.0       1.1       0.0       0.4
 1 C  dx2y2           0.0       0.2       0.0      30.7       0.0      15.9
 1 C  dxy             1.8       0.0      20.6       0.0      22.6       0.0
 2 C  s               2.5       0.7       0.8       0.1       0.0       1.4
 2 C  px              0.5       2.7       0.0       1.1       2.5       0.0
 2 C  py              0.7       0.2       0.9       0.1       1.2       0.1
 2 C  dz2             2.6       0.2       0.0       0.2       0.0       0.7
 2 C  dx2y2           1.2      15.1       3.6       2.1      11.1       3.7
 2 C  dxy            15.8       4.6       0.8       1.9       3.0      10.1
 3 C  s               0.1       0.7       2.2       0.6       0.0       1.4
 3 C  px              1.0       3.2       0.2       0.5       2.3       0.0
 3 C  py              0.4       0.2       1.8       0.4       0.6       0.1
 3 C  dz2             1.1       0.2       0.8       1.1       0.0       0.7
 3 C  dx2y2           7.1      11.4       3.6       4.4       7.4       3.4
 3 C  dxy             8.8       6.0       8.0       1.9       2.2       9.9
 4 C  s               0.0       3.0       0.0       0.5       0.0       1.5
 4 C  px              0.0       1.3       0.0       0.2       0.0       0.1
 4 C  py              0.9       0.0       6.0       0.0       2.3       0.0
 4 C  dz2             0.0       0.7       0.0       1.4       0.0       0.7
 4 C  dx2y2           0.0       0.2       0.0      18.9       0.0      13.1
 4 C  dxy             6.7       0.0      21.6       0.0       8.5       0.0
 5 C  s               0.1       0.7       2.2       0.6       0.0       1.4
 5 C  px              0.9       3.3       0.2       0.5       2.3       0.0
 5 C  py              0.4       0.2       1.8       0.4       0.6       0.1
 5 C  dz2             1.1       0.2       0.8       1.2       0.0       0.7
 5 C  dx2y2           6.5      12.0       3.7       4.3       7.4       3.4
 5 C  dxy             9.3       5.5       8.0       2.0       2.2       9.9
 6 C  s               2.4       0.8       0.8       0.1       0.0       1.4
 6 C  px              0.4       2.8       0.0       1.1       2.5       0.0
 6 C  py              0.7       0.1       0.9       0.1       1.2       0.1
 6 C  dz2             2.6       0.2       0.0       0.2       0.0       0.7
 6 C  dx2y2           1.0      15.4       3.6       2.0      11.1       3.7
 6 C  dxy            16.4       4.0       0.8       1.9       3.0      10.1
 7 H  s               0.0       0.0       0.1       0.1       0.0       0.0
 9 H  s               0.0       0.0       0.1       0.1       0.0       0.0
10 H  s               0.6       0.0       0.1       0.2       0.0       0.5
11 H  s               0.6       0.0       0.1       0.2       0.0       0.5
12 H  s               0.0       0.0       0.0       0.8       0.0       0.5
13 H  s               0.6       0.0       0.1       0.2       0.0       0.5
14 H  s               0.6       0.0       0.1       0.2       0.0       0.5



                      *****************************
                      * MAYER POPULATION ANALYSIS *
                      *****************************

  NA   - Mulliken gross atomic population
  ZA   - Total nuclear charge
  QA   - Mulliken gross atomic charge
  VA   - Mayer's total valence
  BVA  - Mayer's bonded valence
  FA   - Mayer's free valence

  ATOM       NA         ZA         QA         VA         BVA        FA
  0 C      6.2279     6.0000    -0.2279     3.8988     3.8988     0.0000
  1 C      5.9553     6.0000     0.0447     4.0356     4.0356    -0.0000
  2 C      6.1115     6.0000    -0.1115     3.8514     3.8514     0.0000
  3 C      6.0484     6.0000    -0.0484     3.8311     3.8311    -0.0000
  4 C      6.0527     6.0000    -0.0527     3.8220     3.8220    -0.0000
  5 C      6.0485     6.0000    -0.0485     3.8312     3.8312    -0.0000
  6 C      6.1114     6.0000    -0.1114     3.8513     3.8513     0.0000
  7 H      0.8936     1.0000     0.1064     0.9610     0.9610    -0.0000
  8 H      0.8791     1.0000     0.1209     0.9495     0.9495    -0.0000
  9 H      0.8936     1.0000     0.1064     0.9609     0.9609    -0.0000
 10 H      0.9646     1.0000     0.0354     0.9595     0.9595    -0.0000
 11 H      0.9498     1.0000     0.0502     0.9488     0.9488    -0.0000
 12 H      0.9491     1.0000     0.0509     0.9491     0.9491     0.0000
 13 H      0.9498     1.0000     0.0502     0.9488     0.9488    -0.0000
 14 H      0.9646     1.0000     0.0354     0.9595     0.9595    -0.0000

  Mayer bond orders larger than 0.100000
B(  0-C ,  1-C ) :   1.0974 B(  0-C ,  7-H ) :   0.9429 B(  0-C ,  8-H ) :   0.9323 
B(  0-C ,  9-H ) :   0.9428 B(  1-C ,  2-C ) :   1.3964 B(  1-C ,  6-C ) :   1.3962 
B(  2-C ,  3-C ) :   1.3781 B(  2-C , 10-H ) :   0.9631 B(  3-C ,  4-C ) :   1.3813 
B(  3-C , 11-H ) :   0.9633 B(  4-C ,  5-C ) :   1.3812 B(  4-C , 12-H ) :   0.9653 
B(  5-C ,  6-C ) :   1.3783 B(  5-C , 13-H ) :   0.9633 B(  6-C , 14-H ) :   0.9631 


-------
TIMINGS
-------

Total SCF time: 0 days 0 hours 0 min 0 sec 

Total time                  ....       0.604 sec
Sum of individual times     ....       0.597 sec  ( 98.7%)

SCF preparation             ....       0.023 sec  (  3.8%)
Fock matrix formation       ....       0.527 sec  ( 87.2%)
  Startup                   ....       0.001 sec  (  0.1% of F)
  Split-RI-J                ....       0.219 sec  ( 41.5% of F)
  XC integration            ....       0.300 sec  ( 56.8% of F)
    Basis function eval.    ....       0.128 sec  ( 42.8% of XC)
    Density eval.           ....       0.061 sec  ( 20.4% of XC)
    XC-Functional eval.     ....       0.025 sec  (  8.3% of XC)
    XC-Potential eval.      ....       0.074 sec  ( 24.7% of XC)
Diagonalization             ....       0.000 sec  (  0.0%)
Density matrix formation    ....       0.001 sec  (  0.1%)
Total Energy calculation    ....       0.000 sec  (  0.0%)
Population analysis         ....       0.028 sec  (  4.7%)
Orbital Transformation      ....       0.007 sec  (  1.1%)
Orbital Orthonormalization  ....       0.000 sec  (  0.0%)
DIIS solution               ....       0.002 sec  (  0.3%)
  MO trafo                  ....       0.000 sec  (  0.0 % of DIIS)
  Orb grad                  ....       0.000 sec  (  0.0 % of DIIS)
  Energy W gradient         ....       0.000 sec  (  0.0 % of DIIS)
  DIIS error                ....       0.000 sec  ( 10.5 % of DIIS)
  DIIS work                 ....       0.001 sec  ( 87.5 % of DIIS)
  Form Q                    ....       0.000 sec  (  0.0 % of DIIS)
  Form QpQm                 ....       0.000 sec  (  0.0 % of DIIS)
  Exp/Cayley                ....       0.000 sec  (  0.0 % of DIIS)
  Orb update                ....       0.000 sec  (  0.0 % of DIIS)
  Wake-sleep                ....       0.000 sec  (  2.0 % of DIIS)
SOSCF solution              ....       0.009 sec  (  1.5%)
  MO trafo                  ....       0.008 sec  ( 87.2 % of SOSCF)
  Orb grad                  ....       0.000 sec  (  0.4 % of SOSCF)
  Rot update                ....       0.000 sec  (  1.2 % of SOSCF)
  Step                      ....       0.001 sec  ( 10.6 % of SOSCF)
Finished LeanSCF after   0.6 sec

Maximum memory used throughout the entire LEANSCF-calculation: 10.9 MB


-------------------------------------------------------------------------------
                          DFT DISPERSION CORRECTION                            
                                                                               
                                DFTD4 V3.4.0                                   
-------------------------------------------------------------------------------
The PBE functional is recognized
Active option DFTDOPT                   ...         5   

-------------------------   ----------------
Dispersion correction           -0.014056955
-------------------------   ----------------

------------------   -----------------
gCP correction             0.054789313
------------------   -----------------

-------------------------   --------------------
FINAL SINGLE POINT ENERGY      -270.942005834464
-------------------------   --------------------


------------------------------------------------------------------------------
                              ORCA PROPERTY CALCULATIONS
------------------------------------------------------------------------------

GBWName                                 ... sp.gbw
Number of atoms                         ...     15
Number of basis functions               ...    114
Max core memory                         ...   1024 MB

Electric properties:
Dipole moment                           ... YES
Quadrupole moment                       ...  NO
Static polarizability (Dipole/Dipole)   ...  NO
Static polarizability (Dipole/Quad.)    ...  NO
Static polarizability (Quad./Quad.)     ...  NO
Static polarizability (Velocity)        ...  NO

Atomic electric properties:
Dipole moment                           ...  NO
Quadrupole moment                       ...  NO
Static polarizability                   ...  NO

Choice of electric origin               ... Center of mass
Position of electric origin             ...    -0.000008     0.000000     0.000000

General magnetic properties:
Magnetizability                         ...  NO

EPR properties:
g-Tensor (aka g-matrix)                 ...  NO
Zero-Field splitting spin-orbit         ...  NO
Zero-field splitting spin-spin          ...  NO
Hyperfine couplings                     ...  NO (   0 nuclei)
Quadrupole couplings                    ...  NO (   0 nuclei)
Contact density                         ...  NO (   0 nuclei)

NMR properties:
Chemical shifts                         ...  NO (   0 nuclei)
Spin-rotation constants                 ...  NO (   0 nuclei)
Spin-spin couplings                     ...  NO (   0 nuclei,    0 pairs)

Choice of magnetic origin               ... GIAO
Position of magnetic origin             ...     0.000000     0.000000     0.000000

Properties with geometric perturbations:
SCF Hessian                             ...  NO
IR spectrum                             ...  NO
VCD spectrum                            ...  NO
X-ray spectroscopy properties:
SCF XES/XAS/RIXS spectra                ...  NO


-------------
DIPOLE MOMENT
-------------

Method             : SCF
Type of density    : Electron Density
Multiplicity       :   1
Irrep              :   0
Energy             :  -270.9827381927085526 Eh
Relativity type    : 
Basis              : AO
                                X                 Y                 Z
Electronic contribution:      3.320791603      -0.000027707      -0.028836517
Nuclear contribution   :     -3.471000506       0.000201711       0.053835470
                        -----------------------------------------
Total Dipole Moment    :     -0.150208903       0.000174003       0.024998953
                        -----------------------------------------
Magnitude (a.u.)       :      0.152275055
Magnitude (Debye)      :      0.387052431



--------------------
Rotational spectrum 
--------------------
 
Rotational constants in cm-1:             0.186988             0.085333             0.059237 
Rotational constants in MHz :          5605.751843          2558.222983          1775.890263 

Dipole components along the rotational axes: 
x,y,z [a.u.] :    -0.150209    -0.000174     0.024999 
x,y,z [Debye]:    -0.381801    -0.000442     0.063542 

 

Dipole moment calculation done in   0.0 sec 

Maximum memory used throughout the entire PROP-calculation: 7.1 MB

--------------------------------
SUGGESTED CITATIONS FOR THIS RUN
--------------------------------

Below you find a list of papers that are relevant to this ORCA run
We neither can nor want to force you to cite these papers, but we appreciate if you do
You receive ORCA, which is the product of decades of hard work by many enthusiastic individuals, for free
The only thing we kindly ask in return is that you cite our papers,
We deeply appreciate it, if you show your appreciation for ORCA by not just citing the generic ORCA reference.

Please note that relegating all ORCA citations to the supporting information does *not* help us.
SI sections are not indexed - citations you put there will not count into any citation statistics
But we need these citations in order to attract the funding resources that allow us to do what we are doing

Therefore, if you are a happy ORCA user, please consider citing a few of the papers listed below in the main body of your paper

In addition to the list printed below, the program has created the file sp.bibtex that contains the list in bibtex format
You can import this file easily into all common literature databanks and citation aid programs


List of essential papers. We consider these as the minimum necessary citations

  1. Neese,F.
     Software update: the ORCA program system, version 5.0
     WIRES Comput. Molec. Sci., 2022 12(1)e1606
     doi.org/10.1002/wcms.1606

List of papers to cite with high priority. The work reported in these papers was absolutely
necessary for this run to complete.
Our perspective: the developers of density functionals and basis sets usually get cited in chemistry papers
Good! But without the algorithms to do something with them, the functionals or basis sets would not do anything.
Hence, in our opinion, the algorithm design and method developments papers are equally worthy of getting cited

  1. Neese,F.
     An improvement of the resolution of the identity approximation for the formation of the Coulomb matrix
     J. Comp. Chem., 2003 24(14)1740-1747
     doi.org/10.1002/jcc.10318
  2. Neese,F.
     The SHARK Integral Generation and Digestion System
     J. Comp. Chem., 2022  1-16
     doi.org/10.1002/jcc.26942
  3. Caldeweyher,E.; Bannwarth,C.; Grimme,S.
     Extension of the D3 dispersion coefficient model
     J. Chem. Phys., 2017 147 034112
     doi.org/10.1063/1.4993215
  4. Caldeweyher,E.; Ehlert,S.; Hansen,A.; Neugebauer,H.; Spicher,S.; Bannwarth,C.; Grimme,S.
     A generally applicable atomic-charge dependent London dispersion correction
     J. Chem. Phys., 2019 150 154122
     doi.org/10.1063/1.5090222
  5. Caldeweyher,E.; Mewes,J.; Ehlert,S.; Grimme,S.
     Extension and evaluation of the D4 London-dispersion model for periodic systems
     Phys. Chem. Chem. Phys., 2020 22(16)8499-8512
     doi.org/10.1039/D0CP00502A
  6. Wittmann,L.; Gordiy,I.; Friede,M.; Helmich-Paris,B.; Grimme,S.; Hansen,A.; Bursch,M.
     Extension of the D3 and D4 London Dispersion Corrections to the full Actinides Series
     Phys. Chem. Chem. Phys., 2024 26(32)21379-21394
     doi.org/https://doi.org/10.1039/D4CP01514B 

List of suggested additional citations. These are papers that are important in the 'surrounding' of 
of this run, or papers that preceded the highly important papers. If you like your results we are grateful for a citation.

  1. Neese,F.
     The ORCA program system
     WIRES Comput. Molec. Sci., 2012 2(1)73-78
     doi.org/10.1002/wcms.81
  2. Neese,F.
     Software update: the ORCA program system, version 4.0
     WIRES Comput. Molec. Sci., 2018 8(1)1-6
     doi.org/10.1002/wcms.1327
  3. Neese,F.; Wennmohs,F.; Becker,U.; Riplinger,C.
     The ORCA quantum chemistry program package
     J. Chem. Phys., 2020 152 Art. No. L224108
     doi.org/10.1063/5.0004608

List of optional additional citations

  1. Neese,F.
     Approximate second-order SCF convergence for spin unrestricted wavefunctions
     Chem. Phys. Lett., 2000 325(1-3)93-98
     doi.org/10.1016/s0009-2614(00)00662-x

Timings for individual modules:

Sum of individual times          ...        0.876 sec (=   0.015 min)
Startup calculation              ...        0.183 sec (=   0.003 min)  20.9 %
SCF iterations                   ...        0.661 sec (=   0.011 min)  75.4 %
Property calculations            ...        0.032 sec (=   0.001 min)   3.7 %
                             ****ORCA TERMINATED NORMALLY****
TOTAL RUN TIME: 0 days 0 hours 0 minutes 0 seconds 936 msec
