14
 energy: -307.632851786380 gnorm: 0.004050784392 xtb: 6.7.1 (41059b4)
C           -2.11567082331436        0.46385615621332       -0.71681760655392
C           -1.34979074727459        0.39567403709642        0.61173728142113
C            0.02473175657572       -0.19347533874434        0.42029592541932
O            0.37722716901005       -1.29831152725398        0.76718162733378
O            0.83596691788823        0.67750220686705       -0.23367115894295
C            2.16437531465283        0.18545574098784       -0.50037351713599
H           -1.60162177575056        1.11494834109910       -1.42798392485437
H           -2.20721949963519       -0.53113134889430       -1.16200576315464
H           -3.12260050868711        0.85744549314676       -0.55410641234740
H           -1.87466941737627       -0.23762641221285        1.32999720723803
H           -1.25041014990249        1.40080381093995        1.03437329917085
H            2.70846240248701        0.04071174933261        0.43800109789455
H            2.64547983990749        0.95357876129363       -1.10788466174363
H            2.12246334387315       -0.76621391460108       -1.03949572812668
14
 energy: -307.632865626036 gnorm: 0.000998521387 xtb: 6.7.1 (41059b4)
C           -2.11548474010814        0.46305576389193       -0.71721115118518
C           -1.34980471506232        0.39567955625644        0.61137556195177
C            0.02549469071350       -0.19244280421089        0.42170643597902
O            0.37750988967342       -1.29564962386624        0.76944663908108
O            0.83582926992553        0.67735445095413       -0.23356751892340
C            2.16465042225108        0.18525118748976       -0.50050655152448
H           -1.60227641176358        1.11395356000612       -1.42912886698417
H           -2.20782001321060       -0.53196574371287       -1.16209132869614
H           -3.12211673566377        0.85683268338790       -0.55356452508102
H           -1.87489714420208       -0.23702167347991        1.32997414851101
H           -1.25075705116644        1.40119808407923        1.03350657028753
H            2.70885395920771        0.03535094287817        0.43622990816927
H            2.64637647464412        0.95467846063832       -1.10429352705712
H            2.12116581252434       -0.76305709854522       -1.04262860190371
14
 energy: -307.632874989828 gnorm: 0.001888322806 xtb: 6.7.1 (41059b4)
C           -2.11549204854697        0.46131269732463       -0.71760710889733
C           -1.34955048073519        0.39660000666329        0.61067401564141
C            0.02673562553026       -0.19096091966049        0.42296404261165
O            0.37930933836903       -1.29123353125150        0.77602641760773
O            0.83588953249103        0.67755057938917       -0.23364123844074
C            2.16502666772214        0.18461721658800       -0.50132627271356
H           -1.60347560173322        1.11117000103432       -1.43130681663209
H           -2.20870295736706       -0.53431741877464       -1.16094410599938
H           -3.12187208156340        0.85535881768547       -0.55328417919578
H           -1.87453823295170       -0.23478474793395        1.33047357395099
H           -1.25161925135392        1.40315822285717        1.03105664610078
H            2.70650640464363        0.02221796416180        0.43435314106809
H            2.64962984491532        0.95910273075596       -1.09491544118004
H            2.11887668109982       -0.75657381554863       -1.05327670332387
14
 energy: -307.632885574247 gnorm: 0.002073001934 xtb: 6.7.1 (41059b4)
C           -2.11538804438392        0.45917420882874       -0.71793304536276
C           -1.34948661857621        0.39827552183294        0.61044083472280
C            0.02851747072888       -0.18784830176914        0.42697114523611
O            0.38166461968617       -1.28688586611584        0.78364089297437
O            0.83595130695763        0.67841753082575       -0.23412923487869
C            2.16487541945386        0.18374839717132       -0.50307079576596
H           -1.60389829028585        1.10731924881218       -1.43360189323884
H           -2.20850327233148       -0.53762814398413       -1.15867792701899
H           -3.12196898435032        0.85324827898781       -0.55470114965716
H           -1.87425537446270       -0.23195481473212        1.33141907506593
H           -1.25304690692543        1.40595150886678        1.02866483983718
H            2.70119273290153        0.00542823997953        0.43280158188683
H            2.65459527169568        0.96515837330907       -1.08347669242893
H            2.11647378335808       -0.74918626363816       -1.06910330511360
14
 energy: -307.632893776357 gnorm: 0.002126777064 xtb: 6.7.1 (41059b4)
C           -2.11499785702813        0.45367458693892       -0.71804950993097
C           -1.34959652467093        0.40302422204892        0.61092017440371
C            0.02991190188680       -0.18220342056199        0.43079592438339
O            0.38639292831876       -1.27683009495326        0.80004450102849
O            0.83532443697207        0.68005268581078       -0.23762002408258
C            2.16412006458613        0.18227345598497       -0.50647481657338
H           -1.60419953279191        1.09712780078048       -1.43858707272219
H           -2.20747087808697       -0.54635257017391       -1.15178620546938
H           -3.12199027623894        0.84810562967886       -0.55775669420844
H           -1.87290384356941       -0.22372937728307        1.33604089043307
H           -1.25510148862035        1.41352131344310        1.02290340986122
H            2.68654994523681       -0.03450875993520        0.43047752436983
H            2.66782467614311        0.97988047607322       -1.05455472867150
H            2.11285888091766       -0.73081759380884       -1.10711291910780
14
 energy: -307.632899137178 gnorm: 0.000976808573 xtb: 6.7.1 (41059b4)
C           -2.11502142485189        0.45472150684164       -0.71766710436229
C           -1.34953388490884        0.40248577834283        0.61129828390117
C            0.02904553566942       -0.18318661013737        0.42975138220515
O            0.38471890861163       -1.27941574036601        0.79520667697182
O            0.83515594353116        0.67944856107241       -0.23793064178685
C            2.16381391245248        0.18274465928482       -0.50580007678345
H           -1.60351278874219        1.09875099604558       -1.43706962578210
H           -2.20691334748478       -0.54494764679424       -1.15224913977814
H           -3.12213454057535        0.84893595807066       -0.55768883593219
H           -1.87303184896925       -0.22489543048414        1.33570449789860
H           -1.25442033680240        1.41238816302474        1.02421837221269
H            2.68799197722436       -0.02627936456018        0.43070028349194
H            2.66556555230919        0.97634734236824       -1.05966511454869
H            2.11499895436883       -0.73387984121231       -1.09956771955870
14
 energy: -307.632901638764 gnorm: 0.000404263040 xtb: 6.7.1 (41059b4)
C           -2.11494964713667        0.45374335283488       -0.71711854612466
C           -1.34915696250810        0.40386735322262        0.61195298734026
C            0.02832324775731       -0.18245327496870        0.42918444664657
O            0.38381697871438       -1.27926310143724        0.79329860166197
O            0.83484264836923        0.67939169525096       -0.23965244268557
C            2.16304198090439        0.18290272306504       -0.50581006001268
H           -1.60301809013218        1.09646421752637       -1.43730282527675
H           -2.20589466117321       -0.54687792527793       -1.14966463716011
H           -3.12229573355509        0.84778698669810       -0.55840888504797
H           -1.87225388729704       -0.22257744091355        1.33744837270389
H           -1.25367459588361        1.41427924372905        1.02324270428113
H            2.68421610074165       -0.03112712345110        0.43079972150939
H            2.66762500228961        0.97787106154279       -1.05469515597668
H            2.11610021419560       -0.73078925856831       -1.10403352620736
14
 energy: -307.632901638764 gnorm: 0.000404263040 xtb: 6.7.1 (41059b4)
C           -2.11494964713667        0.45374335283488       -0.71711854612466
C           -1.34915696250810        0.40386735322262        0.61195298734026
C            0.02832324775731       -0.18245327496870        0.42918444664657
O            0.38381697871438       -1.27926310143724        0.79329860166197
O            0.83484264836923        0.67939169525096       -0.23965244268557
C            2.16304198090439        0.18290272306504       -0.50581006001268
H           -1.60301809013218        1.09646421752637       -1.43730282527675
H           -2.20589466117321       -0.54687792527793       -1.14966463716011
H           -3.12229573355509        0.84778698669810       -0.55840888504797
H           -1.87225388729704       -0.22257744091355        1.33744837270389
H           -1.25367459588361        1.41427924372905        1.02324270428113
H            2.68421610074165       -0.03112712345110        0.43079972150939
H            2.66762500228961        0.97787106154279       -1.05469515597668
H            2.11610021419560       -0.73078925856831       -1.10403352620736
