14
 energy: -20.782323565998 gnorm: 0.028436973218 xtb: 6.7.1 (41059b4)
C           -2.22870659529404        0.21393790147473       -0.62077885780011
C           -1.30184211941658        0.58611884117425        0.54580295765264
C            0.03037848273631       -0.09973858453935        0.38130903008099
O            0.26357088733578       -1.24815559380791        0.67922355181046
O            0.94110442343511        0.72206455731347       -0.19762544642702
C            2.22552451382440        0.11480410951163       -0.45222208905074
H           -2.36420023722128       -0.86973748414834       -0.67172061048763
H           -3.20932225242422        0.67892970332771       -0.48936154370628
H           -1.81305777239930        0.55679292148707       -1.57277427203119
H           -1.73245736933067        0.24038597999273        1.48960459825393
H           -1.16196036427059        1.66920029241328        0.59273258259623
H            2.11457806799339       -0.74765988783591       -1.11441434244992
H            2.68381172770195       -0.21214865852969        0.48443682896498
H            2.82642520479233        0.89099852581653       -0.92539894674132
14
 energy: -20.783072817581 gnorm: 0.010408209871 xtb: 6.7.1 (41059b4)
C           -2.22465495288066        0.21466173418591       -0.61685950846793
C           -1.30017474916933        0.58379633589509        0.54487243639200
C            0.02746652288073       -0.10919166992856        0.36628919208446
O            0.26237585638810       -1.24708044737343        0.67388516755394
O            0.93793603124266        0.70503110740582       -0.20117681748394
C            2.21962114051452        0.11961097181357       -0.45077942590365
H           -2.35815325265168       -0.86465646864953       -0.66356947528030
H           -3.19862680467267        0.68155606521548       -0.48189527338641
H           -1.80461829056514        0.55576955589901       -1.56189114185355
H           -1.73884822082592        0.24366440623991        1.48515724795687
H           -1.14917031437493        1.66331115756132        0.57895914470885
H            2.11154022752326       -0.74188043372969       -1.11123387484328
H            2.67103194848219       -0.20498601833409        0.48776147178868
H            2.81812145557146        0.89618632744939       -0.92070570260072
14
 energy: -20.783188782404 gnorm: 0.004432595954 xtb: 6.7.1 (41059b4)
C           -2.22024941162840        0.21561516098575       -0.61742187196731
C           -1.29873141758362        0.58363069472826        0.54601267537503
C            0.02982422217118       -0.11186980722939        0.37456662572116
O            0.26094813840863       -1.25179788444365        0.67239357343821
O            0.93335362217280        0.69543257095821       -0.19882931096685
C            2.21102440881995        0.12233926163184       -0.45195921715786
H           -2.35314924385439       -0.86197440217352       -0.66266054962096
H           -3.19246349708187        0.68206914030065       -0.48432433758535
H           -1.79742597870605        0.55547090196466       -1.55929157844454
H           -1.74280662460020        0.24705308957223        1.48343930265282
H           -1.13984876716124        1.66092608216290        0.57538601023407
H            2.11002906549348       -0.74067452425760       -1.11135812659119
H            2.66715809248395       -0.20027271632428        0.48483234087436
H            2.80618398852837        0.89984505577414       -0.92197209529661
14
 energy: -20.783208996366 gnorm: 0.001195958720 xtb: 6.7.1 (41059b4)
C           -2.21961051402393        0.21580510126060       -0.61743630258925
C           -1.29862709761595        0.58413929209076        0.54706677186055
C            0.02799515804416       -0.11586486215325        0.37187882705356
O            0.25936181963175       -1.25579633705019        0.67418500128207
O            0.93058102059359        0.69193420629257       -0.19909609776494
C            2.20845417150217        0.12381464368540       -0.45147593887874
H           -2.35287597153312       -0.86200320259673       -0.66247187381487
H           -3.19169672667175        0.68301570787829       -0.48521989163720
H           -1.79568137111634        0.55516096331614       -1.55923100128809
H           -1.74255384009753        0.25075470064203        1.48541350551572
H           -1.13530658767679        1.66085776742395        0.57414814562008
H            2.11354129119982       -0.73974861131139       -1.11219357638342
H            2.66810436092342       -0.19935694814857        0.48416893783091
H            2.80216088430309        0.90308020232058       -0.92092306614135
14
 energy: -20.783212237898 gnorm: 0.000948746819 xtb: 6.7.1 (41059b4)
C           -2.21937098292281        0.21612413712949       -0.61777716794629
C           -1.29888848184504        0.58382729158037        0.54791595309552
C            0.02772028014199       -0.11770664069240        0.37474024579523
O            0.25736426008363       -1.25856745531574        0.67736852053583
O            0.92941144575146        0.69001471604050       -0.19793039936717
C            2.20765341070786        0.12446288153420       -0.45222979769767
H           -2.35305955729481       -0.86214629980582       -0.66298367037116
H           -3.19205534584244        0.68395846889379       -0.48755568414774
H           -1.79356025809481        0.55534533707024       -1.55940331940354
H           -1.74446104675045        0.25304655719713        1.48640893241871
H           -1.13342809460972        1.66032227840674        0.57411367006689
H            2.11589757070292       -0.73929905568485       -1.11408599295022
H            2.67092556239459       -0.19922417308254        0.48219419637205
H            2.79969783504022        0.90563458037909       -0.92196204573544
14
 energy: -20.783212830603 gnorm: 0.000142675194 xtb: 6.7.1 (41059b4)
C           -2.21896271725022        0.21604822839794       -0.61783580677367
C           -1.29893144218359        0.58374019310301        0.54795529404320
C            0.02764132014495       -0.11786694230592        0.37514456866183
O            0.25716616951246       -1.25821529087827        0.67833488018161
O            0.92949871249812        0.68981342014338       -0.19767769853711
C            2.20778958915655        0.12433328417479       -0.45245427182539
H           -2.35304057873846       -0.86205134559743       -0.66320504058275
H           -3.19144986126584        0.68402194505467       -0.48767369247576
H           -1.79316834440750        0.55520945100695       -1.55936426600974
H           -1.74487321005698        0.25296986455841        1.48628808323168
H           -1.13362070125491        1.66027334803015        0.57416338608496
H            2.11535125134884       -0.73888748173912       -1.11465701844026
H            2.67098190731646       -0.19939358998863        0.48181902160207
H            2.79946450264271        0.90579753969028       -0.92202399849565
14
 energy: -20.783212966439 gnorm: 0.000076510720 xtb: 6.7.1 (41059b4)
C           -2.21855800827259        0.21609659247972       -0.61797098750710
C           -1.29900994932063        0.58367119168440        0.54813991183108
C            0.02757677120750       -0.11807405507486        0.37574929944269
O            0.25727839222844       -1.25812778228684        0.67963549590843
O            0.92922109894116        0.68956913923888       -0.19754962432183
C            2.20754973145227        0.12429076544501       -0.45275864128127
H           -2.35276925019208       -0.86194763341168       -0.66335046078145
H           -3.19100056064873        0.68421844384461       -0.48822447257241
H           -1.79229302237832        0.55512520878585       -1.55928987937241
H           -1.74533094704541        0.25292882648643        1.48628840545302
H           -1.13365147227777        1.66018777800071        0.57435640497000
H            2.11496900508994       -0.73855282065178       -1.11533494679509
H            2.67095251131638       -0.19964644322700        0.48125201792290
H            2.79891229736244        0.90605341233675       -0.92212908223154
14
 energy: -20.783213133457 gnorm: 0.000185655988 xtb: 6.7.1 (41059b4)
C           -2.21798235907445        0.21615593095062       -0.61820633278451
C           -1.29916182217739        0.58352115294755        0.54853070012112
C            0.02754280154055       -0.11817681136545        0.37666523502141
O            0.25771469073785       -1.25777305091270        0.68171363553640
O            0.92871446404746        0.68926891201370       -0.19774728852332
C            2.20715596565494        0.12423503216285       -0.45328674326171
H           -2.35253360315911       -0.86183385004162       -0.66367055857568
H           -3.19035599228823        0.68458002687833       -0.48915451515073
H           -1.79096957539131        0.55502722966400       -1.55922430269322
H           -1.74602246727038        0.25268639369876        1.48638217372718
H           -1.13371401171534        1.66000809875348        0.57494435717164
H            2.11454274365035       -0.73820360232934       -1.11633444034723
H            2.67062830822103       -0.20006477024267        0.48050918845049
H            2.79828745468663        0.90636193147268       -0.92230766802682
14
 energy: -20.783213510530 gnorm: 0.000282340021 xtb: 6.7.1 (41059b4)
C           -2.21674629188080        0.21636560353153       -0.61871688830321
C           -1.29949648884607        0.58311965957585        0.54943023488592
C            0.02756895775660       -0.11819889197425        0.37858626229773
O            0.25906156628955       -1.25670890806748        0.68655563294963
O            0.92748754199234        0.68861629251815       -0.19875615994047
C            2.20617523808621        0.12408684782817       -0.45452870332824
H           -2.35197813497407       -0.86152112699629       -0.66438253200456
H           -3.18899415205906        0.68545804180066       -0.49119174794986
H           -1.78798302670906        0.55494246822098       -1.55902713493751
H           -1.74749108146591        0.25180165571192        1.48654204983128
H           -1.13415248411135        1.65958963515819        0.57646298184743
H            2.11382325151927       -0.73761162611916       -1.11853592993776
H            2.66946360620764       -0.20102310850385        0.47902336130945
H            2.79710809565729        0.90687608096579       -0.92264798605483
14
 energy: -20.783214437724 gnorm: 0.000373401139 xtb: 6.7.1 (41059b4)
C           -2.21339272791402        0.21690579946060       -0.62012775858838
C           -1.30042627794582        0.58207648406709        0.55192554538260
C            0.02774463203026       -0.11778756183636        0.38368614499466
O            0.26289570261618       -1.25329789874935        0.69985553872784
O            0.92417561381717        0.68698325772413       -0.20211341769570
C            2.20343827081039        0.12360171809635       -0.45795410786663
H           -2.35031201648148       -0.86073161979347       -0.66667888059055
H           -3.18538664591329        0.68757202383080       -0.49654164480885
H           -1.78013497073453        0.55504155975864       -1.55852736973188
H           -1.75120848771948        0.24898219417722        1.48702321234889
H           -1.13578738326445        1.65859408466217        0.58102959373377
H            2.11204694926411       -0.73632004991517       -1.12436220885372
H            2.66586725807398       -0.20370307384166        0.47519633517389
H            2.79432668082358        0.90787570600921       -0.92359754156092
14
 energy: -20.783215659535 gnorm: 0.000454598341 xtb: 6.7.1 (41059b4)
C           -2.20741654453054        0.21798132485418       -0.62262789781283
C           -1.30212255150688        0.58026133582864        0.55637288022833
C            0.02821407329077       -0.11649167964659        0.39261817743465
O            0.26998403700348       -1.24645485428828        0.72381722606363
O            0.91831942155320        0.68413184849771       -0.20870869774965
C            2.19842101505466        0.12254930151001       -0.46412519578297
H           -2.34645595380320       -0.85931340332094       -0.67114795078357
H           -3.17929012934582        0.69070388146001       -0.50578022510493
H           -1.76635790883936        0.55603637442078       -1.55746052364417
H           -1.75769838510195        0.24346524172387        1.48776609073078
H           -1.13947685231347        1.65697293559182        0.58950569291855
H            2.10893460184174       -0.73448719863418       -1.13456347469099
H            2.65902486122789       -0.20863477648620        0.46856016071616
H            2.78976691293207        0.90907229213937       -0.92541282185797
14
 energy: -20.783216415346 gnorm: 0.000653044821 xtb: 6.7.1 (41059b4)
C           -2.20135109973875        0.21910191603298       -0.62518185425122
C           -1.30387424060626        0.57857219940551        0.56082610845800
C            0.02878196810509       -0.11458974349854        0.40144049737949
O            0.27732556533464       -1.23856485307622        0.74817788555131
O            0.91233351276011        0.68114408933579       -0.21604335534258
C            2.19322715736036        0.12123251291752       -0.47033353071661
H           -2.34160751853774       -0.85794925718049       -0.67651341710435
H           -3.17342315125029        0.69293291824344       -0.51450421773715
H           -1.75310652248797        0.55815238696360       -1.55625897166445
H           -1.76387461949693        0.23749287034360        1.48842324453971
H           -1.14376436221526        1.65555386953136        0.59848737357082
H            2.10597225944755       -0.73326139975213       -1.14445012765082
H            2.65173801094531       -0.21362112241171        0.46214462835805
H            2.78546963784275        0.90959623679548       -0.92740082272520
14
 energy: -20.783217212468 gnorm: 0.000143196222 xtb: 6.7.1 (41059b4)
C           -2.20046838729537        0.21941245108825       -0.62557340666319
C           -1.30418500755876        0.57844223009674        0.56139728959091
C            0.02904341207788       -0.11353552981682        0.40249303982280
O            0.27874454658938       -1.23611095106790        0.75205040474452
O            0.91143868405568        0.68057112462107       -0.21796108883235
C            2.19236207514816        0.12066357306004       -0.47126655503029
H           -2.33946770182949       -0.85775937388083       -0.67828139013702
H           -3.17310111417397        0.69201910768205       -0.51499509658332
H           -1.75196126174502        0.56003639624700       -1.55587918162561
H           -1.76443562299776        0.23602589625700        1.48832182815412
H           -1.14529000815153        1.65557574200132        0.60026197302907
H            2.10573180089513       -0.73393992015531       -1.14539386817185
H            2.65014784541204       -0.21437632632768        0.46158225305167
H            2.78528733703623        0.90876820384527       -0.92794276068445
14
 energy: -20.783217905743 gnorm: 0.000168405914 xtb: 6.7.1 (41059b4)
C           -2.19795888045020        0.22025974421428       -0.62679949052781
C           -1.30500005284551        0.57778076052986        0.56305856128046
C            0.02952830877436       -0.11196302731922        0.40594347647319
O            0.28253716906930       -1.23110690777488        0.76431498158829
O            0.90889058643308        0.67893418807932       -0.22277007430502
C            2.19034670304111        0.11941197982257       -0.47407712615133
H           -2.33514391120298       -0.85700419664151       -0.68275578241850
H           -3.17166377838611        0.69083711767383       -0.51710339091531
H           -1.74800226816991        0.56417738823894       -1.55519309263762
H           -1.76667726698354        0.23252224891330        1.48824442962586
H           -1.14837811088324        1.65522631868145        0.60466858699219
H            2.10490825101592       -0.73482286073283       -1.14884884569512
H            2.64633596270330       -0.21618635136081        0.45949366692435
H            2.78412388534702        0.90772622132591       -0.92936245956862
14
 energy: -20.783218353152 gnorm: 0.000288974715 xtb: 6.7.1 (41059b4)
C           -2.19595326768019        0.22113419128257       -0.62793265026398
C           -1.30564085380234        0.57715235973012        0.56437298986418
C            0.02989401642143       -0.11113196660359        0.40911696875531
O            0.28545696046464       -1.22741869029943        0.77475529801751
O            0.90653239431652        0.67703314844621       -0.22673651633876
C            2.18862964015636        0.11838658753159       -0.47635467536519
H           -2.33117180724535       -0.85620823862074       -0.68707448770122
H           -3.17075488889509        0.68955466120926       -0.51840216724330
H           -1.74519289524250        0.56848691406360       -1.55468993826272
H           -1.76874187762638        0.22991738993826        1.48812335481148
H           -1.15008753480115        1.65469423964871        0.60803239344957
H            2.10475135161139       -0.73593380456783       -1.15123312121780
H            2.64362262787691       -0.21686632222465        0.45782456173499
H            2.78250273190835        0.90699215411614       -0.93098856957507
14
 energy: -20.783218630816 gnorm: 0.000155049929 xtb: 6.7.1 (41059b4)
C           -2.19581495549010        0.22164739987964       -0.62825662087232
C           -1.30572649903825        0.57700402156519        0.56438043141215
C            0.02995220324839       -0.11124597186300        0.40961553891095
O            0.28607361194705       -1.22663336154407        0.77728813682421
O            0.90595789298565        0.67607385515767       -0.22797790409715
C            2.18851425870544        0.11789621288315       -0.47665991432134
H           -2.32900786684727       -0.85583073194261       -0.68949806798320
H           -3.17151109934944        0.68795495133294       -0.51733721245525
H           -1.74615254562707        0.57175658089431       -1.55450610677274
H           -1.76910611364297        0.22943949424626        1.48784968998803
H           -1.15008534316638        1.65449169800892        0.60852458682849
H            2.10534368820940       -0.73733430105354       -1.15044160644217
H            2.64353156977150       -0.21577665278957        0.45805634594895
H            2.78187779575664        0.90634942887491       -0.93222385630359
14
 energy: -20.783218761409 gnorm: 0.000161906960 xtb: 6.7.1 (41059b4)
C           -2.19429516626247        0.22243361838536       -0.62915476071518
C           -1.30619699765562        0.57646672109637        0.56539424208634
C            0.03007233175041       -0.11104394135745        0.41205055164295
O            0.28832973925663       -1.22430932750422        0.78480823845027
O            0.90409719929338        0.67458959283537       -0.23056273461368
C            2.18724309869840        0.11714396748183       -0.47827263977866
H           -2.32569338215106       -0.85511743520697       -0.69311865569836
H           -3.17090160921084        0.68681873914571       -0.51821538457947
H           -1.74412148417113        0.57550836938437       -1.55401425584914
H           -1.77093039160928        0.22771396831455        1.48772470602077
H           -1.15091155694399        1.65394161795757        0.61096849548149
H            2.10497577136862       -0.73858413996520       -1.15150630145770
H            2.64202731579235       -0.21549869712548        0.45689993782413
H            2.78015172930721        0.90572957020840       -0.93418799814875
14
 energy: -20.783218812420 gnorm: 0.000039830631 xtb: 6.7.1 (41059b4)
C           -2.19448490954694        0.22237841293697       -0.62905051547518
C           -1.30611739903883        0.57651306262517        0.56525898497357
C            0.02996851021672       -0.11125136264168        0.41166000681914
O            0.28785344598004       -1.22495627786366        0.78313846285906
O            0.90442178524316        0.67484510556951       -0.22978668790590
C            2.18743001143851        0.11728185445892       -0.47791214774965
H           -2.32598456496350       -0.85515176628743       -0.69278936730247
H           -3.17101000325437        0.68685747234604       -0.51798263532054
H           -1.74447922462003        0.57523621498286       -1.55405190524387
H           -1.77074102954619        0.22805240887763        1.48774934129982
H           -1.15054995329323        1.65394989398452        0.61057864154014
H            2.10476966332620       -0.73875846850465       -1.15067937330302
H            2.64270741709212       -0.21487121112699        0.45717394229114
H            2.78006284842894        0.90566728429299       -0.93449330681723
