      -----------------------------------------------------------      
     |                   =====================                   |     
     |                           x T B                           |     
     |                   =====================                   |     
     |                         S. Grimme                         |     
     |          Mulliken Center for Theoretical Chemistry        |     
     |                    University of Bonn                     |     
      -----------------------------------------------------------      

   * xtb version 6.7.1 (41059b4) compiled by 'michael@archlinux' on 2025-03-24

   xtb is free software: you can redistribute it and/or modify it under
   the terms of the GNU Lesser General Public License as published by
   the Free Software Foundation, either version 3 of the License, or
   (at your option) any later version.
   
   xtb is distributed in the hope that it will be useful,
   but WITHOUT ANY WARRANTY; without even the implied warranty of
   MERCHANTABILITY or FITNESS FOR A PARTICULAR PURPOSE.  See the
   GNU Lesser General Public License for more details.
   
   Cite this work as:
   * C. Bannwarth, E. Caldeweyher, S. Ehlert, A. Hansen, P. Pracht,
     J. Seibert, S. Spicher, S. Grimme, WIREs Comput. Mol. Sci., 2020, 11,
     e01493. DOI: 10.1002/wcms.1493
   
   for GFN2-xTB:
   * C. Bannwarth, S. Ehlert and S. Grimme., J. Chem. Theory Comput., 2019,
     15, 1652-1671. DOI: 10.1021/acs.jctc.8b01176
   for GFN1-xTB:
   * S. Grimme, C. Bannwarth, P. Shushkov, J. Chem. Theory Comput., 2017,
     13, 1989-2009. DOI: 10.1021/acs.jctc.7b00118
   for GFN0-xTB:
   * P. Pracht, E. Caldeweyher, S. Ehlert, S. Grimme, ChemRxiv, 2019, preprint.
     DOI: 10.26434/chemrxiv.8326202.v1
   for GFN-FF:
   * S. Spicher and S. Grimme, Angew. Chem. Int. Ed., 2020, 59, 15665-15673.
     DOI: 10.1002/anie.202004239
   
   for ALPB and GBSA implicit solvation:
   * S. Ehlert, M. Stahn, S. Spicher, S. Grimme, J. Chem. Theory Comput.,
     2021, 17, 4250-4261. DOI: 10.1021/acs.jctc.1c00471
   
   for ddCOSMO and CPCM-X implicit solvation:
   * M. Stahn, S. Ehlert, S. Grimme, J. Phys. Chem. A,
     2023, XX, XXXX-XXXX. DOI: 10.1021/acs.jpca.3c04382
   
   for DFT-D4:
   * E. Caldeweyher, C. Bannwarth and S. Grimme, J. Chem. Phys., 2017,
     147, 034112. DOI: 10.1063/1.4993215
   * E. Caldeweyher, S. Ehlert, A. Hansen, H. Neugebauer, S. Spicher,
     C. Bannwarth and S. Grimme, J. Chem. Phys., 2019, 150, 154122.
     DOI: 10.1063/1.5090222
   * E. Caldeweyher, J.-M. Mewes, S. Ehlert and S. Grimme, Phys. Chem. Chem. Phys.
     2020, 22, 8499-8512. DOI: 10.1039/D0CP00502A
   
   for sTDA-xTB:
   * S. Grimme and C. Bannwarth, J. Chem. Phys., 2016, 145, 054103.
     DOI: 10.1063/1.4959605
   
   in the mass-spec context:
   * V. Asgeirsson, C. Bauer and S. Grimme, Chem. Sci., 2017, 8, 4879.
     DOI: 10.1039/c7sc00601b
   * J. Koopman and S. Grimme, ACS Omega 2019, 4, 12, 15120-15133.
     DOI: 10.1021/acsomega.9b02011
   
   for metadynamics refer to:
   * S. Grimme, J. Chem. Theory Comput., 2019, 155, 2847-2862
     DOI: 10.1021/acs.jctc.9b00143
   
   for SPH calculations refer to:
   * S. Spicher and S. Grimme, J. Chem. Theory Comput., 2021, 17, 1701-1714
     DOI: 10.1021/acs.jctc.0c01306
   
   for ONIOM refer to:
   * C. Plett, A. Katbashev, S. Ehlert, S. Grimme, M. Bursch,
     Phys. Chem. Chem. Phys., 2023, 25, 17860-17868. DOI: 10.1039/D3CP02178E
   
   for DIPRO refer to:
   * J. Kohn, N. Gildemeister, S. Grimme, D. Fazzi, A. Hansen,
     J. Chem. Phys., 2023, just accepted.
   
   for PTB refer to:
   * S. Grimme, M. Mueller, A. Hansen, J. Chem. Phys., 2023, 158, 124111.
     DOI: 10.1063/5.0137838
   
   with help from (in alphabetical order)
   P. Atkinson, C. Bannwarth, F. Bohle, G. Brandenburg, E. Caldeweyher
   M. Checinski, S. Dohm, S. Ehlert, S. Ehrlich, I. Gerasimov, C. Hölzer
   A. Katbashev, J. Kohn, J. Koopman, C. Lavigne, S. Lehtola, F. März, M. Müller,
   F. Musil, H. Neugebauer, J. Pisarek, C. Plett, P. Pracht, F. Pultar,
   J. Seibert, P. Shushkov, S. Spicher, M. Stahn, M. Steiner, T. Strunk,
   J. Stückrath, T. Rose, and J. Unsleber
   
 * started run on 2025/04/09 at 02:18:53.679     
   ID    Z sym.   atoms
    1    6 C      1, 2, 4, 6, 8
    2    1 H      3, 5, 7, 9, 15-20
    3    8 O      10-14

           -------------------------------------------------
          |                Calculation Setup                |
           -------------------------------------------------

          program call               : /usr/bin/xtb xtb_opt.coord --opt normal --orca -I xtb_opt-xcontrol-inp
          coordinate file            : xtb_opt.coord
          omp threads                :                    16

           -------------------------------------------------
          |                   Orca driver                   |
           -------------------------------------------------
orca executable           : /home/michael/Documents/CHEM4561/orca_avx2/orca
orca input file           : xtb_opt.inp
orca input line           : 
orca parallel             : true
orca number of threads    : 16
                         * ORCA takes the control...
  ------------------------------------------------------------------------

                                 *****************
                                 * O   R   C   A *
                                 *****************

                                            #,                                       
                                            ###                                      
                                            ####                                     
                                            #####                                    
                                            ######                                   
                                           ########,                                 
                                     ,,################,,,,,                         
                               ,,#################################,,                 
                          ,,##########################################,,             
                       ,#########################################, ''#####,          
                    ,#############################################,,   '####,        
                  ,##################################################,,,,####,       
                ,###########''''           ''''###############################       
              ,#####''   ,,,,##########,,,,          '''####'''          '####       
            ,##' ,,,,###########################,,,                        '##       
           ' ,,###''''                  '''############,,,                           
         ,,##''                                '''############,,,,        ,,,,,,###''
      ,#''                                            '''#######################'''  
     '                                                          ''''####''''         
             ,#######,   #######,   ,#######,      ##                                
            ,#'     '#,  ##    ##  ,#'     '#,    #''#        ,####,   ,####,        
            ##       ##  ##   ,#'  ##            #'  '#       #'       #'  '#        
            ##       ##  #######   ##           ,######,      #####,   #    #        
            '#,     ,#'  ##    ##  '#,     ,#' ,#      #,     #,   #   #,  ,#        
             '#######'   ##     ##  '#######'  #'      '#     '####' # '####'        



                #########################################################
                #                        -***-                          #
                #          Department of theory and spectroscopy        #
                #                                                       #
                #                      Frank Neese                      #
                #                                                       #
                #     Directorship, Architecture, Infrastructure        #
                #                    SHARK, DRIVERS                     #
                #        Core code/Algorithms in most modules           #
                #                                                       #
                #        Max Planck Institute fuer Kohlenforschung      #
                #                Kaiser Wilhelm Platz 1                 #
                #                 D-45470 Muelheim/Ruhr                 #
                #                      Germany                          #
                #                                                       #
                #                  All rights reserved                  #
                #                        -***-                          #
                #########################################################


                         Program Version 6.0.1  -  RELEASE   -


 With contributions from (in alphabetic order):
[Max-Planck-Institut fuer Kohlenforschung]                               
  Daniel Aravena         : Magnetic Suceptibility                        
  Michael Atanasov       : Ab Initio Ligand Field Theory (pilot matlab implementation)
  Alexander A. Auer      : GIAO ZORA, VPT2 properties, NMR spectrum      
  Ute Becker             : All parallelization in ORCA, NUMFREQ, NUMCALC 
  Giovanni Bistoni       : ED, misc. LED, open-shell LED, HFLD           
  Martin Brehm           : Molecular dynamics                            
  Dmytro Bykov           : pre 5.0 version of the SCF Hessian            
  Marcos Casanova-Páez   : Triplet and SCS-CIS(D). UHF-(DLPNO)-IP/EA/STEOM-CCSD. UHF-CVS-IP/STEOM-CCSD   
  Vijay G. Chilkuri      : MRCI spin determinant printing, contributions to CSF-ICE 
  Pauline Colinet        : FMM embedding                                 
  Dipayan Datta          : RHF DLPNO-CCSD density                        
  Achintya Kumar Dutta   : EOM-CC, STEOM-CC                              
  Nicolas Foglia         : Exact transition moments, OPA infrastructure, MCD improvements    
  Dmitry Ganyushin       : Spin-Orbit,Spin-Spin,Magnetic field MRCI      
  Miquel Garcia-Rates    : C-PCM and meta-GGA Hessian, CCSD/C-PCM, Gaussian charge scheme 
  Tiago L. C. Gouveia    : GS-ROHF, GS-ROCIS                             
  Yang Guo               : DLPNO-NEVPT2, F12-NEVPT2, CIM, IAO-localization        
  Andreas Hansen         : Spin unrestricted coupled pair/coupled cluster methods 
  Ingolf Harden          : AUTO-CI MPn and infrastructure                
  Benjamin Helmich-Paris : MC-RPA, TRAH-(SCF,CASSCF), AVAS, COSX integrals, SCF dyn. polar. 
  Lee Huntington         : MR-EOM, pCC                                   
  Robert Izsak           : Overlap fitted RIJCOSX, COSX-SCS-MP3, EOM     
  Riya Kayal             : Wick's Theorem for AUTO-CI, AUTO-CI UHF-CCSDT 
  Emily Kempfer          : AUTO-CI, RHF CISDT and CCSDT                  
  Christian Kollmar      : KDIIS, OOCD, Brueckner-CCSD(T), CCSD density, CASPT2, CASPT2-K, improved NEVPT2 
  Axel Koslowski         : Symmetry handling                             
  Simone Kossmann        : meta-GGA functionals, TD-DFT gradient, OOMP2, (MP2 Hessian; deprecated post 5.0) 
  Lucas Lang             : DCDCAS                                        
  Marvin Lechner         : AUTO-CI (C++ implementation), FIC-MRCC        
  Spencer Leger          : CASSCF response                               
  Dagmar Lenk            : GEPOL surface, SMD, ORCA-2-JSON               
  Dimitrios Liakos       : Extrapolation schemes; Compound Job, initial MDCI parallelization 
  Dimitrios Manganas     : Further ROCIS development; embedding schemes. LFT, Crystal Embedding 
  Dimitrios Pantazis     : SARC Basis sets                               
  Anastasios Papadopoulos: AUTO-CI, single reference methods and gradients 
  Taras Petrenko         : pre 6.0 DFT Hessian and TD-DFT gradient, (ASA, deprecated), ECA, 1-Electron XAS/XES, NRVS 
  Peter Pinski           : DLPNO-MP2, DLPNO-MP2 Gradient                 
  Christoph Reimann      : Effective Core Potentials                     
  Marius Retegan         : Local ZFS, SOC                                
  Christoph Riplinger    : Optimizer, TS searches, QM/MM, DLPNO-CCSD(T), (RO)-DLPNO pert. Triples 
  Michael Roemelt        : Original ROCIS implementation                 
  Masaaki Saitow         : Open-shell DLPNO-CCSD energy and density      
  Barbara Sandhoefer     : DKH picture change effects                    
  Kantharuban Sivalingam : CASSCF convergence/infrastructure, NEVPT2 and variants, FIC-MRCI 
  Bernardo de Souza      : ESD, SOC TD-DFT                               
  Georgi L. Stoychev     : AutoAux, RI-MP2 NMR, DLPNO-MP2 response, X2C  
  Van Anh Tran           : RI-MP2 g-tensors                              
  Willem Van den Heuvel  : Paramagnetic NMR                              
  Zikuan Wang            : NOTCH, Electric field optimization            
  Frank Wennmohs         : Technical directorship and infrastructure     
  Hang Xu                : AUTO-CI-Response properties                   
                                                                         
[FACCTs GmbH]                                                            
  Markus Bursch, Miquel Garcia-Rates, Christoph Riplinger, Bernardo de Souza, Georgi L. Stoychev 
                                                                 
  APM, Basis sets (HGBS, AHGBS, def-TZVP (Ac-Lr), def2-XVPD (La-Lu)), CI-OPT, improved COSX, DLPNO-Multilevel,           
  DOCKER, DRACO, updates on ESD, GOAT, IRC, LR-CPCM, MBIS, meta-GGA TD-DFT gradient, ML-optimized integration grids, 
  MM, NACMEs, nearIR, NEB, NEB-TS, NL-DFT gradient (VV10), 2- and 3-layer-ONIOM, interface openCOSMO-RS, QMMM,   
  Crystal-QMMM, SF, symmetry and pop. for TD-DFT, r2SCAN hybrids, SOLVATOR                                   
                                                                         
[Other institutions]                                                     
  V. Asgeirsson          : NEB                                           
  Christoph Bannwarth    : sTDA-DFT, sTD-DFT, PBEh-3c, B97-3c, D3        
  Sebastian Ehlert       : rSCAN, r2SCAN, r2SCAN-3c, D4, dhf basis sets  
  Marvin Friede          : D4 for Fr, Ra, Ac-Lr                          
  Lars Goerigk           : TD-DFT with DH, B97 family of functionals     
  Stefan Grimme          : VdW corrections, initial TS optimization, DFT functionals, gCP, sTDA/sTD-DF 
  Waldemar Hujo          : DFT-NL                                        
  H. Jonsson             : NEB                                           
  Holger Kruse           : gCP                                           
  Marcel Mueller         : wB97X-3c, vDZP basis set                      
  Hagen Neugebauer       : wr2SCAN                                       
  Tobias Risthaus        : range-separated hybrid DFT                    
  Lukas Wittmann         : regularized MP2, r2SCAN double-hybrids, wr2SCAN        
                                                                         
We gratefully acknowledge several colleagues who have allowed us to      
interface, adapt or use parts of their codes:                            
  Ed Valeev, F. Pavosevic, A. Kumar             : LibInt (2-el integral package), F12 methods 
  Garnet Chan, S. Sharma, J. Yang, R. Olivares  : DMRG                   
  Ulf Ekstrom                                   : XCFun DFT Library      
  Mihaly Kallay                                 : mrcc  (arbitrary order and MRCC methods)
  Frank Weinhold                                : gennbo (NPA and NBO analysis)           
  Simon Mueller                                 : openCOSMO-RS                            
  Christopher J. Cramer and Donald G. Truhlar   : smd solvation model                     
  S Lehtola, MJT Oliveira, MAL Marques          : LibXC Library                           
  Liviu Ungur et al                             : ANISO software                          


 Your calculation uses the libint2 library for the computation of 2-el integrals
 For citations please refer to: http://libint.valeyev.net

 Your ORCA version has been built with support for libXC version: 6.2.2
 For citations please refer to: https://libxc.gitlab.io

 This ORCA versions uses:
   CBLAS   interface :  Fast vector & matrix operations
   LAPACKE interface :  Fast linear algebra routines
   SCALAPACK package :  Parallel linear algebra routines
   Shared memory     :  Shared parallel matrices
   BLAS/LAPACK       :  OpenBLAS 0.3.27  USE64BITINT DYNAMIC_ARCH NO_AFFINITY Zen SINGLE_THREADED
        Core in use  :  Zen
   Copyright (c) 2011-2014, The OpenBLAS Project




***************************************
The coordinates will be read from file: xtb_opt.xyz
***************************************


Your calculation utilizes the geometrical counterpoise correction gCP
Please cite in your paper:
H.Kruse, S. Grimme J.Chem.Phys., 136, (2012), 154101 
   

Your calculation utilizes the atom-pairwise dispersion correction
based on EEQ partial charges (D4)


================================================================================

----- Orbital basis set information -----
Your calculation utilizes the basis: def2-mTZVPP
   Stefan Grimme, Andreas Hansen, Sebastian Ehlert, and Jan-Michael Mewes 
   J. Chem. Phys. 154, 064103 (2021). DOI: 10.1063/5.0040021

----- AuxJ basis set information -----
Your calculation utilizes the auxiliary basis: def2/J
   F. Weigend, Phys. Chem. Chem. Phys. 8, 1057 (2006).

================================================================================
                                        WARNINGS
                       Please study these warnings very carefully!
================================================================================

WARNING: Old DensityContainer found on disk!
         Will remove this file - 
         If you want to keep old densities, please start your calculation with a different basename. 



WARNING: SCAN, rSCAN, or r2SCAN functional requested.
  ===> : libXC variant has now been activated.



================================================================================
                                       INPUT FILE
================================================================================
NAME = xtb_opt.inp
|  1> ! r2scan-3c def2/J RI DEFGRID2 scfconv7 ENGRAD tightSCF miniprint
|  2> * xyzfile 0 1 xtb_opt.xyz
|  3> 
|  4>                          ****END OF INPUT****
================================================================================

                     *******************************
                     * Energy+Gradient Calculation *
                     *******************************

---------------------------------
CARTESIAN COORDINATES (ANGSTROEM)
---------------------------------
  C      0.841862    1.379669   -0.645241
  C      1.591643    0.183325   -0.046959
  H      2.585337    0.105962   -0.522040
  C      0.789038   -1.104774   -0.331663
  H      1.228458   -1.924835    0.256759
  C     -0.668072   -0.922259    0.123297
  H     -1.265019   -1.763040   -0.243897
  C     -1.266562    0.384204   -0.450948
  H     -1.339606    0.318146   -1.546735
  O     -0.442697    1.487922   -0.096254
  O     -2.525867    0.599380    0.050255
  O     -0.786822   -0.914807    1.521040
  O      0.779515   -1.405719   -1.703769
  O      1.731293    0.299185    1.352807
  H      0.790578    1.257514   -1.736886
  H      1.352779    2.317458   -0.408601
  H     -2.493228    0.406717    1.001230
  H     -0.074909   -0.353576    1.869602
  H      1.664473   -1.670368   -1.979244
  H      1.959733    1.210331    1.571962

----------------------------
CARTESIAN COORDINATES (A.U.)
----------------------------
  NO LB      ZA    FRAG     MASS         X           Y           Z
   0 C     6.0000    0    12.011    1.590889    2.607197   -1.219328
   1 C     6.0000    0    12.011    3.007769    0.346434   -0.088740
   2 H     1.0000    0     1.008    4.885580    0.200240   -0.986513
   3 C     6.0000    0    12.011    1.491066   -2.087721   -0.626751
   4 H     1.0000    0     1.008    2.321449   -3.637411    0.485204
   5 C     6.0000    0    12.011   -1.262473   -1.742817    0.232998
   6 H     1.0000    0     1.008   -2.390540   -3.331663   -0.460898
   7 C     6.0000    0    12.011   -2.393456    0.726041   -0.852167
   8 H     1.0000    0     1.008   -2.531489    0.601208   -2.922906
   9 O     8.0000    0    15.999   -0.836576    2.811764   -0.181894
  10 O     8.0000    0    15.999   -4.773197    1.132664    0.094968
  11 O     8.0000    0    15.999   -1.486878   -1.728734    2.874350
  12 O     8.0000    0    15.999    1.473070   -2.656423   -3.219657
  13 O     8.0000    0    15.999    3.271670    0.565378    2.556435
  14 H     1.0000    0     1.008    1.493976    2.376357   -3.282239
  15 H     1.0000    0     1.008    2.556382    4.379361   -0.772144
  16 H     1.0000    0     1.008   -4.711518    0.768583    1.892051
  17 H     1.0000    0     1.008   -0.141557   -0.668162    3.533035
  18 H     1.0000    0     1.008    3.145398   -3.156539   -3.740228
  19 H     1.0000    0     1.008    3.703358    2.287195    2.970578

------------------------------------------------------------------------------
                   ___                                                        
                  /   \      - P O W E R E D   B Y -                         
                 /     \                                                     
                 |  |  |   _    _      __       _____    __    __             
                 |  |  |  | |  | |    /  \     |  _  \  |  |  /  |          
                  \  \/   | |  | |   /    \    | | | |  |  | /  /          
                 / \  \   | |__| |  /  /\  \   | |_| |  |  |/  /          
                |  |  |   |  __  | /  /__\  \  |    /   |      \           
                |  |  |   | |  | | |   __   |  |    \   |  |\   \          
                \     /   | |  | | |  |  |  |  | |\  \  |  | \   \       
                 \___/    |_|  |_| |__|  |__|  |_| \__\ |__|  \__/        
                                                                              
                      - O R C A' S   B I G   F R I E N D -                    
                                      &                                       
                       - I N T E G R A L  F E E D E R -                       
                                                                              
 v1 FN, 2020, v2 2021, v3 2022-2024                                           
------------------------------------------------------------------------------


----------------------
SHARK INTEGRAL PACKAGE
----------------------

Number of atoms                             ...     20
Number of basis functions                   ...    265
Number of shells                            ...    125
Maximum angular momentum                    ...      2
Integral batch strategy                     ... SHARK/LIBINT Hybrid
RI-J (if used) integral strategy            ... SPLIT-RIJ (Revised 2003 algorithm where possible)
Printlevel                                  ...      1
Contraction scheme used                     ... SEGMENTED contraction
Prescreening option                         ... SCHWARTZ
   Thresh                                   ... 3.000e-11
   Tcut                                     ... 1.000e-12
   Tpresel                                  ... 1.000e-12 
Coulomb Range Separation                    ... NOT USED
Exchange Range Separation                   ... NOT USED
Multipole approximations                    ... NOT USED
Finite Nucleus Model                        ... NOT USED
CABS basis                                  ... NOT available
Auxiliary Coulomb fitting basis             ... AVAILABLE
   # of basis functions in Aux-J            ...    600
   # of shells in Aux-J                     ...    200
   Maximum angular momentum in Aux-J        ...      4
Auxiliary J/K fitting basis                 ... NOT available
Auxiliary Correlation fitting basis         ... NOT available
Auxiliary 'external' fitting basis          ... NOT available

Checking pre-screening integrals            ... done (  0.0 sec) Dimension = 125
Check shell pair data                       ... done (  0.0 sec)
Shell pair information
Shell pair cut-off parameter TPreSel        ...   1.0e-12
Total number of shell pairs                 ...      7875
Shell pairs after pre-screening             ...      7246
Total number of primitive shell pairs       ...     27980
Primitive shell pairs kept                  ...     18212
          la=0 lb=0:   2200 shell pairs
          la=1 lb=0:   2578 shell pairs
          la=1 lb=1:    778 shell pairs
          la=2 lb=0:    989 shell pairs
          la=2 lb=1:    583 shell pairs
          la=2 lb=2:    118 shell pairs

Calculating one electron integrals          ... done (  0.1 sec)
Calculating RI/J V-Matrix + Cholesky decomp.... done (  0.0 sec)
Calculating Nuclear repulsion               ... done (  0.0 sec) ENN=    637.107094209365 Eh

Diagonalization of the overlap matrix:
Smallest eigenvalue                        ... 5.516e-05
Time for diagonalization                   ...    0.007 sec
Threshold for overlap eigenvalues          ... 1.000e-07
Number of eigenvalues below threshold      ... 0
Time for construction of square roots      ...    0.003 sec
Total time needed                          ...    0.012 sec

-------------------
DFT GRID GENERATION
-------------------

General Integration Accuracy     IntAcc      ... 4.388
Radial Grid Type                 RadialGrid  ... OptM3 with GC (2021)
Angular Grid (max. ang.)         AngularGrid ... 4 (Lebedev-302)
Angular grid pruning method      GridPruning ... 4 (adaptive)
Weight generation scheme         WeightScheme... mBecke (2022)
Basis function cutoff            BFCut       ... 1.0000e-11
Integration weight cutoff        WCut        ... 1.0000e-14
Partially contracted basis set               ... off
Rotationally invariant grid construction     ... off
Angular grids for H and He will be reduced by one unit
Diffuse basis detected: some atoms will have their outermost
                        angular grid increased by 1.

Total number of grid points                  ...    93364
Total number of batches                      ...     1469
Average number of points per batch           ...       63
Average number of grid points per atom       ...     4668
Initializing property integral containers    ... done (  0.0 sec)

SHARK setup successfully completed in   1.1 seconds

Maximum memory used throughout the entire STARTUP-calculation: 46.4 MB
Occupation numbers will be reassigned to an Aufbau configuration
             **** ENERGY FILE WAS UPDATED (xtb_opt.en.tmp) ****
Finished Guess after   0.1 sec
Maximum memory used throughout the entire GUESS-calculation: 21.2 MB
----------------------------------------D-I-I-S--------------------------------------------
Iteration    Energy (Eh)           Delta-E    RMSDP     MaxDP     DIISErr   Damp  Time(sec)
-------------------------------------------------------------------------------------------
               ***  Starting incremental Fock matrix formation  ***
                              *** Initializing SOSCF ***
---------------------------------------S-O-S-C-F--------------------------------------
Iteration    Energy (Eh)           Delta-E    RMSDP     MaxDP     MaxGrad    Time(sec)
--------------------------------------------------------------------------------------
    1    -572.5732226510735927     0.00e+00  5.97e-06  1.99e-04  7.51e-06     4.9
               *** Restarting incremental Fock matrix formation ***
    2    -572.5732226609743520    -9.90e-09  8.01e-06  3.47e-04  2.71e-05     4.9
    3    -572.5732224936703005     1.67e-07  6.05e-06  2.96e-04  4.55e-05     3.2
    4    -572.5732227475837135    -2.54e-07  1.48e-06  7.92e-05  5.35e-06     3.7
                  *** Gradient check signals convergence ***

               *****************************************************
               *                     SUCCESS                       *
               *           SCF CONVERGED AFTER   4 CYCLES          *
               *****************************************************

             **** ENERGY FILE WAS UPDATED (xtb_opt.en.tmp) ****

----------------
TOTAL SCF ENERGY
----------------

Total Energy       :       -572.57322274758371 Eh          -15580.50949 eV

Components:
Nuclear Repulsion  :        637.10709420936541 Eh           17336.56541 eV
Electronic Energy  :      -1209.68031695694913 Eh          -32917.07490 eV
One Electron Energy:      -2049.26217059133569 Eh          -55763.25861 eV
Two Electron Energy:        839.58185363438656 Eh           22846.18371 eV

Virial components:
Potential Energy   :      -1142.96530532456381 Eh          -31101.66714 eV
Kinetic Energy     :        570.39208257697999 Eh           15521.15765 eV
Virial Ratio       :          2.00382393135744

DFT components:
N(Alpha)           :       39.999963707190 electrons
N(Beta)            :       39.999963707190 electrons
N(Total)           :       79.999927414380 electrons
E(X)               :      -71.074263548314 Eh       
E(C)               :       -2.663747129844 Eh       
E(XC)              :      -73.738010678158 Eh       

---------------
SCF CONVERGENCE
---------------

  Last Energy change         ...    2.5391e-07  Tolerance :   1.0000e-07
  Last MAX-Density change    ...    7.9162e-05  Tolerance :   1.0000e-07
  Last RMS-Density change    ...    1.4808e-06  Tolerance :   5.0000e-09
  Last DIIS Error            ...    1.5652e-04  Tolerance :   1.0000e-07
  Last Orbital Gradient      ...    5.3510e-06  Tolerance :   1.0000e-04
  Last Orbital Rotation      ...    7.7698e-06  Tolerance :   1.0000e-04


----------------
ORBITAL ENERGIES
----------------

  NO   OCC          E(Eh)            E(eV) 
   0   2.0000     -18.983011      -516.5540 
   1   2.0000     -18.975053      -516.3374 
   2   2.0000     -18.960652      -515.9456 
   3   2.0000     -18.953273      -515.7448 
   4   2.0000     -18.952013      -515.7105 
   5   2.0000     -10.125619      -275.5321 
   6   2.0000     -10.103945      -274.9423 
   7   2.0000     -10.100820      -274.8573 
   8   2.0000     -10.091700      -274.6091 
   9   2.0000     -10.086019      -274.4545 
  10   2.0000      -1.047210       -28.4960 
  11   2.0000      -1.021932       -27.8082 
  12   2.0000      -1.012846       -27.5609 
  13   2.0000      -0.992079       -26.9959 
  14   2.0000      -0.974183       -26.5089 
  15   2.0000      -0.750158       -20.4128 
  16   2.0000      -0.716383       -19.4938 
  17   2.0000      -0.632930       -17.2229 
  18   2.0000      -0.617778       -16.8106 
  19   2.0000      -0.563405       -15.3310 
  20   2.0000      -0.520375       -14.1601 
  21   2.0000      -0.510997       -13.9049 
  22   2.0000      -0.490888       -13.3578 
  23   2.0000      -0.467654       -12.7255 
  24   2.0000      -0.456632       -12.4256 
  25   2.0000      -0.446683       -12.1549 
  26   2.0000      -0.440842       -11.9959 
  27   2.0000      -0.413272       -11.2457 
  28   2.0000      -0.391962       -10.6658 
  29   2.0000      -0.376571       -10.2470 
  30   2.0000      -0.350940        -9.5496 
  31   2.0000      -0.345789        -9.4094 
  32   2.0000      -0.324064        -8.8182 
  33   2.0000      -0.311570        -8.4782 
  34   2.0000      -0.293451        -7.9852 
  35   2.0000      -0.281859        -7.6698 
  36   2.0000      -0.269575        -7.3355 
  37   2.0000      -0.257231        -6.9996 
  38   2.0000      -0.248374        -6.7586 
  39   2.0000      -0.218778        -5.9532 
  40   0.0000       0.025367         0.6903 
  41   0.0000       0.042664         1.1609 
  42   0.0000       0.074409         2.0248 
  43   0.0000       0.086421         2.3516 
  44   0.0000       0.100814         2.7433 
  45   0.0000       0.104053         2.8314 
  46   0.0000       0.121922         3.3177 
  47   0.0000       0.124994         3.4013 
  48   0.0000       0.134075         3.6484 
  49   0.0000       0.144252         3.9253 
  50   0.0000       0.152752         4.1566 
*Only the first 10 virtual orbitals were printed.
Total SCF time: 0 days 0 hours 0 min 16 sec 
Finished LeanSCF after  17.0 sec

Maximum memory used throughout the entire LEANSCF-calculation: 32.1 MB


-------------------------------------------------------------------------------
                          DFT DISPERSION CORRECTION                            
                                                                               
                                DFTD4 V3.4.0                                   
-------------------------------------------------------------------------------
-------------------------   ----------------
Dispersion correction           -0.006493400
-------------------------   ----------------

------------------   -----------------
gCP correction             0.017307511
------------------   -----------------

-------------------------   --------------------
FINAL SINGLE POINT ENERGY      -572.562408636574
-------------------------   --------------------

------------------------------------------------------------------------------
                         ORCA SCF GRADIENT CALCULATION
------------------------------------------------------------------------------

Nuc. rep. gradient        (SHARK) ... done (  0.0 sec)
HCore & Overlap gradient  (SHARK) ... done (  0.6 sec)
Split-RIJ-J gradient      (SHARK) ... done (  3.4 sec)
XC gradient                       ... done ( 15.6 sec)
Dispersion correction             ... done (  0.0 sec)

-------------------
DISPERSION GRADIENT
-------------------

   1   C   :    0.000016146    0.000051618   -0.000030335
   2   C   :    0.000062648    0.000009020   -0.000003837
   3   H   :    0.000043237    0.000003491   -0.000001715
   4   C   :    0.000028820   -0.000042545   -0.000007789
   5   H   :    0.000019045   -0.000038545    0.000002718
   6   C   :   -0.000039709   -0.000031508    0.000003961
   7   H   :   -0.000029075   -0.000034172    0.000003616
   8   C   :   -0.000031146    0.000024579   -0.000016268
   9   H   :   -0.000039870    0.000012982   -0.000016951
  10   O   :   -0.000031711    0.000066728   -0.000010845
  11   O   :   -0.000113362    0.000017724    0.000021619
  12   O   :   -0.000030914   -0.000035151    0.000083667
  13   O   :    0.000051216   -0.000079324   -0.000081903
  14   O   :    0.000086080    0.000033636    0.000072850
  15   H   :    0.000012574    0.000032639   -0.000029493
  16   H   :    0.000021555    0.000048358   -0.000005959
  17   H   :   -0.000044364    0.000010767   -0.000006847
  18   H   :   -0.000022843   -0.000024904    0.000027844
  19   H   :    0.000010137   -0.000030878   -0.000032529
  20   H   :    0.000031535    0.000005484    0.000028195

Difference to translation invariance:
           :    0.0000000000    0.0000000000    0.0000000000

Difference to rotation invariance:
           :    0.0000000000   -0.0000000000    0.0000000000

Norm of the Dispersion gradient    ...    0.0003059230
RMS gradient                       ...    0.0000394945
MAX gradient                       ...    0.0001133615
gCP correction                   ... done

------------------
CARTESIAN GRADIENT
------------------

   1   C   :   -0.007761750    0.004863460    0.000072416
   2   C   :    0.001935103   -0.002996515    0.017209477
   3   H   :   -0.000218963    0.000687368    0.001619223
   4   C   :   -0.003805335   -0.000961064   -0.017309950
   5   H   :    0.000256513    0.000666846   -0.001091660
   6   C   :   -0.000490702   -0.003895448    0.012724852
   7   H   :    0.000049426    0.000741002    0.001673152
   8   C   :   -0.002056590    0.012857833    0.002737786
   9   H   :    0.000586264   -0.000708961    0.001197794
  10   O   :    0.006476982   -0.008081905   -0.006876191
  11   O   :    0.009558349   -0.003453847   -0.002618730
  12   O   :    0.000652808    0.000788357   -0.013260984
  13   O   :    0.001581304    0.000231615    0.012360129
  14   O   :   -0.001535154    0.000699373   -0.013547059
  15   H   :   -0.002223919   -0.000943390    0.002358768
  16   H   :   -0.002797676   -0.001546906    0.001479269
  17   H   :   -0.001510692    0.001050781    0.001431157
  18   H   :    0.000438535    0.000028463    0.000584014
  19   H   :    0.000461211   -0.000330151   -0.000869477
  20   H   :    0.000404287    0.000303090    0.000126015

Difference to translation invariance:
           :   -0.0000000000   -0.0000000000    0.0000000000

Difference to rotation invariance:
           :    0.0000833773    0.0002751765    0.0005632930

Norm of the Cartesian gradient     ...    0.0434409472
RMS gradient                       ...    0.0056082022
MAX gradient                       ...    0.0173099499

-------
TIMINGS
-------

Total SCF gradient time     ....       19.593 sec

Densities                   ....       0.001 sec  (  0.0%)
One electron gradient       ....       0.595 sec  (  3.0%)
RI-J Coulomb gradient       ....       3.365 sec  ( 17.2%)
XC gradient                 ....      15.598 sec  ( 79.6%)

Maximum memory used throughout the entire SCFGRAD-calculation: 41.4 MB

------------------------------------------------------------------------------
                              ORCA PROPERTY CALCULATIONS
------------------------------------------------------------------------------

GBWName                                 ... xtb_opt.gbw
Number of atoms                         ...     20
Number of basis functions               ...    265
Max core memory                         ...   1024 MB

Electric properties:
Dipole moment                           ... YES
Quadrupole moment                       ...  NO
Static polarizability (Dipole/Dipole)   ...  NO
Static polarizability (Dipole/Quad.)    ...  NO
Static polarizability (Quad./Quad.)     ...  NO
Static polarizability (Velocity)        ...  NO

Atomic electric properties:
Dipole moment                           ...  NO
Quadrupole moment                       ...  NO
Static polarizability                   ...  NO

Choice of electric origin               ... Center of mass
Position of electric origin             ...     0.000012    -0.000000    -0.000008

General magnetic properties:
Magnetizability                         ...  NO

EPR properties:
g-Tensor (aka g-matrix)                 ...  NO
Zero-Field splitting spin-orbit         ...  NO
Zero-field splitting spin-spin          ...  NO
Hyperfine couplings                     ...  NO (   0 nuclei)
Quadrupole couplings                    ...  NO (   0 nuclei)
Contact density                         ...  NO (   0 nuclei)

NMR properties:
Chemical shifts                         ...  NO (   0 nuclei)
Spin-rotation constants                 ...  NO (   0 nuclei)
Spin-spin couplings                     ...  NO (   0 nuclei,    0 pairs)

Choice of magnetic origin               ... GIAO
Position of magnetic origin             ...     0.000000     0.000000     0.000000

Properties with geometric perturbations:
SCF Hessian                             ...  NO
IR spectrum                             ...  NO
VCD spectrum                            ...  NO
X-ray spectroscopy properties:
SCF XES/XAS/RIXS spectra                ...  NO


-------------
DIPOLE MOMENT
-------------

Method             : SCF
Type of density    : Electron Density
Multiplicity       :   1
Irrep              :   0
Energy             :  -572.5732227475837135 Eh
Relativity type    : 
Basis              : AO
                                X                 Y                 Z
Electronic contribution:     -2.391536029       0.195329305       1.356980182
Nuclear contribution   :      4.117574271      -0.088797641      -1.613746156
                        -----------------------------------------
Total Dipole Moment    :      1.726038242       0.106531665      -0.256765974
                        -----------------------------------------
Magnitude (a.u.)       :      1.748280805
Magnitude (Debye)      :      4.443776654



--------------------
Rotational spectrum 
--------------------
 
Rotational constants in cm-1:             0.058213             0.041221             0.038907 
Rotational constants in MHz :          1745.192698          1235.759584          1166.410496 

Dipole components along the rotational axes: 
x,y,z [a.u.] :    -1.693716     0.346885    -0.259775 
x,y,z [Debye]:    -4.305084     0.881712    -0.660294 

 

Dipole moment calculation done in   0.0 sec 

Maximum memory used throughout the entire PROP-calculation: 20.2 MB

--------------------------------
SUGGESTED CITATIONS FOR THIS RUN
--------------------------------

Below you find a list of papers that are relevant to this ORCA run
We neither can nor want to force you to cite these papers, but we appreciate if you do
You receive ORCA, which is the product of decades of hard work by many enthusiastic individuals, for free
The only thing we kindly ask in return is that you cite our papers,
We deeply appreciate it, if you show your appreciation for ORCA by not just citing the generic ORCA reference.

Please note that relegating all ORCA citations to the supporting information does *not* help us.
SI sections are not indexed - citations you put there will not count into any citation statistics
But we need these citations in order to attract the funding resources that allow us to do what we are doing

Therefore, if you are a happy ORCA user, please consider citing a few of the papers listed below in the main body of your paper

In addition to the list printed below, the program has created the file xtb_opt.bibtex that contains the list in bibtex format
You can import this file easily into all common literature databanks and citation aid programs


List of essential papers. We consider these as the minimum necessary citations

  1. Neese,F.
     Software update: the ORCA program system, version 5.0
     WIRES Comput. Molec. Sci., 2022 12(1)e1606
     doi.org/10.1002/wcms.1606
  2. Grimme,S.; Hansen,A.; Ehlert,S.; Mewes,J.
     r2SCAN-3c: A 'Swiss army knife' composite electronic-structure method
     J. Chem. Phys., 2021 154 064103
     doi.org/10.1063/5.0040021

List of papers to cite with high priority. The work reported in these papers was absolutely
necessary for this run to complete.
Our perspective: the developers of density functionals and basis sets usually get cited in chemistry papers
Good! But without the algorithms to do something with them, the functionals or basis sets would not do anything.
Hence, in our opinion, the algorithm design and method developments papers are equally worthy of getting cited

  1. Neese,F.
     An improvement of the resolution of the identity approximation for the formation of the Coulomb matrix
     J. Comp. Chem., 2003 24(14)1740-1747
     doi.org/10.1002/jcc.10318
  2. Neese,F.
     The SHARK Integral Generation and Digestion System
     J. Comp. Chem., 2022  1-16
     doi.org/10.1002/jcc.26942
  3. Lehtola,S.; Steigemann,C.; Oliveira,M.; Marques,M.
     Recent developments in Libxc - A comprehensive library of functionals for density functional theory
     Software X, 2018 7 
     doi.org/10.1016/j.softx.2017.11.002
  4. Caldeweyher,E.; Bannwarth,C.; Grimme,S.
     Extension of the D3 dispersion coefficient model
     J. Chem. Phys., 2017 147 034112
     doi.org/10.1063/1.4993215
  5. Caldeweyher,E.; Ehlert,S.; Hansen,A.; Neugebauer,H.; Spicher,S.; Bannwarth,C.; Grimme,S.
     A generally applicable atomic-charge dependent London dispersion correction
     J. Chem. Phys., 2019 150 154122
     doi.org/10.1063/1.5090222
  6. Caldeweyher,E.; Mewes,J.; Ehlert,S.; Grimme,S.
     Extension and evaluation of the D4 London-dispersion model for periodic systems
     Phys. Chem. Chem. Phys., 2020 22(16)8499-8512
     doi.org/10.1039/D0CP00502A
  7. Wittmann,L.; Gordiy,I.; Friede,M.; Helmich-Paris,B.; Grimme,S.; Hansen,A.; Bursch,M.
     Extension of the D3 and D4 London Dispersion Corrections to the full Actinides Series
     Phys. Chem. Chem. Phys., 2024 26(32)21379-21394
     doi.org/https://doi.org/10.1039/D4CP01514B 

List of suggested additional citations. These are papers that are important in the 'surrounding' of 
of this run, or papers that preceded the highly important papers. If you like your results we are grateful for a citation.

  1. Neese,F.
     The ORCA program system
     WIRES Comput. Molec. Sci., 2012 2(1)73-78
     doi.org/10.1002/wcms.81
  2. Neese,F.
     Software update: the ORCA program system, version 4.0
     WIRES Comput. Molec. Sci., 2018 8(1)1-6
     doi.org/10.1002/wcms.1327
  3. Neese,F.; Wennmohs,F.; Becker,U.; Riplinger,C.
     The ORCA quantum chemistry program package
     J. Chem. Phys., 2020 152 Art. No. L224108
     doi.org/10.1063/5.0004608

List of optional additional citations

  1. Neese,F.
     Approximate second-order SCF convergence for spin unrestricted wavefunctions
     Chem. Phys. Lett., 2000 325(1-3)93-98
     doi.org/10.1016/s0009-2614(00)00662-x

Timings for individual modules:

Sum of individual times          ...       38.004 sec (=   0.633 min)
Startup calculation              ...        1.152 sec (=   0.019 min)   3.0 %
SCF iterations                   ...       17.119 sec (=   0.285 min)  45.0 %
Property calculations            ...        0.068 sec (=   0.001 min)   0.2 %
SCF Gradient evaluation          ...       19.665 sec (=   0.328 min)  51.7 %
                             ****ORCA TERMINATED NORMALLY****
TOTAL RUN TIME: 0 days 0 hours 0 minutes 38 seconds 140 msec
  ------------------------------------------------------------------------
          * successful ORCA run, taking over control again...

         :::::::::::::::::::::::::::::::::::::::::::::::::::::
         ::                  ORCA SUMMARY                   ::
         :::::::::::::::::::::::::::::::::::::::::::::::::::::
         :: total energy            -572.562408636574 Eh    ::
         :: gradient norm              0.043440947165 Eh/a0 ::
         :: HOMO-LUMO gap              0.000000000000 eV    ::
         :::::::::::::::::::::::::::::::::::::::::::::::::::::

      ----------------------------------------------------------- 
     |                       L-ANC optimizer                     |
      ----------------------------------------------------------- 
          low memory version by Sebastian Ehlert

          ...................................................
          :                      SETUP                      :
          :.................................................:
          :   energy convergence        0.5000000E-05 Eh    :
          :   grad. convergence         0.1000000E-02 Eh/a0 :
          :   optimization log               true           :
          :   writing optlog all                1     steps :
          :   Hessian reset                     8     steps :
          :   maximium step len.        1.0000000     a0    :
          :   LBFGS images                      8           :
          ...................................................
 * calculating model hessian...
Using Lindh-Hessian (1995)
 Shifting diagonal of input Hessian by    1.0000000000000000E-002
 Lowest  eigenvalues of input Hessian
    0.000000    0.000000    0.000000    0.000000    0.000000    0.000000
    0.016112    0.018727    0.021223    0.022895    0.026647    0.030912
    0.033411    0.034213    0.037917    0.050943    0.054123    0.057385
 Highest eigenvalues
    1.346777    1.465222    1.493203    1.503912    1.569737    1.654842


........................................................................
.............................. CYCLE    1 ..............................
........................................................................
                         * ORCA takes the control...
  ------------------------------------------------------------------------

                                 *****************
                                 * O   R   C   A *
                                 *****************

                                            #,                                       
                                            ###                                      
                                            ####                                     
                                            #####                                    
                                            ######                                   
                                           ########,                                 
                                     ,,################,,,,,                         
                               ,,#################################,,                 
                          ,,##########################################,,             
                       ,#########################################, ''#####,          
                    ,#############################################,,   '####,        
                  ,##################################################,,,,####,       
                ,###########''''           ''''###############################       
              ,#####''   ,,,,##########,,,,          '''####'''          '####       
            ,##' ,,,,###########################,,,                        '##       
           ' ,,###''''                  '''############,,,                           
         ,,##''                                '''############,,,,        ,,,,,,###''
      ,#''                                            '''#######################'''  
     '                                                          ''''####''''         
             ,#######,   #######,   ,#######,      ##                                
            ,#'     '#,  ##    ##  ,#'     '#,    #''#        ,####,   ,####,        
            ##       ##  ##   ,#'  ##            #'  '#       #'       #'  '#        
            ##       ##  #######   ##           ,######,      #####,   #    #        
            '#,     ,#'  ##    ##  '#,     ,#' ,#      #,     #,   #   #,  ,#        
             '#######'   ##     ##  '#######'  #'      '#     '####' # '####'        



                #########################################################
                #                        -***-                          #
                #          Department of theory and spectroscopy        #
                #                                                       #
                #                      Frank Neese                      #
                #                                                       #
                #     Directorship, Architecture, Infrastructure        #
                #                    SHARK, DRIVERS                     #
                #        Core code/Algorithms in most modules           #
                #                                                       #
                #        Max Planck Institute fuer Kohlenforschung      #
                #                Kaiser Wilhelm Platz 1                 #
                #                 D-45470 Muelheim/Ruhr                 #
                #                      Germany                          #
                #                                                       #
                #                  All rights reserved                  #
                #                        -***-                          #
                #########################################################


                         Program Version 6.0.1  -  RELEASE   -


 With contributions from (in alphabetic order):
[Max-Planck-Institut fuer Kohlenforschung]                               
  Daniel Aravena         : Magnetic Suceptibility                        
  Michael Atanasov       : Ab Initio Ligand Field Theory (pilot matlab implementation)
  Alexander A. Auer      : GIAO ZORA, VPT2 properties, NMR spectrum      
  Ute Becker             : All parallelization in ORCA, NUMFREQ, NUMCALC 
  Giovanni Bistoni       : ED, misc. LED, open-shell LED, HFLD           
  Martin Brehm           : Molecular dynamics                            
  Dmytro Bykov           : pre 5.0 version of the SCF Hessian            
  Marcos Casanova-Páez   : Triplet and SCS-CIS(D). UHF-(DLPNO)-IP/EA/STEOM-CCSD. UHF-CVS-IP/STEOM-CCSD   
  Vijay G. Chilkuri      : MRCI spin determinant printing, contributions to CSF-ICE 
  Pauline Colinet        : FMM embedding                                 
  Dipayan Datta          : RHF DLPNO-CCSD density                        
  Achintya Kumar Dutta   : EOM-CC, STEOM-CC                              
  Nicolas Foglia         : Exact transition moments, OPA infrastructure, MCD improvements    
  Dmitry Ganyushin       : Spin-Orbit,Spin-Spin,Magnetic field MRCI      
  Miquel Garcia-Rates    : C-PCM and meta-GGA Hessian, CCSD/C-PCM, Gaussian charge scheme 
  Tiago L. C. Gouveia    : GS-ROHF, GS-ROCIS                             
  Yang Guo               : DLPNO-NEVPT2, F12-NEVPT2, CIM, IAO-localization        
  Andreas Hansen         : Spin unrestricted coupled pair/coupled cluster methods 
  Ingolf Harden          : AUTO-CI MPn and infrastructure                
  Benjamin Helmich-Paris : MC-RPA, TRAH-(SCF,CASSCF), AVAS, COSX integrals, SCF dyn. polar. 
  Lee Huntington         : MR-EOM, pCC                                   
  Robert Izsak           : Overlap fitted RIJCOSX, COSX-SCS-MP3, EOM     
  Riya Kayal             : Wick's Theorem for AUTO-CI, AUTO-CI UHF-CCSDT 
  Emily Kempfer          : AUTO-CI, RHF CISDT and CCSDT                  
  Christian Kollmar      : KDIIS, OOCD, Brueckner-CCSD(T), CCSD density, CASPT2, CASPT2-K, improved NEVPT2 
  Axel Koslowski         : Symmetry handling                             
  Simone Kossmann        : meta-GGA functionals, TD-DFT gradient, OOMP2, (MP2 Hessian; deprecated post 5.0) 
  Lucas Lang             : DCDCAS                                        
  Marvin Lechner         : AUTO-CI (C++ implementation), FIC-MRCC        
  Spencer Leger          : CASSCF response                               
  Dagmar Lenk            : GEPOL surface, SMD, ORCA-2-JSON               
  Dimitrios Liakos       : Extrapolation schemes; Compound Job, initial MDCI parallelization 
  Dimitrios Manganas     : Further ROCIS development; embedding schemes. LFT, Crystal Embedding 
  Dimitrios Pantazis     : SARC Basis sets                               
  Anastasios Papadopoulos: AUTO-CI, single reference methods and gradients 
  Taras Petrenko         : pre 6.0 DFT Hessian and TD-DFT gradient, (ASA, deprecated), ECA, 1-Electron XAS/XES, NRVS 
  Peter Pinski           : DLPNO-MP2, DLPNO-MP2 Gradient                 
  Christoph Reimann      : Effective Core Potentials                     
  Marius Retegan         : Local ZFS, SOC                                
  Christoph Riplinger    : Optimizer, TS searches, QM/MM, DLPNO-CCSD(T), (RO)-DLPNO pert. Triples 
  Michael Roemelt        : Original ROCIS implementation                 
  Masaaki Saitow         : Open-shell DLPNO-CCSD energy and density      
  Barbara Sandhoefer     : DKH picture change effects                    
  Kantharuban Sivalingam : CASSCF convergence/infrastructure, NEVPT2 and variants, FIC-MRCI 
  Bernardo de Souza      : ESD, SOC TD-DFT                               
  Georgi L. Stoychev     : AutoAux, RI-MP2 NMR, DLPNO-MP2 response, X2C  
  Van Anh Tran           : RI-MP2 g-tensors                              
  Willem Van den Heuvel  : Paramagnetic NMR                              
  Zikuan Wang            : NOTCH, Electric field optimization            
  Frank Wennmohs         : Technical directorship and infrastructure     
  Hang Xu                : AUTO-CI-Response properties                   
                                                                         
[FACCTs GmbH]                                                            
  Markus Bursch, Miquel Garcia-Rates, Christoph Riplinger, Bernardo de Souza, Georgi L. Stoychev 
                                                                 
  APM, Basis sets (HGBS, AHGBS, def-TZVP (Ac-Lr), def2-XVPD (La-Lu)), CI-OPT, improved COSX, DLPNO-Multilevel,           
  DOCKER, DRACO, updates on ESD, GOAT, IRC, LR-CPCM, MBIS, meta-GGA TD-DFT gradient, ML-optimized integration grids, 
  MM, NACMEs, nearIR, NEB, NEB-TS, NL-DFT gradient (VV10), 2- and 3-layer-ONIOM, interface openCOSMO-RS, QMMM,   
  Crystal-QMMM, SF, symmetry and pop. for TD-DFT, r2SCAN hybrids, SOLVATOR                                   
                                                                         
[Other institutions]                                                     
  V. Asgeirsson          : NEB                                           
  Christoph Bannwarth    : sTDA-DFT, sTD-DFT, PBEh-3c, B97-3c, D3        
  Sebastian Ehlert       : rSCAN, r2SCAN, r2SCAN-3c, D4, dhf basis sets  
  Marvin Friede          : D4 for Fr, Ra, Ac-Lr                          
  Lars Goerigk           : TD-DFT with DH, B97 family of functionals     
  Stefan Grimme          : VdW corrections, initial TS optimization, DFT functionals, gCP, sTDA/sTD-DF 
  Waldemar Hujo          : DFT-NL                                        
  H. Jonsson             : NEB                                           
  Holger Kruse           : gCP                                           
  Marcel Mueller         : wB97X-3c, vDZP basis set                      
  Hagen Neugebauer       : wr2SCAN                                       
  Tobias Risthaus        : range-separated hybrid DFT                    
  Lukas Wittmann         : regularized MP2, r2SCAN double-hybrids, wr2SCAN        
                                                                         
We gratefully acknowledge several colleagues who have allowed us to      
interface, adapt or use parts of their codes:                            
  Ed Valeev, F. Pavosevic, A. Kumar             : LibInt (2-el integral package), F12 methods 
  Garnet Chan, S. Sharma, J. Yang, R. Olivares  : DMRG                   
  Ulf Ekstrom                                   : XCFun DFT Library      
  Mihaly Kallay                                 : mrcc  (arbitrary order and MRCC methods)
  Frank Weinhold                                : gennbo (NPA and NBO analysis)           
  Simon Mueller                                 : openCOSMO-RS                            
  Christopher J. Cramer and Donald G. Truhlar   : smd solvation model                     
  S Lehtola, MJT Oliveira, MAL Marques          : LibXC Library                           
  Liviu Ungur et al                             : ANISO software                          


 Your calculation uses the libint2 library for the computation of 2-el integrals
 For citations please refer to: http://libint.valeyev.net

 Your ORCA version has been built with support for libXC version: 6.2.2
 For citations please refer to: https://libxc.gitlab.io

 This ORCA versions uses:
   CBLAS   interface :  Fast vector & matrix operations
   LAPACKE interface :  Fast linear algebra routines
   SCALAPACK package :  Parallel linear algebra routines
   Shared memory     :  Shared parallel matrices
   BLAS/LAPACK       :  OpenBLAS 0.3.27  USE64BITINT DYNAMIC_ARCH NO_AFFINITY Zen SINGLE_THREADED
        Core in use  :  Zen
   Copyright (c) 2011-2014, The OpenBLAS Project




***************************************
The coordinates will be read from file: xtb_opt.xyz
***************************************


Your calculation utilizes the geometrical counterpoise correction gCP
Please cite in your paper:
H.Kruse, S. Grimme J.Chem.Phys., 136, (2012), 154101 
   

Your calculation utilizes the atom-pairwise dispersion correction
based on EEQ partial charges (D4)


================================================================================

----- Orbital basis set information -----
Your calculation utilizes the basis: def2-mTZVPP
   Stefan Grimme, Andreas Hansen, Sebastian Ehlert, and Jan-Michael Mewes 
   J. Chem. Phys. 154, 064103 (2021). DOI: 10.1063/5.0040021

----- AuxJ basis set information -----
Your calculation utilizes the auxiliary basis: def2/J
   F. Weigend, Phys. Chem. Chem. Phys. 8, 1057 (2006).

================================================================================
                                        WARNINGS
                       Please study these warnings very carefully!
================================================================================

WARNING: Old DensityContainer found on disk!
         Will remove this file - 
         If you want to keep old densities, please start your calculation with a different basename. 



WARNING: SCAN, rSCAN, or r2SCAN functional requested.
  ===> : libXC variant has now been activated.



================================================================================
                                       INPUT FILE
================================================================================
NAME = xtb_opt.inp
|  1> ! r2scan-3c def2/J RI DEFGRID2 scfconv7 ENGRAD tightSCF miniprint
|  2> * xyzfile 0 1 xtb_opt.xyz
|  3> 
|  4>                          ****END OF INPUT****
================================================================================

                     *******************************
                     * Energy+Gradient Calculation *
                     *******************************

---------------------------------
CARTESIAN COORDINATES (ANGSTROEM)
---------------------------------
  C      0.845065    1.380731   -0.646339
  C      1.597085    0.187022   -0.055119
  H      2.585810    0.103343   -0.541531
  C      0.793790   -1.103750   -0.316179
  H      1.229779   -1.927012    0.271836
  C     -0.668121   -0.919670    0.123858
  H     -1.257616   -1.763520   -0.252371
  C     -1.273921    0.378821   -0.453424
  H     -1.346796    0.319506   -1.550904
  O     -0.449687    1.491705   -0.094745
  O     -2.539316    0.598901    0.047788
  O     -0.790070   -0.917900    1.532211
  O      0.773191   -1.395499   -1.701343
  O      1.743694    0.293799    1.357105
  H      0.805038    1.264161   -1.741574
  H      1.366776    2.317408   -0.417596
  H     -2.501661    0.392336    0.994886
  H     -0.080980   -0.352162    1.878259
  H      1.655722   -1.663505   -1.979519
  H      1.964143    1.205722    1.579418

----------------------------
CARTESIAN COORDINATES (A.U.)
----------------------------
  NO LB      ZA    FRAG     MASS         X           Y           Z
   0 C     6.0000    0    12.011    1.596942    2.609203   -1.221403
   1 C     6.0000    0    12.011    3.018053    0.353420   -0.104161
   2 H     1.0000    0     1.008    4.886472    0.195291   -1.023345
   3 C     6.0000    0    12.011    1.500046   -2.085785   -0.597493
   4 H     1.0000    0     1.008    2.323946   -3.641526    0.513695
   5 C     6.0000    0    12.011   -1.262565   -1.737924    0.234058
   6 H     1.0000    0     1.008   -2.376550   -3.332570   -0.476912
   7 C     6.0000    0    12.011   -2.407361    0.715868   -0.856847
   8 H     1.0000    0     1.008   -2.545076    0.603778   -2.930785
   9 O     8.0000    0    15.999   -0.849786    2.818913   -0.179043
  10 O     8.0000    0    15.999   -4.798612    1.131758    0.090307
  11 O     8.0000    0    15.999   -1.493015   -1.734580    2.895458
  12 O     8.0000    0    15.999    1.461120   -2.637112   -3.215072
  13 O     8.0000    0    15.999    3.295103    0.555200    2.564557
  14 H     1.0000    0     1.008    1.521301    2.388918   -3.291099
  15 H     1.0000    0     1.008    2.582832    4.379267   -0.789141
  16 H     1.0000    0     1.008   -4.727454    0.741407    1.880063
  17 H     1.0000    0     1.008   -0.153029   -0.665489    3.549396
  18 H     1.0000    0     1.008    3.128861   -3.143569   -3.740749
  19 H     1.0000    0     1.008    3.711693    2.278485    2.984668

------------------------------------------------------------------------------
                   ___                                                        
                  /   \      - P O W E R E D   B Y -                         
                 /     \                                                     
                 |  |  |   _    _      __       _____    __    __             
                 |  |  |  | |  | |    /  \     |  _  \  |  |  /  |          
                  \  \/   | |  | |   /    \    | | | |  |  | /  /          
                 / \  \   | |__| |  /  /\  \   | |_| |  |  |/  /          
                |  |  |   |  __  | /  /__\  \  |    /   |      \           
                |  |  |   | |  | | |   __   |  |    \   |  |\   \          
                \     /   | |  | | |  |  |  |  | |\  \  |  | \   \       
                 \___/    |_|  |_| |__|  |__|  |_| \__\ |__|  \__/        
                                                                              
                      - O R C A' S   B I G   F R I E N D -                    
                                      &                                       
                       - I N T E G R A L  F E E D E R -                       
                                                                              
 v1 FN, 2020, v2 2021, v3 2022-2024                                           
------------------------------------------------------------------------------


----------------------
SHARK INTEGRAL PACKAGE
----------------------

Number of atoms                             ...     20
Number of basis functions                   ...    265
Number of shells                            ...    125
Maximum angular momentum                    ...      2
Integral batch strategy                     ... SHARK/LIBINT Hybrid
RI-J (if used) integral strategy            ... SPLIT-RIJ (Revised 2003 algorithm where possible)
Printlevel                                  ...      1
Contraction scheme used                     ... SEGMENTED contraction
Prescreening option                         ... SCHWARTZ
   Thresh                                   ... 3.000e-11
   Tcut                                     ... 1.000e-12
   Tpresel                                  ... 1.000e-12 
Coulomb Range Separation                    ... NOT USED
Exchange Range Separation                   ... NOT USED
Multipole approximations                    ... NOT USED
Finite Nucleus Model                        ... NOT USED
CABS basis                                  ... NOT available
Auxiliary Coulomb fitting basis             ... AVAILABLE
   # of basis functions in Aux-J            ...    600
   # of shells in Aux-J                     ...    200
   Maximum angular momentum in Aux-J        ...      4
Auxiliary J/K fitting basis                 ... NOT available
Auxiliary Correlation fitting basis         ... NOT available
Auxiliary 'external' fitting basis          ... NOT available

Checking pre-screening integrals            ... done (  0.0 sec) Dimension = 125
Check shell pair data                       ... done (  0.0 sec)
Shell pair information
Shell pair cut-off parameter TPreSel        ...   1.0e-12
Total number of shell pairs                 ...      7875
Shell pairs after pre-screening             ...      7237
Total number of primitive shell pairs       ...     27980
Primitive shell pairs kept                  ...     18183
          la=0 lb=0:   2195 shell pairs
          la=1 lb=0:   2575 shell pairs
          la=1 lb=1:    778 shell pairs
          la=2 lb=0:    988 shell pairs
          la=2 lb=1:    583 shell pairs
          la=2 lb=2:    118 shell pairs

Calculating one electron integrals          ... done (  0.0 sec)
Calculating RI/J V-Matrix + Cholesky decomp.... done (  0.0 sec)
Calculating Nuclear repulsion               ... done (  0.0 sec) ENN=    635.403589924014 Eh

Diagonalization of the overlap matrix:
Smallest eigenvalue                        ... 5.474e-05
Time for diagonalization                   ...    0.007 sec
Threshold for overlap eigenvalues          ... 1.000e-07
Number of eigenvalues below threshold      ... 0
Time for construction of square roots      ...    0.003 sec
Total time needed                          ...    0.012 sec

-------------------
DFT GRID GENERATION
-------------------

General Integration Accuracy     IntAcc      ... 4.388
Radial Grid Type                 RadialGrid  ... OptM3 with GC (2021)
Angular Grid (max. ang.)         AngularGrid ... 4 (Lebedev-302)
Angular grid pruning method      GridPruning ... 4 (adaptive)
Weight generation scheme         WeightScheme... mBecke (2022)
Basis function cutoff            BFCut       ... 1.0000e-11
Integration weight cutoff        WCut        ... 1.0000e-14
Partially contracted basis set               ... off
Rotationally invariant grid construction     ... off
Angular grids for H and He will be reduced by one unit
Diffuse basis detected: some atoms will have their outermost
                        angular grid increased by 1.

Total number of grid points                  ...    93376
Total number of batches                      ...     1470
Average number of points per batch           ...       63
Average number of grid points per atom       ...     4669
Initializing property integral containers    ... done (  0.0 sec)

SHARK setup successfully completed in   1.2 seconds

Maximum memory used throughout the entire STARTUP-calculation: 46.4 MB
Occupation numbers will be reassigned to an Aufbau configuration
             **** ENERGY FILE WAS UPDATED (xtb_opt.en.tmp) ****
Finished Guess after   0.1 sec
Maximum memory used throughout the entire GUESS-calculation: 21.1 MB
----------------------------------------D-I-I-S--------------------------------------------
Iteration    Energy (Eh)           Delta-E    RMSDP     MaxDP     DIISErr   Damp  Time(sec)
-------------------------------------------------------------------------------------------
               ***  Starting incremental Fock matrix formation  ***
    1    -572.5738866028572147     0.00e+00  1.22e-04  4.39e-03  5.33e-03  0.700   4.6
    2    -572.5740442156430845    -1.58e-04  1.08e-04  3.71e-03  3.78e-03  0.700   4.0
                               ***Turning on AO-DIIS***
                              *** Initializing SOSCF ***
---------------------------------------S-O-S-C-F--------------------------------------
Iteration    Energy (Eh)           Delta-E    RMSDP     MaxDP     MaxGrad    Time(sec)
--------------------------------------------------------------------------------------
    3    -572.5741600354236880    -1.16e-04  2.66e-04  8.15e-03  2.67e-03     3.6
               *** Restarting incremental Fock matrix formation ***
    4    -572.5744266552106865    -2.67e-04  7.54e-05  3.79e-03  3.71e-04     4.5
    5    -572.5744158788321556     1.08e-05  5.13e-05  2.65e-03  6.50e-04     3.4
    6    -572.5744317328566240    -1.59e-05  6.14e-06  1.69e-04  2.02e-05     3.4
                  *** Gradient check signals convergence ***

               *****************************************************
               *                     SUCCESS                       *
               *           SCF CONVERGED AFTER   6 CYCLES          *
               *****************************************************

             **** ENERGY FILE WAS UPDATED (xtb_opt.en.tmp) ****

----------------
TOTAL SCF ENERGY
----------------

Total Energy       :       -572.57443173285662 Eh          -15580.54239 eV

Components:
Nuclear Repulsion  :        635.40358992401445 Eh           17290.21070 eV
Electronic Energy  :      -1207.97802165687108 Eh          -32870.75309 eV
One Electron Energy:      -2045.89833276977834 Eh          -55671.72393 eV
Two Electron Energy:        837.92031111290714 Eh           22800.97084 eV

Virial components:
Potential Energy   :      -1142.86105266378718 Eh          -31098.83028 eV
Kinetic Energy     :        570.28662093093055 Eh           15518.28789 eV
Virial Ratio       :          2.00401168591013

DFT components:
N(Alpha)           :       39.999957394033 electrons
N(Beta)            :       39.999957394033 electrons
N(Total)           :       79.999914788065 electrons
E(X)               :      -71.045808696265 Eh       
E(C)               :       -2.661666352389 Eh       
E(XC)              :      -73.707475048654 Eh       

---------------
SCF CONVERGENCE
---------------

  Last Energy change         ...    1.5854e-05  Tolerance :   1.0000e-07
  Last MAX-Density change    ...    1.6855e-04  Tolerance :   1.0000e-07
  Last RMS-Density change    ...    6.1377e-06  Tolerance :   5.0000e-09
  Last DIIS Error            ...    2.6720e-03  Tolerance :   1.0000e-07
  Last Orbital Gradient      ...    2.0192e-05  Tolerance :   1.0000e-04
  Last Orbital Rotation      ...    3.5981e-05  Tolerance :   1.0000e-04


----------------
ORBITAL ENERGIES
----------------

  NO   OCC          E(Eh)            E(eV) 
   0   2.0000     -18.982484      -516.5397 
   1   2.0000     -18.974788      -516.3302 
   2   2.0000     -18.961019      -515.9556 
   3   2.0000     -18.953973      -515.7638 
   4   2.0000     -18.953266      -515.7446 
   5   2.0000     -10.127515      -275.5837 
   6   2.0000     -10.105674      -274.9894 
   7   2.0000     -10.102355      -274.8991 
   8   2.0000     -10.093594      -274.6607 
   9   2.0000     -10.088077      -274.5105 
  10   2.0000      -1.043486       -28.3947 
  11   2.0000      -1.018759       -27.7218 
  12   2.0000      -1.009612       -27.4729 
  13   2.0000      -0.989021       -26.9126 
  14   2.0000      -0.972065       -26.4512 
  15   2.0000      -0.751285       -20.4435 
  16   2.0000      -0.717259       -19.5176 
  17   2.0000      -0.633217       -17.2307 
  18   2.0000      -0.617413       -16.8007 
  19   2.0000      -0.561409       -15.2767 
  20   2.0000      -0.519068       -14.1245 
  21   2.0000      -0.508885       -13.8475 
  22   2.0000      -0.488320       -13.2879 
  23   2.0000      -0.465502       -12.6670 
  24   2.0000      -0.455800       -12.4030 
  25   2.0000      -0.446753       -12.1568 
  26   2.0000      -0.440010       -11.9733 
  27   2.0000      -0.412497       -11.2246 
  28   2.0000      -0.391078       -10.6418 
  29   2.0000      -0.375177       -10.2091 
  30   2.0000      -0.350536        -9.5386 
  31   2.0000      -0.345606        -9.4044 
  32   2.0000      -0.324218        -8.8224 
  33   2.0000      -0.312575        -8.5056 
  34   2.0000      -0.294298        -8.0083 
  35   2.0000      -0.281676        -7.6648 
  36   2.0000      -0.270274        -7.3545 
  37   2.0000      -0.258192        -7.0258 
  38   2.0000      -0.249160        -6.7800 
  39   2.0000      -0.221285        -6.0215 
  40   0.0000       0.023626         0.6429 
  41   0.0000       0.042808         1.1649 
  42   0.0000       0.072225         1.9653 
  43   0.0000       0.084436         2.2976 
  44   0.0000       0.099927         2.7192 
  45   0.0000       0.102330         2.7845 
  46   0.0000       0.120279         3.2730 
  47   0.0000       0.123780         3.3682 
  48   0.0000       0.132351         3.6015 
  49   0.0000       0.142487         3.8773 
  50   0.0000       0.150451         4.0940 
*Only the first 10 virtual orbitals were printed.
Total SCF time: 0 days 0 hours 0 min 23 sec 
Finished LeanSCF after  23.7 sec

Maximum memory used throughout the entire LEANSCF-calculation: 32.2 MB


-------------------------------------------------------------------------------
                          DFT DISPERSION CORRECTION                            
                                                                               
                                DFTD4 V3.4.0                                   
-------------------------------------------------------------------------------
-------------------------   ----------------
Dispersion correction           -0.006483190
-------------------------   ----------------

------------------   -----------------
gCP correction             0.017069031
------------------   -----------------

-------------------------   --------------------
FINAL SINGLE POINT ENERGY      -572.563845891427
-------------------------   --------------------

------------------------------------------------------------------------------
                         ORCA SCF GRADIENT CALCULATION
------------------------------------------------------------------------------

Nuc. rep. gradient        (SHARK) ... done (  0.0 sec)
HCore & Overlap gradient  (SHARK) ... done (  0.7 sec)
Split-RIJ-J gradient      (SHARK) ... done (  3.6 sec)
XC gradient                       ... done ( 15.4 sec)
Dispersion correction             ... done (  0.0 sec)

-------------------
DISPERSION GRADIENT
-------------------

   1   C   :    0.000017803    0.000053002   -0.000030940
   2   C   :    0.000063448    0.000009203   -0.000003463
   3   H   :    0.000043042    0.000003393   -0.000002109
   4   C   :    0.000029167   -0.000042902   -0.000007888
   5   H   :    0.000019042   -0.000038382    0.000003137
   6   C   :   -0.000040014   -0.000031818    0.000004454
   7   H   :   -0.000028788   -0.000034158    0.000003352
   8   C   :   -0.000033513    0.000024961   -0.000016465
   9   H   :   -0.000039905    0.000012963   -0.000016283
  10   O   :   -0.000032389    0.000065812   -0.000011543
  11   O   :   -0.000112576    0.000017337    0.000021234
  12   O   :   -0.000030929   -0.000035198    0.000083551
  13   O   :    0.000050795   -0.000078658   -0.000081213
  14   O   :    0.000086099    0.000033221    0.000072234
  15   H   :    0.000012781    0.000032702   -0.000029110
  16   H   :    0.000021512    0.000048031   -0.000006141
  17   H   :   -0.000044365    0.000010990   -0.000006926
  18   H   :   -0.000022935   -0.000025159    0.000028301
  19   H   :    0.000010005   -0.000030701   -0.000032424
  20   H   :    0.000031719    0.000005360    0.000028242

Difference to translation invariance:
           :    0.0000000000    0.0000000000   -0.0000000000

Difference to rotation invariance:
           :   -0.0000000000    0.0000000000    0.0000000000

Norm of the Dispersion gradient    ...    0.0003057438
RMS gradient                       ...    0.0000394714
MAX gradient                       ...    0.0001125761
gCP correction                   ... done

------------------
CARTESIAN GRADIENT
------------------

   1   C   :   -0.004524860    0.002714862   -0.000014934
   2   C   :    0.002868509    0.000403229    0.007744338
   3   H   :    0.000154275   -0.000017859   -0.000006209
   4   C   :   -0.000854094   -0.002938560   -0.007237589
   5   H   :    0.000263108   -0.000302351    0.000214434
   6   C   :   -0.000371354   -0.001660356    0.006307398
   7   H   :   -0.000362567    0.000463613    0.000002005
   8   C   :   -0.001911013    0.006752981    0.001390701
   9   H   :    0.000213150   -0.000039317   -0.000172167
  10   O   :    0.001186463   -0.005174793   -0.002675295
  11   O   :    0.003906180   -0.001197517   -0.000961350
  12   O   :    0.001829525    0.000380761   -0.006149645
  13   O   :    0.000865257    0.001312257    0.006683763
  14   O   :   -0.001868594   -0.000143702   -0.006395022
  15   H   :   -0.000394326   -0.000393079    0.000477945
  16   H   :   -0.000464060   -0.000558782    0.000285374
  17   H   :   -0.000715269    0.000796709    0.000250621
  18   H   :    0.000102723   -0.000154318    0.000627802
  19   H   :   -0.000086367   -0.000003718   -0.000410108
  20   H   :    0.000163313   -0.000240060    0.000037939

[...]
ORBITAL ENERGIES
----------------

  NO   OCC          E(Eh)            E(eV) 
   0   2.0000     -18.981572      -516.5148 
   1   2.0000     -18.975178      -516.3409 
   2   2.0000     -18.961573      -515.9706 
   3   2.0000     -18.956042      -515.8201 
   4   2.0000     -18.953813      -515.7595 
   5   2.0000     -10.128872      -275.6206 
   6   2.0000     -10.106686      -275.0169 
   7   2.0000     -10.103856      -274.9399 
   8   2.0000     -10.094506      -274.6855 
   9   2.0000     -10.090219      -274.5688 
  10   2.0000      -1.040392       -28.3105 
  11   2.0000      -1.015295       -27.6276 
  12   2.0000      -1.006188       -27.3798 
  13   2.0000      -0.987271       -26.8650 
  14   2.0000      -0.970206       -26.4007 
  15   2.0000      -0.754152       -20.5215 
  16   2.0000      -0.719142       -19.5689 
  17   2.0000      -0.634350       -17.2616 
  18   2.0000      -0.617268       -16.7967 
  19   2.0000      -0.559760       -15.2318 
  20   2.0000      -0.518315       -14.1041 
  21   2.0000      -0.506565       -13.7843 
  22   2.0000      -0.486570       -13.2402 
  23   2.0000      -0.465031       -12.6541 
  24   2.0000      -0.454602       -12.3703 
  25   2.0000      -0.447656       -12.1813 
  26   2.0000      -0.439818       -11.9681 
  27   2.0000      -0.412103       -11.2139 
  28   2.0000      -0.390903       -10.6370 
  29   2.0000      -0.374781       -10.1983 
  30   2.0000      -0.350685        -9.5426 
  31   2.0000      -0.345303        -9.3962 
  32   2.0000      -0.325430        -8.8554 
  33   2.0000      -0.312750        -8.5104 
  34   2.0000      -0.296596        -8.0708 
  35   2.0000      -0.281701        -7.6655 
  36   2.0000      -0.270886        -7.3712 
  37   2.0000      -0.259335        -7.0569 
  38   2.0000      -0.250484        -6.8160 
  39   2.0000      -0.224320        -6.1040 
  40   0.0000       0.020966         0.5705 
  41   0.0000       0.042250         1.1497 
  42   0.0000       0.069945         1.9033 
  43   0.0000       0.082448         2.2435 
  44   0.0000       0.097393         2.6502 
  45   0.0000       0.101904         2.7729 
  46   0.0000       0.118623         3.2279 
  47   0.0000       0.122437         3.3317 
  48   0.0000       0.130791         3.5590 
  49   0.0000       0.140165         3.8141 
  50   0.0000       0.149027         4.0552 
*Only the first 10 virtual orbitals were printed.
Total SCF time: 0 days 0 hours 0 min 9 sec 
Finished LeanSCF after  10.0 sec

Maximum memory used throughout the entire LEANSCF-calculation: 32.1 MB


-------------------------------------------------------------------------------
                          DFT DISPERSION CORRECTION                            
                                                                               
                                DFTD4 V3.4.0                                   
-------------------------------------------------------------------------------
-------------------------   ----------------
Dispersion correction           -0.006476322
-------------------------   ----------------

------------------   -----------------
gCP correction             0.016965082
------------------   -----------------

-------------------------   --------------------
FINAL SINGLE POINT ENERGY      -572.564336755424
-------------------------   --------------------

------------------------------------------------------------------------------
                         ORCA SCF GRADIENT CALCULATION
------------------------------------------------------------------------------

Nuc. rep. gradient        (SHARK) ... done (  0.0 sec)
HCore & Overlap gradient  (SHARK) ... done (  0.6 sec)
Split-RIJ-J gradient      (SHARK) ... done (  3.6 sec)
XC gradient                       ... done ( 13.9 sec)
Dispersion correction             ... done (  0.0 sec)

-------------------
DISPERSION GRADIENT
-------------------

   1   C   :    0.000019817    0.000054552   -0.000031057
   2   C   :    0.000064186    0.000009527   -0.000002619
   3   H   :    0.000043043    0.000003238   -0.000002350
   4   C   :    0.000028750   -0.000042823   -0.000009116
   5   H   :    0.000019217   -0.000038439    0.000003317
   6   C   :   -0.000040471   -0.000032365    0.000005431
   7   H   :   -0.000028592   -0.000034111    0.000003244
   8   C   :   -0.000035051    0.000025823   -0.000015849
   9   H   :   -0.000039791    0.000012898   -0.000016101
  10   O   :   -0.000032771    0.000064457   -0.000012192
  11   O   :   -0.000111687    0.000015926    0.000021169
  12   O   :   -0.000032065   -0.000034257    0.000082897
  13   O   :    0.000050346   -0.000078885   -0.000080273
  14   O   :    0.000086431    0.000033657    0.000070894
  15   H   :    0.000012949    0.000033029   -0.000028792
  16   H   :    0.000021569    0.000047661   -0.000006075
  17   H   :   -0.000044135    0.000011277   -0.000006767
  18   H   :   -0.000023638   -0.000025463    0.000028529
  19   H   :    0.000009701   -0.000030694   -0.000032455
  20   H   :    0.000032191    0.000004992    0.000028165

Difference to translation invariance:
           :   -0.0000000000    0.0000000000    0.0000000000

Difference to rotation invariance:
           :    0.0000000000   -0.0000000000    0.0000000000

Norm of the Dispersion gradient    ...    0.0003054288
RMS gradient                       ...    0.0000394307
MAX gradient                       ...    0.0001116867
gCP correction                   ... done

------------------
CARTESIAN GRADIENT
------------------

   1   C   :    0.000079901    0.000045773    0.000025845
   2   C   :   -0.000177728   -0.000048353   -0.000080199
   3   H   :   -0.000007526    0.000012582    0.000053047
   4   C   :    0.000061022    0.000049904    0.000136185
   5   H   :    0.000008556    0.000001027   -0.000068240
   6   C   :    0.000103373    0.000133574   -0.000165310
   7   H   :    0.000054814    0.000006832    0.000059432
   8   C   :    0.000024192   -0.000043913    0.000122004
   9   H   :   -0.000013283   -0.000004075    0.000038060
  10   O   :    0.000034646   -0.000067212   -0.000085324
  11   O   :   -0.000101825   -0.000017823   -0.000057615
  12   O   :   -0.000028924    0.000021895   -0.000013254
  13   O   :   -0.000074530   -0.000085359   -0.000043176
  14   O   :   -0.000104240   -0.000067960    0.000006471
  15   H   :   -0.000033676   -0.000027515    0.000034574
  16   H   :   -0.000087897   -0.000028766    0.000018673
  17   H   :    0.000057600    0.000017387    0.000030919
  18   H   :    0.000026350   -0.000008027    0.000008277
  19   H   :    0.000052572    0.000051632   -0.000000748
  20   H   :    0.000126605    0.000058396   -0.000019621

Difference to translation invariance:
           :    0.0000000000   -0.0000000000    0.0000000000

Difference to rotation invariance:
           :   -0.0000738290    0.0003605338    0.0004499973

Norm of the Cartesian gradient     ...    0.0005146618
RMS gradient                       ...    0.0000664425
MAX gradient                       ...    0.0001777278

-------
TIMINGS
-------

Total SCF gradient time     ....       18.136 sec

Densities                   ....       0.001 sec  (  0.0%)
One electron gradient       ....       0.596 sec  (  3.3%)
RI-J Coulomb gradient       ....       3.559 sec  ( 19.6%)
XC gradient                 ....      13.923 sec  ( 76.8%)

Maximum memory used throughout the entire SCFGRAD-calculation: 41.4 MB

------------------------------------------------------------------------------
                              ORCA PROPERTY CALCULATIONS
------------------------------------------------------------------------------

GBWName                                 ... xtb_opt.gbw
Number of atoms                         ...     20
Number of basis functions               ...    265
Max core memory                         ...   1024 MB

Electric properties:
Dipole moment                           ... YES
Quadrupole moment                       ...  NO
Static polarizability (Dipole/Dipole)   ...  NO
Static polarizability (Dipole/Quad.)    ...  NO
Static polarizability (Quad./Quad.)     ...  NO
Static polarizability (Velocity)        ...  NO

Atomic electric properties:
Dipole moment                           ...  NO
Quadrupole moment                       ...  NO
Static polarizability                   ...  NO

Choice of electric origin               ... Center of mass
Position of electric origin             ...    -0.001962     0.004056     0.005473

General magnetic properties:
Magnetizability                         ...  NO

EPR properties:
g-Tensor (aka g-matrix)                 ...  NO
Zero-Field splitting spin-orbit         ...  NO
Zero-field splitting spin-spin          ...  NO
Hyperfine couplings                     ...  NO (   0 nuclei)
Quadrupole couplings                    ...  NO (   0 nuclei)
Contact density                         ...  NO (   0 nuclei)

NMR properties:
Chemical shifts                         ...  NO (   0 nuclei)
Spin-rotation constants                 ...  NO (   0 nuclei)
Spin-spin couplings                     ...  NO (   0 nuclei,    0 pairs)

Choice of magnetic origin               ... GIAO
Position of magnetic origin             ...     0.000000     0.000000     0.000000

Properties with geometric perturbations:
SCF Hessian                             ...  NO
IR spectrum                             ...  NO
VCD spectrum                            ...  NO
X-ray spectroscopy properties:
SCF XES/XAS/RIXS spectra                ...  NO


-------------
DIPOLE MOMENT
-------------

Method             : SCF
Type of density    : Electron Density
Multiplicity       :   1
Irrep              :   0
Energy             :  -572.5748255151748936 Eh
Relativity type    : 
Basis              : AO
                                X                 Y                 Z
Electronic contribution:     -2.421811288       0.188369174       1.356323395
Nuclear contribution   :      4.133535808      -0.132465406      -1.668269427
                        -----------------------------------------
Total Dipole Moment    :      1.711724520       0.055903768      -0.311946031
                        -----------------------------------------
Magnitude (a.u.)       :      1.740814864
Magnitude (Debye)      :      4.424799739



--------------------
Rotational spectrum 
--------------------
 
Rotational constants in cm-1:             0.057887             0.040700             0.038574 
Rotational constants in MHz :          1735.416859          1220.162162          1156.423025 

Dipole components along the rotational axes: 
x,y,z [a.u.] :    -1.699840     0.243297    -0.285982 
x,y,z [Debye]:    -4.320651     0.618412    -0.726907 

 

Dipole moment calculation done in   0.0 sec 

Maximum memory used throughout the entire PROP-calculation: 20.1 MB

--------------------------------
SUGGESTED CITATIONS FOR THIS RUN
--------------------------------

Below you find a list of papers that are relevant to this ORCA run
We neither can nor want to force you to cite these papers, but we appreciate if you do
You receive ORCA, which is the product of decades of hard work by many enthusiastic individuals, for free
The only thing we kindly ask in return is that you cite our papers,
We deeply appreciate it, if you show your appreciation for ORCA by not just citing the generic ORCA reference.

Please note that relegating all ORCA citations to the supporting information does *not* help us.
SI sections are not indexed - citations you put there will not count into any citation statistics
But we need these citations in order to attract the funding resources that allow us to do what we are doing

Therefore, if you are a happy ORCA user, please consider citing a few of the papers listed below in the main body of your paper

In addition to the list printed below, the program has created the file xtb_opt.bibtex that contains the list in bibtex format
You can import this file easily into all common literature databanks and citation aid programs


List of essential papers. We consider these as the minimum necessary citations

  1. Neese,F.
     Software update: the ORCA program system, version 5.0
     WIRES Comput. Molec. Sci., 2022 12(1)e1606
     doi.org/10.1002/wcms.1606
  2. Grimme,S.; Hansen,A.; Ehlert,S.; Mewes,J.
     r2SCAN-3c: A 'Swiss army knife' composite electronic-structure method
     J. Chem. Phys., 2021 154 064103
     doi.org/10.1063/5.0040021

List of papers to cite with high priority. The work reported in these papers was absolutely
necessary for this run to complete.
Our perspective: the developers of density functionals and basis sets usually get cited in chemistry papers
Good! But without the algorithms to do something with them, the functionals or basis sets would not do anything.
Hence, in our opinion, the algorithm design and method developments papers are equally worthy of getting cited

  1. Neese,F.
     An improvement of the resolution of the identity approximation for the formation of the Coulomb matrix
     J. Comp. Chem., 2003 24(14)1740-1747
     doi.org/10.1002/jcc.10318
  2. Neese,F.
     The SHARK Integral Generation and Digestion System
     J. Comp. Chem., 2022  1-16
     doi.org/10.1002/jcc.26942
  3. Lehtola,S.; Steigemann,C.; Oliveira,M.; Marques,M.
     Recent developments in Libxc - A comprehensive library of functionals for density functional theory
     Software X, 2018 7 
     doi.org/10.1016/j.softx.2017.11.002
  4. Caldeweyher,E.; Bannwarth,C.; Grimme,S.
     Extension of the D3 dispersion coefficient model
     J. Chem. Phys., 2017 147 034112
     doi.org/10.1063/1.4993215
  5. Caldeweyher,E.; Ehlert,S.; Hansen,A.; Neugebauer,H.; Spicher,S.; Bannwarth,C.; Grimme,S.
     A generally applicable atomic-charge dependent London dispersion correction
     J. Chem. Phys., 2019 150 154122
     doi.org/10.1063/1.5090222
  6. Caldeweyher,E.; Mewes,J.; Ehlert,S.; Grimme,S.
     Extension and evaluation of the D4 London-dispersion model for periodic systems
     Phys. Chem. Chem. Phys., 2020 22(16)8499-8512
     doi.org/10.1039/D0CP00502A
  7. Wittmann,L.; Gordiy,I.; Friede,M.; Helmich-Paris,B.; Grimme,S.; Hansen,A.; Bursch,M.
     Extension of the D3 and D4 London Dispersion Corrections to the full Actinides Series
     Phys. Chem. Chem. Phys., 2024 26(32)21379-21394
     doi.org/https://doi.org/10.1039/D4CP01514B 

List of suggested additional citations. These are papers that are important in the 'surrounding' of 
of this run, or papers that preceded the highly important papers. If you like your results we are grateful for a citation.

  1. Neese,F.
     The ORCA program system
     WIRES Comput. Molec. Sci., 2012 2(1)73-78
     doi.org/10.1002/wcms.81
  2. Neese,F.
     Software update: the ORCA program system, version 4.0
     WIRES Comput. Molec. Sci., 2018 8(1)1-6
     doi.org/10.1002/wcms.1327
  3. Neese,F.; Wennmohs,F.; Becker,U.; Riplinger,C.
     The ORCA quantum chemistry program package
     J. Chem. Phys., 2020 152 Art. No. L224108
     doi.org/10.1063/5.0004608

List of optional additional citations

  1. Neese,F.
     Approximate second-order SCF convergence for spin unrestricted wavefunctions
     Chem. Phys. Lett., 2000 325(1-3)93-98
     doi.org/10.1016/s0009-2614(00)00662-x

Timings for individual modules:

Sum of individual times          ...       29.859 sec (=   0.498 min)
Startup calculation              ...        1.311 sec (=   0.022 min)   4.4 %
SCF iterations                   ...       10.222 sec (=   0.170 min)  34.2 %
Property calculations            ...        0.104 sec (=   0.002 min)   0.3 %
SCF Gradient evaluation          ...       18.221 sec (=   0.304 min)  61.0 %
                             ****ORCA TERMINATED NORMALLY****
TOTAL RUN TIME: 0 days 0 hours 0 minutes 30 seconds 82 msec
  ------------------------------------------------------------------------
          * successful ORCA run, taking over control again...

         :::::::::::::::::::::::::::::::::::::::::::::::::::::
         ::                  ORCA SUMMARY                   ::
         :::::::::::::::::::::::::::::::::::::::::::::::::::::
         :: total energy            -572.564336755424 Eh    ::
         :: gradient norm              0.000514661768 Eh/a0 ::
         :: HOMO-LUMO gap              0.000000000000 eV    ::
         :::::::::::::::::::::::::::::::::::::::::::::::::::::

           -------------------------------------------------
          |                Property Printout                |
           -------------------------------------------------
           -------------------------------------------------
          |                Geometry Summary                 |
           -------------------------------------------------

      molecular mass/u    :      150.1301116
   center of mass at/Å    :       -0.0010457       0.0021468       0.0029025
  moments of inertia/u·Å² :        0.2912165E+03   0.4141929E+03   0.4370218E+03
rotational constants/cm⁻¹ :        0.5788695E-01   0.4069995E-01   0.3857389E-01

 * 20 selected distances

     #   Z          #   Z                                           value/Å
     1   6          2   6                                         1.5230708
     2   6          3   1                                         1.1041071
     2   6          4   6                                         1.5356031
     4   6          5   1                                         1.1000056
     4   6          6   6                                         1.5339771
     6   6          7   1                                         1.0956906
     6   6          8   6                                         1.5369034 (max)
     8   6          9   1                                         1.1004425
     1   6         10   8                                         1.4193616
     8   6         10   8                                         1.4424243
     8   6         11   8                                         1.3832476
     6   6         12   8                                         1.4249909
     4   6         13   8                                         1.4294151
     2   6         14   8                                         1.4372724
     1   6         15   1                                         1.1026876
     1   6         16   1                                         1.0971431
    11   8         17   1                                         0.9706691
    12   8         18   1                                         0.9709714
    13   8         19   1                                         0.9635195 (min)
    14   8         20   1                                         0.9645067

 * 4 distinct bonds (by element types)

   Z      Z             #   av. dist./Å        max./Å        min./Å
   1 H    6 C           6     1.1000127     1.1041071     1.0956906
   6 C    6 C           4     1.5323886     1.5369034     1.5230708
   1 H    8 O           4     0.9674167     0.9709714     0.9635195
   6 C    8 O           6     1.4227853     1.4424243     1.3832476


optimized geometry written to: xtbopt.coord


           -------------------------------------------------
          | TOTAL ENERGY             -572.564336755424 Eh   |
          | GRADIENT NORM               0.000514661768 Eh/α |
           -------------------------------------------------

------------------------------------------------------------------------
 * finished run on 2025/04/09 at 02:23:26.880     
------------------------------------------------------------------------
 total:
 * wall-time:     0 d,  0 h,  4 min, 33.197 sec
 *  cpu-time:     0 d,  0 h,  0 min,  0.504 sec
 * ratio c/w:     0.002 speedup
 SCF:
 * wall-time:     0 d,  0 h,  0 min, 38.171 sec
 *  cpu-time:     0 d,  0 h,  0 min,  0.072 sec
 * ratio c/w:     0.002 speedup
 ANC optimizer:
 * wall-time:     0 d,  0 h,  3 min, 54.561 sec
 *  cpu-time:     0 d,  0 h,  0 min,  0.019 sec
 * ratio c/w:     0.000 speedup

