
                                 *****************
                                 * O   R   C   A *
                                 *****************

                                            #,                                       
                                            ###                                      
                                            ####                                     
                                            #####                                    
                                            ######                                   
                                           ########,                                 
                                     ,,################,,,,,                         
                               ,,#################################,,                 
                          ,,##########################################,,             
                       ,#########################################, ''#####,          
                    ,#############################################,,   '####,        
                  ,##################################################,,,,####,       
                ,###########''''           ''''###############################       
              ,#####''   ,,,,##########,,,,          '''####'''          '####       
            ,##' ,,,,###########################,,,                        '##       
           ' ,,###''''                  '''############,,,                           
         ,,##''                                '''############,,,,        ,,,,,,###''
      ,#''                                            '''#######################'''  
     '                                                          ''''####''''         
             ,#######,   #######,   ,#######,      ##                                
            ,#'     '#,  ##    ##  ,#'     '#,    #''#        ,####,   ,####,        
            ##       ##  ##   ,#'  ##            #'  '#       #'       #'  '#        
            ##       ##  #######   ##           ,######,      #####,   #    #        
            '#,     ,#'  ##    ##  '#,     ,#' ,#      #,     #,   #   #,  ,#        
             '#######'   ##     ##  '#######'  #'      '#     '####' # '####'        



                #########################################################
                #                        -***-                          #
                #          Department of theory and spectroscopy        #
                #                                                       #
                #                      Frank Neese                      #
                #                                                       #
                #     Directorship, Architecture, Infrastructure        #
                #                    SHARK, DRIVERS                     #
                #        Core code/Algorithms in most modules           #
                #                                                       #
                #        Max Planck Institute fuer Kohlenforschung      #
                #                Kaiser Wilhelm Platz 1                 #
                #                 D-45470 Muelheim/Ruhr                 #
                #                      Germany                          #
                #                                                       #
                #                  All rights reserved                  #
                #                        -***-                          #
                #########################################################


                         Program Version 6.0.1  -  RELEASE   -


 With contributions from (in alphabetic order):
[Max-Planck-Institut fuer Kohlenforschung]                               
  Daniel Aravena         : Magnetic Suceptibility                        
  Michael Atanasov       : Ab Initio Ligand Field Theory (pilot matlab implementation)
  Alexander A. Auer      : GIAO ZORA, VPT2 properties, NMR spectrum      
  Ute Becker             : All parallelization in ORCA, NUMFREQ, NUMCALC 
  Giovanni Bistoni       : ED, misc. LED, open-shell LED, HFLD           
  Martin Brehm           : Molecular dynamics                            
  Dmytro Bykov           : pre 5.0 version of the SCF Hessian            
  Marcos Casanova-Páez   : Triplet and SCS-CIS(D). UHF-(DLPNO)-IP/EA/STEOM-CCSD. UHF-CVS-IP/STEOM-CCSD   
  Vijay G. Chilkuri      : MRCI spin determinant printing, contributions to CSF-ICE 
  Pauline Colinet        : FMM embedding                                 
  Dipayan Datta          : RHF DLPNO-CCSD density                        
  Achintya Kumar Dutta   : EOM-CC, STEOM-CC                              
  Nicolas Foglia         : Exact transition moments, OPA infrastructure, MCD improvements    
  Dmitry Ganyushin       : Spin-Orbit,Spin-Spin,Magnetic field MRCI      
  Miquel Garcia-Rates    : C-PCM and meta-GGA Hessian, CCSD/C-PCM, Gaussian charge scheme 
  Tiago L. C. Gouveia    : GS-ROHF, GS-ROCIS                             
  Yang Guo               : DLPNO-NEVPT2, F12-NEVPT2, CIM, IAO-localization        
  Andreas Hansen         : Spin unrestricted coupled pair/coupled cluster methods 
  Ingolf Harden          : AUTO-CI MPn and infrastructure                
  Benjamin Helmich-Paris : MC-RPA, TRAH-(SCF,CASSCF), AVAS, COSX integrals, SCF dyn. polar. 
  Lee Huntington         : MR-EOM, pCC                                   
  Robert Izsak           : Overlap fitted RIJCOSX, COSX-SCS-MP3, EOM     
  Riya Kayal             : Wick's Theorem for AUTO-CI, AUTO-CI UHF-CCSDT 
  Emily Kempfer          : AUTO-CI, RHF CISDT and CCSDT                  
  Christian Kollmar      : KDIIS, OOCD, Brueckner-CCSD(T), CCSD density, CASPT2, CASPT2-K, improved NEVPT2 
  Axel Koslowski         : Symmetry handling                             
  Simone Kossmann        : meta-GGA functionals, TD-DFT gradient, OOMP2, (MP2 Hessian; deprecated post 5.0) 
  Lucas Lang             : DCDCAS                                        
  Marvin Lechner         : AUTO-CI (C++ implementation), FIC-MRCC        
  Spencer Leger          : CASSCF response                               
  Dagmar Lenk            : GEPOL surface, SMD, ORCA-2-JSON               
  Dimitrios Liakos       : Extrapolation schemes; Compound Job, initial MDCI parallelization 
  Dimitrios Manganas     : Further ROCIS development; embedding schemes. LFT, Crystal Embedding 
  Dimitrios Pantazis     : SARC Basis sets                               
  Anastasios Papadopoulos: AUTO-CI, single reference methods and gradients 
  Taras Petrenko         : pre 6.0 DFT Hessian and TD-DFT gradient, (ASA, deprecated), ECA, 1-Electron XAS/XES, NRVS 
  Peter Pinski           : DLPNO-MP2, DLPNO-MP2 Gradient                 
  Christoph Reimann      : Effective Core Potentials                     
  Marius Retegan         : Local ZFS, SOC                                
  Christoph Riplinger    : Optimizer, TS searches, QM/MM, DLPNO-CCSD(T), (RO)-DLPNO pert. Triples 
  Michael Roemelt        : Original ROCIS implementation                 
  Masaaki Saitow         : Open-shell DLPNO-CCSD energy and density      
  Barbara Sandhoefer     : DKH picture change effects                    
  Kantharuban Sivalingam : CASSCF convergence/infrastructure, NEVPT2 and variants, FIC-MRCI 
  Bernardo de Souza      : ESD, SOC TD-DFT                               
  Georgi L. Stoychev     : AutoAux, RI-MP2 NMR, DLPNO-MP2 response, X2C  
  Van Anh Tran           : RI-MP2 g-tensors                              
  Willem Van den Heuvel  : Paramagnetic NMR                              
  Zikuan Wang            : NOTCH, Electric field optimization            
  Frank Wennmohs         : Technical directorship and infrastructure     
  Hang Xu                : AUTO-CI-Response properties                   
                                                                         
[FACCTs GmbH]                                                            
  Markus Bursch, Miquel Garcia-Rates, Christoph Riplinger, Bernardo de Souza, Georgi L. Stoychev 
                                                                 
  APM, Basis sets (HGBS, AHGBS, def-TZVP (Ac-Lr), def2-XVPD (La-Lu)), CI-OPT, improved COSX, DLPNO-Multilevel,           
  DOCKER, DRACO, updates on ESD, GOAT, IRC, LR-CPCM, MBIS, meta-GGA TD-DFT gradient, ML-optimized integration grids, 
  MM, NACMEs, nearIR, NEB, NEB-TS, NL-DFT gradient (VV10), 2- and 3-layer-ONIOM, interface openCOSMO-RS, QMMM,   
  Crystal-QMMM, SF, symmetry and pop. for TD-DFT, r2SCAN hybrids, SOLVATOR                                   
                                                                         
[Other institutions]                                                     
  V. Asgeirsson          : NEB                                           
  Christoph Bannwarth    : sTDA-DFT, sTD-DFT, PBEh-3c, B97-3c, D3        
  Sebastian Ehlert       : rSCAN, r2SCAN, r2SCAN-3c, D4, dhf basis sets  
  Marvin Friede          : D4 for Fr, Ra, Ac-Lr                          
  Lars Goerigk           : TD-DFT with DH, B97 family of functionals     
  Stefan Grimme          : VdW corrections, initial TS optimization, DFT functionals, gCP, sTDA/sTD-DF 
  Waldemar Hujo          : DFT-NL                                        
  H. Jonsson             : NEB                                           
  Holger Kruse           : gCP                                           
  Marcel Mueller         : wB97X-3c, vDZP basis set                      
  Hagen Neugebauer       : wr2SCAN                                       
  Tobias Risthaus        : range-separated hybrid DFT                    
  Lukas Wittmann         : regularized MP2, r2SCAN double-hybrids, wr2SCAN        
                                                                         
We gratefully acknowledge several colleagues who have allowed us to      
interface, adapt or use parts of their codes:                            
  Ed Valeev, F. Pavosevic, A. Kumar             : LibInt (2-el integral package), F12 methods 
  Garnet Chan, S. Sharma, J. Yang, R. Olivares  : DMRG                   
  Ulf Ekstrom                                   : XCFun DFT Library      
  Mihaly Kallay                                 : mrcc  (arbitrary order and MRCC methods)
  Frank Weinhold                                : gennbo (NPA and NBO analysis)           
  Simon Mueller                                 : openCOSMO-RS                            
  Christopher J. Cramer and Donald G. Truhlar   : smd solvation model                     
  S Lehtola, MJT Oliveira, MAL Marques          : LibXC Library                           
  Liviu Ungur et al                             : ANISO software                          


 Your calculation uses the libint2 library for the computation of 2-el integrals
 For citations please refer to: http://libint.valeyev.net

 Your ORCA version has been built with support for libXC version: 6.2.2
 For citations please refer to: https://libxc.gitlab.io

 This ORCA versions uses:
   CBLAS   interface :  Fast vector & matrix operations
   LAPACKE interface :  Fast linear algebra routines
   SCALAPACK package :  Parallel linear algebra routines
   Shared memory     :  Shared parallel matrices
   BLAS/LAPACK       :  OpenBLAS 0.3.27  USE64BITINT DYNAMIC_ARCH NO_AFFINITY Zen SINGLE_THREADED
        Core in use  :  Zen
   Copyright (c) 2011-2014, The OpenBLAS Project


Your calculation utilizes the geometrical counterpoise correction gCP
Please cite in your paper:
H.Kruse, S. Grimme J.Chem.Phys., 136, (2012), 154101 
   

Your calculation utilizes the atom-pairwise dispersion correction
based on EEQ partial charges (D4)


================================================================================

----- Orbital basis set information -----
Your calculation utilizes the basis: def2-mTZVPP
   Stefan Grimme, Andreas Hansen, Sebastian Ehlert, and Jan-Michael Mewes 
   J. Chem. Phys. 154, 064103 (2021). DOI: 10.1063/5.0040021

----- AuxJ basis set information -----
Your calculation utilizes the auxiliary basis: def2/J
   F. Weigend, Phys. Chem. Chem. Phys. 8, 1057 (2006).

================================================================================
                                        WARNINGS
                       Please study these warnings very carefully!
================================================================================

WARNING: Old DensityContainer found on disk!
         Will remove this file - 
         If you want to keep old densities, please start your calculation with a different basename. 



WARNING: SCAN, rSCAN, or r2SCAN functional requested.
  ===> : libXC variant has now been activated.



================================================================================
                                       INPUT FILE
================================================================================
NAME = sp.inp
|  1> ! r2scan-3c def2/J RI DEFGRID2 scfconv6 printgap
|  2> %output
|  3>     printlevel normal
|  4> end
|  5> * xyz 0 1
|  6> C -1.9009201331 -0.5538799653 0.0637031348
|  7> C -0.9555490841 0.4792830641 -0.519007837
|  8> S 0.6474204086 0.5350681021 0.3550478783
|  9> C 1.4421541297 -0.9792664522 -0.2786076079
| 10> H -1.4848227371 -1.5562317012 -0.0177931937
| 11> H -2.0834521398 -0.3431198698 1.1146709546
| 12> H -2.8501956232 -0.5313867964 -0.4684228857
| 13> H -1.3628830386 1.4834073621 -0.4071999147
| 14> H -0.7506800205 0.2957254491 -1.5740268035
| 15> H 1.7570226225 -1.5845034165 0.5656747557
| 16> H 2.3050928842 -0.6982723291 -0.8752760272
| 17> H 0.730499674 -1.5267067183 -0.8853143768
| 18> *
| 19> 
| 20>                          ****END OF INPUT****
================================================================================

                       ****************************
                       * Single Point Calculation *
                       ****************************

---------------------------------
CARTESIAN COORDINATES (ANGSTROEM)
---------------------------------
  C     -1.900920   -0.553880    0.063703
  C     -0.955549    0.479283   -0.519008
  S      0.647420    0.535068    0.355048
  C      1.442154   -0.979266   -0.278608
  H     -1.484823   -1.556232   -0.017793
  H     -2.083452   -0.343120    1.114671
  H     -2.850196   -0.531387   -0.468423
  H     -1.362883    1.483407   -0.407200
  H     -0.750680    0.295725   -1.574027
  H      1.757023   -1.584503    0.565675
  H      2.305093   -0.698272   -0.875276
  H      0.730500   -1.526707   -0.885314

----------------------------
CARTESIAN COORDINATES (A.U.)
----------------------------
  NO LB      ZA    FRAG     MASS         X           Y           Z
   0 C     6.0000    0    12.011   -3.592218   -1.046681    0.120381
   1 C     6.0000    0    12.011   -1.805726    0.905714   -0.980783
   2 S    16.0000    0    32.060    1.223447    1.011132    0.670943
   3 C     6.0000    0    12.011    2.725276   -1.850545   -0.526492
   4 H     1.0000    0     1.008   -2.805908   -2.940852   -0.033624
   5 H     1.0000    0     1.008   -3.937154   -0.648403    2.106423
   6 H     1.0000    0     1.008   -5.386089   -1.004176   -0.885191
   7 H     1.0000    0     1.008   -2.575476    2.803234   -0.769496
   8 H     1.0000    0     1.008   -1.418580    0.558840   -2.974480
   9 H     1.0000    0     1.008    3.320292   -2.994278    1.068970
  10 H     1.0000    0     1.008    4.355994   -1.319543   -1.654032
  11 H     1.0000    0     1.008    1.380444   -2.885058   -1.673002

--------------------------------
INTERNAL COORDINATES (ANGSTROEM)
--------------------------------
 C      0   0   0     0.000000000000     0.00000000     0.00000000
 C      1   0   0     1.516807285802     0.00000000     0.00000000
 S      2   1   0     1.826635310739   112.57681522     0.00000000
 C      3   2   1     1.823822936853   100.99884512    75.05556217
 H      1   2   3     1.088341718845   111.11685777   298.41382843
 H      1   2   3     1.087322909526   110.11618414    58.49043400
 H      1   2   3     1.088479673878   109.97868416   178.36912443
 H      2   1   3     1.089351902652   110.81611160   243.33682233
 H      2   1   3     1.090288838299   111.97365131   121.46227693
 H      4   3   2     1.085479921601   108.61015570   233.84746185
 H      4   3   2     1.086109660129   108.80008054   114.19009677
 H      4   3   2     1.083621711066   109.13630101   353.93913987

---------------------------
INTERNAL COORDINATES (A.U.)
---------------------------
 C      0   0   0     0.000000000000     0.00000000     0.00000000
 C      1   0   0     2.866350368102     0.00000000     0.00000000
 S      2   1   0     3.451840483848   112.57681522     0.00000000
 C      3   2   1     3.446525867416   100.99884512    75.05556217
 H      1   2   3     2.056667788738   111.11685777   298.41382843
 H      1   2   3     2.054742518143   110.11618414    58.49043400
 H      1   2   3     2.056928485969   109.97868416   178.36912443
 H      2   1   3     2.058576759478   110.81611160   243.33682233
 H      2   1   3     2.060347311256   111.97365131   121.46227693
 H      4   3   2     2.051259775696   108.61015570   233.84746185
 H      4   3   2     2.052449809049   108.80008054   114.19009677
 H      4   3   2     2.047748266687   109.13630101   353.93913987

---------------------
BASIS SET INFORMATION
---------------------
There are 3 groups of distinct atoms

 Group   1 Type C   : 11s6p1d contracted to 5s3p1d pattern {62111/411/1}
 Group   2 Type S   : 14s9p2d contracted to 5s4p2d pattern {73211/6111/11}
 Group   3 Type H   : 4s1p contracted to 2s1p pattern {31/1}

Atom   0C    basis set group =>   1
Atom   1C    basis set group =>   1
Atom   2S    basis set group =>   2
Atom   3C    basis set group =>   1
Atom   4H    basis set group =>   3
Atom   5H    basis set group =>   3
Atom   6H    basis set group =>   3
Atom   7H    basis set group =>   3
Atom   8H    basis set group =>   3
Atom   9H    basis set group =>   3
Atom  10H    basis set group =>   3
Atom  11H    basis set group =>   3
---------------------------------
AUXILIARY/J BASIS SET INFORMATION
---------------------------------
There are 3 groups of distinct atoms

 Group   1 Type C   : 12s5p4d2f1g contracted to 6s4p3d1f1g pattern {711111/2111/211/2/1}
 Group   2 Type S   : 14s5p5d2f1g contracted to 8s4p3d1f1g pattern {71111111/2111/311/2/1}
 Group   3 Type H   : 5s2p1d contracted to 3s1p1d pattern {311/2/1}

Atom   0C    basis set group =>   1
Atom   1C    basis set group =>   1
Atom   2S    basis set group =>   2
Atom   3C    basis set group =>   1
Atom   4H    basis set group =>   3
Atom   5H    basis set group =>   3
Atom   6H    basis set group =>   3
Atom   7H    basis set group =>   3
Atom   8H    basis set group =>   3
Atom   9H    basis set group =>   3
Atom  10H    basis set group =>   3
Atom  11H    basis set group =>   3

Checking for AutoStart:
The File: sp.gbw exists
Trying to determine its content:
     ... Fine, the file contains calculation information
     ... Fine, the calculation information was read
     ... Fine, the file contains a basis set
     ... Fine, the basis set was read
     ... Fine, the file contains a geometry
     ... Fine, the geometry was read
     ... Fine, the file contains a set of orbitals
     ... Fine, the orbitals can be read
     => possible old guess file was deleted
     => GBW file was renamed to GES file
     => GES file is set as startup file
     => Guess is set to MORead
     ... now leaving AutoStart

------------------------------------------------------------------------------
                             ORCA STARTUP CALCULATIONS
                           -- RI-GTO INTEGRALS CHOSEN --
------------------------------------------------------------------------------
------------------------------------------------------------------------------
                   ___                                                        
                  /   \      - P O W E R E D   B Y -                         
                 /     \                                                     
                 |  |  |   _    _      __       _____    __    __             
                 |  |  |  | |  | |    /  \     |  _  \  |  |  /  |          
                  \  \/   | |  | |   /    \    | | | |  |  | /  /          
                 / \  \   | |__| |  /  /\  \   | |_| |  |  |/  /          
                |  |  |   |  __  | /  /__\  \  |    /   |      \           
                |  |  |   | |  | | |   __   |  |    \   |  |\   \          
                \     /   | |  | | |  |  |  |  | |\  \  |  | \   \       
                 \___/    |_|  |_| |__|  |__|  |_| \__\ |__|  \__/        
                                                                              
                      - O R C A' S   B I G   F R I E N D -                    
                                      &                                       
                       - I N T E G R A L  F E E D E R -                       
                                                                              
 v1 FN, 2020, v2 2021, v3 2022-2024                                           
------------------------------------------------------------------------------


----------------------
SHARK INTEGRAL PACKAGE
----------------------

Number of atoms                             ...     12
Number of basis functions                   ...    124
Number of shells                            ...     62
Maximum angular momentum                    ...      2
Integral batch strategy                     ... SHARK/LIBINT Hybrid
RI-J (if used) integral strategy            ... SPLIT-RIJ (Revised 2003 algorithm where possible)
Printlevel                                  ...      1
Contraction scheme used                     ... SEGMENTED contraction
Prescreening option                         ... SCHWARTZ
   Thresh                                   ... 1.000e-10
   Tcut                                     ... 1.000e-11
   Tpresel                                  ... 1.000e-11 
Coulomb Range Separation                    ... NOT USED
Exchange Range Separation                   ... NOT USED
Multipole approximations                    ... NOT USED
Finite Nucleus Model                        ... NOT USED
CABS basis                                  ... NOT available
Auxiliary Coulomb fitting basis             ... AVAILABLE
   # of basis functions in Aux-J            ...    286
   # of shells in Aux-J                     ...    102
   Maximum angular momentum in Aux-J        ...      4
Auxiliary J/K fitting basis                 ... NOT available
Auxiliary Correlation fitting basis         ... NOT available
Auxiliary 'external' fitting basis          ... NOT available

Checking pre-screening integrals            ... done (  0.0 sec) Dimension = 62
Check shell pair data                       ... done (  0.0 sec)
Shell pair information
Shell pair cut-off parameter TPreSel        ...   1.0e-11
Total number of shell pairs                 ...      1953
Shell pairs after pre-screening             ...      1868
Total number of primitive shell pairs       ...      7270
Primitive shell pairs kept                  ...      5252
          la=0 lb=0:    628 shell pairs
          la=1 lb=0:    720 shell pairs
          la=1 lb=1:    222 shell pairs
          la=2 lb=0:    178 shell pairs
          la=2 lb=1:    105 shell pairs
          la=2 lb=2:     15 shell pairs

Calculating one electron integrals          ... done (  0.0 sec)
Calculating RI/J V-Matrix + Cholesky decomp.... done (  0.0 sec)
Calculating Nuclear repulsion               ... done (  0.0 sec) ENN=    170.840211044711 Eh

Diagonalization of the overlap matrix:
Smallest eigenvalue                        ... 5.566e-04
Time for diagonalization                   ...    0.001 sec
Threshold for overlap eigenvalues          ... 1.000e-07
Number of eigenvalues below threshold      ... 0
Time for construction of square roots      ...    0.000 sec
Total time needed                          ...    0.002 sec

-------------------
DFT GRID GENERATION
-------------------

General Integration Accuracy     IntAcc      ... 4.388
Radial Grid Type                 RadialGrid  ... OptM3 with GC (2021)
Angular Grid (max. ang.)         AngularGrid ... 4 (Lebedev-302)
Angular grid pruning method      GridPruning ... 4 (adaptive)
Weight generation scheme         WeightScheme... mBecke (2022)
Basis function cutoff            BFCut       ... 1.0000e-10
Integration weight cutoff        WCut        ... 1.0000e-14
Partially contracted basis set               ... off
Rotationally invariant grid construction     ... off
Angular grids for H and He will be reduced by one unit

Total number of grid points                  ...    51358
Total number of batches                      ...      809
Average number of points per batch           ...       63
Average number of grid points per atom       ...     4280
Initializing property integral containers    ... done (  0.0 sec)

SHARK setup successfully completed in   0.3 seconds

Maximum memory used throughout the entire STARTUP-calculation: 22.9 MB
-------------------------------------------------------------------------------
                                 ORCA GUESS
                   Start orbitals & Density for SCF / CASSCF
-------------------------------------------------------------------------------

------------
SCF SETTINGS
------------
Hamiltonian:
 Density Functional     Method          .... DFT(GTOs)
  Functional kind                       .... Exchange
  Functional name                       .... Re-regularized SCAN exchange by Furness et al
  Functional family                     .... MGGA
  Functional refs                              
    [ 0] J. W. Furness, A. D. Kaplan, J. Ning, J. P. Perdew, and J. Sun.,  J. Phys. Chem. Lett. 11, 8208-8215 (2020), doi: 10.1021/acs.jpclett.0c02405
    [ 1] J. W. Furness, A. D. Kaplan, J. Ning, J. P. Perdew, and J. Sun.,  J. Phys. Chem. Lett. 11, 9248-9248 (2020), doi: 10.1021/acs.jpclett.0c03077
  Functional external parameters        .... 6
    Parameter  0 _c1        =  6.670000e-01 : c1 parameter        
    Parameter  1 _c2        =  8.000000e-01 : c2 parameter        
    Parameter  2 _d         =  1.240000e+00 : d parameter         
    Parameter  3 _k1        =  6.500000e-02 : k1 parameter        
    Parameter  4 _eta       =  1.000000e-03 : eta parameter       
    Parameter  5 _dp2       =  3.610000e-01 : dp2 parameter       
  Functional kind                       .... Correlation
  Functional name                       .... Re-regularized SCAN correlation by Furness et al
  Functional family                     .... MGGA
  Functional refs                              
    [ 0] J. W. Furness, A. D. Kaplan, J. Ning, J. P. Perdew, and J. Sun.,  J. Phys. Chem. Lett. 11, 8208-8215 (2020), doi: 10.1021/acs.jpclett.0c02405
    [ 1] J. W. Furness, A. D. Kaplan, J. Ning, J. P. Perdew, and J. Sun.,  J. Phys. Chem. Lett. 11, 9248-9248 (2020), doi: 10.1021/acs.jpclett.0c03077
  Functional external parameters        .... 1
    Parameter  0 _eta       =  1.000000e-03 : Regularization parameter
 Gradients option       PostSCFGGA      .... off
 RI-approximation to the Coulomb term is turned on
   Number of AuxJ basis functions       .... 286


General Settings:
 Integral files         IntName         .... sp
 Hartree-Fock type      HFTyp           .... RHF
 Total Charge           Charge          ....    0
 Multiplicity           Mult            ....    1
 Number of Electrons    NEL             ....   42
 Basis Dimension        Dim             ....  124
 Nuclear Repulsion      ENuc            ....    170.8402110447 Eh

Convergence Acceleration:
 AO-DIIS                CNVDIIS         .... on
   Start iteration      DIISMaxIt       ....    12
   Startup error        DIISStart       ....  0.200000
   # of expansion vecs  DIISMaxEq       ....     5
   Bias factor          DIISBfac        ....   1.050
   Max. coefficient     DIISMaxC        ....  10.000
 MO-DIIS                CNVKDIIS        .... off
 Trust-Rad. Augm. Hess. CNVTRAH         .... auto
   Auto Start mean grad. ratio tolernc. ....  1.125000
   Auto Start start iteration           ....     1
   Auto Start num. interpolation iter.  ....    10
   Max. Number of Micro iterations      ....    24
   Max. Number of Macro iterations      .... Maxiter - #DIIS iter
   Number of Davidson start vectors     ....     2
   Converg. threshold    (grad. norm)   ....   3.330e-04
   Grad. Scal. Fac. for Micro threshold ....   0.100
   Minimum threshold for Micro iter.    ....   1.000e-02
   NR start threshold (gradient norm)   ....   1.000e-04
   Initial trust radius                 ....   0.400
   Minimum AH scaling param. (alpha)    ....   1.000
   Maximum AH scaling param. (alpha)    .... 1000.000
   Quad. conv. algorithm                .... NR
   White noise on init. David. guess    .... on
   Maximum white noise                  ....   0.010
   Pseudo random numbers                .... off
   Inactive MOs                         .... canonical
   Orbital update algorithm             .... Taylor
   Preconditioner                       .... Diag
   Full preconditioner red. dimension   ....   250
   COSX micro iterations for RIJONX calc.... off
 SOSCF                  CNVSOSCF        .... on
   Start iteration      SOSCFMaxIt      ....   150
   Startup grad/error   SOSCFStart      ....  0.003300
   Hessian update       SOSCFHessUp     .... L-BFGS
 Level Shifting         CNVShift        .... on
   Level shift para.    LevelShift      ....    0.2500
   Turn off err/grad.   ShiftErr        ....    0.0010
 Zerner damping         CNVZerner       .... off
 Static damping         CNVDamp         .... on
   Fraction old density DampFac         ....    0.7000
   Max. Damping (<1)    DampMax         ....    0.9800
   Min. Damping (>=0)   DampMin         ....    0.0000
   Turn off err/grad.   DampErr         ....    0.1000

SCF Procedure:
 Maximum # iterations   MaxIter         ....   125
 SCF integral mode      SCFMode         .... Direct
   Integral package                     .... SHARK and LIBINT hybrid scheme
 Reset frequency        DirectResetFreq ....    20
 Integral Threshold     Thresh          ....  1.000e-10 Eh
 Primitive CutOff       TCut            ....  1.000e-11 Eh

Convergence Tolerance:
 Convergence Check Mode ConvCheckMode   .... Total+1el-Energy
 Convergence forced     ConvForced      .... 0
 Energy Change          TolE            ....  1.000e-06 Eh
 1-El. energy change                    ....  1.000e-03 Eh
 Orbital Gradient       TolG            ....  3.330e-04
 Orbital Rotation angle TolX            ....  3.330e-04
 DIIS Error             TolErr          ....  1.000e-06

---------------------
INITIAL GUESS: MOREAD
---------------------
Guess MOs are being read from file: sp.ges
Input Geometry matches current geometry (good)
Atom 0: N(Shells)= 9 and 6 - projection required
Input basis set needs projection
NBasis(read)= 76
NBasis(calc)= 124
Basis set overlap was calculated
Using GuessMode=FMatrix for the initial guess
C*T matrix was formed
Effective Fockian was calculated
Effective Fockian was diagonalized
Initial density was built
                      ------------------
                      INITIAL GUESS DONE (   0.0 sec)
                      ------------------
             **** ENERGY FILE WAS UPDATED (sp.en.tmp) ****
Finished Guess after   0.0 sec
Maximum memory used throughout the entire GUESS-calculation: 9.1 MB

-------------------------------------------------------------------------------------------
                                      ORCA LEAN-SCF
                              memory conserving SCF solver
-------------------------------------------------------------------------------------------

----------------------------------------D-I-I-S--------------------------------------------
Iteration    Energy (Eh)           Delta-E    RMSDP     MaxDP     DIISErr   Damp  Time(sec)
-------------------------------------------------------------------------------------------
               ***  Starting incremental Fock matrix formation  ***
    1    -517.1697029056354040     0.00e+00  3.19e-03  7.85e-02  4.64e-01  0.700   0.4
    2    -517.1961625518047185    -2.65e-02  2.66e-03  5.44e-02  3.25e-01  0.700   0.4
    3    -517.2149218631798249    -1.88e-02  1.97e-03  3.76e-02  2.27e-01  0.700   0.4
                               ***Turning on AO-DIIS***
    4    -517.2281003970331312    -1.32e-02  1.46e-03  2.70e-02  1.59e-01  0.700   0.4
    5    -517.2373476806471899    -9.25e-03  1.04e-03  1.95e-02  1.11e-01  0.700   0.4
    6    -517.2438333026682358    -6.49e-03  7.41e-04  1.39e-02  7.80e-02  0.700   0.4
    7    -517.2483799753497351    -4.55e-03  1.74e-03  3.28e-02  5.46e-02  0.000   0.4
                              *** Initializing SOSCF ***
---------------------------------------S-O-S-C-F--------------------------------------
Iteration    Energy (Eh)           Delta-E    RMSDP     MaxDP     MaxGrad    Time(sec)
--------------------------------------------------------------------------------------
    8    -517.2590105381211742    -1.06e-02  1.49e-05  4.21e-04  1.49e-04     0.4
               *** Restarting incremental Fock matrix formation ***
    9    -517.2590106413908870    -1.03e-07  1.13e-05  1.74e-04  4.50e-05     0.4
                  *** Gradient check signals convergence ***

               *****************************************************
               *                     SUCCESS                       *
               *           SCF CONVERGED AFTER   9 CYCLES          *
               *****************************************************

             **** ENERGY FILE WAS UPDATED (sp.en.tmp) ****

----------------
TOTAL SCF ENERGY
----------------

Total Energy       :       -517.25901064139089 Eh          -14075.33326 eV

Components:
Nuclear Repulsion  :        170.84021104471134 Eh            4648.79848 eV
Electronic Energy  :       -688.09922168610217 Eh          -18724.13174 eV
One Electron Energy:      -1048.13031499084332 Eh          -28521.07585 eV
Two Electron Energy:        360.03109330474115 Eh            9796.94412 eV

Virial components:
Potential Energy   :      -1032.93210421636445 Eh          -28107.51151 eV
Kinetic Energy     :        515.67309357497356 Eh           14032.17826 eV
Virial Ratio       :          2.00307543109419

DFT components:
N(Alpha)           :       21.000019700949 electrons
N(Beta)            :       21.000019700949 electrons
N(Total)           :       42.000039401899 electrons
E(X)               :      -43.478952059499 Eh       
E(C)               :       -1.402160130033 Eh       
E(XC)              :      -44.881112189533 Eh       

---------------
SCF CONVERGENCE
---------------

  Last Energy change         ...    1.0327e-07  Tolerance :   1.0000e-06
  Last MAX-Density change    ...    1.7424e-04  Tolerance :   1.0000e-05
  Last RMS-Density change    ...    1.1293e-05  Tolerance :   1.0000e-06
  Last DIIS Error            ...    1.4942e-04  Tolerance :   1.0000e-06
  Last Orbital Gradient      ...    4.5028e-05  Tolerance :   3.3300e-04
  Last Orbital Rotation      ...    1.3264e-04  Tolerance :   3.3300e-04


----------------
ORBITAL ENERGIES
----------------

  NO   OCC          E(Eh)            E(eV) 
   0   2.0000     -88.542472     -2409.3631 
   1   2.0000     -10.061342      -273.7830 
   2   2.0000     -10.053012      -273.5564 
   3   2.0000     -10.025925      -272.8193 
   4   2.0000      -7.836424      -213.2399 
   5   2.0000      -5.784175      -157.3954 
   6   2.0000      -5.780156      -157.2860 
   7   2.0000      -5.772769      -157.0850 
   8   2.0000      -0.772785       -21.0286 
   9   2.0000      -0.706325       -19.2201 
  10   2.0000      -0.621865       -16.9218 
  11   2.0000      -0.544883       -14.8270 
  12   2.0000      -0.437734       -11.9114 
  13   2.0000      -0.414822       -11.2879 
  14   2.0000      -0.394592       -10.7374 
  15   2.0000      -0.376746       -10.2518 
  16   2.0000      -0.361877        -9.8472 
  17   2.0000      -0.339273        -9.2321 
  18   2.0000      -0.316887        -8.6229 
  19   2.0000      -0.275261        -7.4902 
  20   2.0000      -0.188015        -5.1162 
  21   0.0000       0.022677         0.6171 
  22   0.0000       0.046964         1.2780 
  23   0.0000       0.085194         2.3182 
  24   0.0000       0.120016         3.2658 
  25   0.0000       0.136687         3.7194 
  26   0.0000       0.144539         3.9331 
  27   0.0000       0.153912         4.1881 
  28   0.0000       0.164692         4.4815 
  29   0.0000       0.181253         4.9321 
  30   0.0000       0.187045         5.0898 
  31   0.0000       0.197061         5.3623 
*Only the first 10 virtual orbitals were printed.

                    ********************************
                    * MULLIKEN POPULATION ANALYSIS *
                    ********************************

-----------------------
MULLIKEN ATOMIC CHARGES
-----------------------
   0 C :   -0.411261
   1 C :   -0.253467
   2 S :   -0.135418
   3 C :   -0.419157
   4 H :    0.135614
   5 H :    0.156637
   6 H :    0.139974
   7 H :    0.152662
   8 H :    0.154216
   9 H :    0.163135
  10 H :    0.167054
  11 H :    0.150012
Sum of atomic charges:   -0.0000000

--------------------------------
MULLIKEN REDUCED ORBITAL CHARGES
--------------------------------
  0 C s       :     3.293241  s :     3.293241
      pz      :     1.070719  p :     3.090972
      px      :     1.010279
      py      :     1.009974
      dz2     :     0.007010  d :     0.027047
      dxz     :     0.005291
      dyz     :     0.002471
      dx2y2   :     0.006871
      dxy     :     0.005404

  1 C s       :     3.212345  s :     3.212345
      pz      :     1.022669  p :     3.004346
      px      :     0.910396
      py      :     1.071281
      dz2     :     0.010084  d :     0.036776
      dxz     :     0.007218
      dyz     :     0.002884
      dx2y2   :     0.008593
      dxy     :     0.007997

  2 S s       :     5.878450  s :     5.878450
      pz      :     3.666634  p :    10.157566
      px      :     3.127314
      py      :     3.363617
      dz2     :     0.012942  d :     0.099402
      dxz     :     0.022590
      dyz     :     0.017399
      dx2y2   :     0.023987
      dxy     :     0.022484

  3 C s       :     3.286524  s :     3.286524
      pz      :     1.077478  p :     3.107297
      px      :     1.061228
      py      :     0.968591
      dz2     :     0.002081  d :     0.025336
      dxz     :     0.006975
      dyz     :     0.006482
      dx2y2   :     0.004799
      dxy     :     0.005001

  4 H s       :     0.845978  s :     0.845978
      pz      :     0.003738  p :     0.018408
      px      :     0.004622
      py      :     0.010047

  5 H s       :     0.825125  s :     0.825125
      pz      :     0.010768  p :     0.018239
      px      :     0.003687
      py      :     0.003784

  6 H s       :     0.841683  s :     0.841683
      pz      :     0.005292  p :     0.018343
      px      :     0.009389
      py      :     0.003662

  7 H s       :     0.829068  s :     0.829068
      pz      :     0.003534  p :     0.018270
      px      :     0.004546
      py      :     0.010189

  8 H s       :     0.827606  s :     0.827606
      pz      :     0.010868  p :     0.018179
      px      :     0.003752
      py      :     0.003558

  9 H s       :     0.818402  s :     0.818402
      pz      :     0.008279  p :     0.018463
      px      :     0.004215
      py      :     0.005969

 10 H s       :     0.814539  s :     0.814539
      pz      :     0.005933  p :     0.018407
      px      :     0.008388
      py      :     0.004086

 11 H s       :     0.830998  s :     0.830998
      pz      :     0.006255  p :     0.018990
      px      :     0.006894
      py      :     0.005842


------------------------
MULLIKEN OVERLAP CHARGES
------------------------
B(  0-C ,  1-C ) :   0.4153 B(  0-C ,  2-S ) :  -0.1632 B(  0-C ,  4-H ) :   0.8300 
B(  0-C ,  5-H ) :   0.8409 B(  0-C ,  6-H ) :   0.7773 B(  0-C ,  7-H ) :  -0.0672 
B(  0-C ,  8-H ) :  -0.0853 B(  1-C ,  2-S ) :   0.4915 B(  1-C ,  3-C ) :  -0.0888 
B(  1-C ,  4-H ) :  -0.0763 B(  1-C ,  5-H ) :  -0.0816 B(  1-C ,  6-H ) :  -0.0601 
B(  1-C ,  7-H ) :   0.8001 B(  1-C ,  8-H ) :   0.8357 B(  2-S ,  3-C ) :   0.4332 
B(  2-S ,  7-H ) :  -0.0572 B(  2-S ,  8-H ) :  -0.0909 B(  2-S ,  9-H ) :  -0.0771 
B(  2-S , 10-H ) :  -0.0886 B(  2-S , 11-H ) :  -0.0598 B(  3-C ,  9-H ) :   0.8037 
B(  3-C , 10-H ) :   0.8165 B(  3-C , 11-H ) :   0.8096 


                     *******************************
                     * LOEWDIN POPULATION ANALYSIS *
                     *******************************

----------------------
LOEWDIN ATOMIC CHARGES
----------------------
   0 C :   -0.431473
   1 C :   -0.369511
   2 S :    0.003489
   3 C :   -0.463186
   4 H :    0.149325
   5 H :    0.157319
   6 H :    0.150102
   7 H :    0.167755
   8 H :    0.158260
   9 H :    0.159272
  10 H :    0.157337
  11 H :    0.161309

-------------------------------
LOEWDIN REDUCED ORBITAL CHARGES
-------------------------------
  0 C s       :     2.984439  s :     2.984439
      pz      :     1.151913  p :     3.383039
      px      :     1.113487
      py      :     1.117639
      dz2     :     0.017080  d :     0.063995
      dxz     :     0.012573
      dyz     :     0.005450
      dx2y2   :     0.015735
      dxy     :     0.013156

  1 C s       :     2.974491  s :     2.974491
      pz      :     1.118365  p :     3.312790
      px      :     1.068509
      py      :     1.125917
      dz2     :     0.023450  d :     0.082230
      dxz     :     0.016100
      dyz     :     0.005717
      dx2y2   :     0.018283
      dxy     :     0.018679

  2 S s       :     5.447138  s :     5.447138
      pz      :     3.660604  p :    10.225057
      px      :     3.172683
      py      :     3.391769
      dz2     :     0.047392  d :     0.324317
      dxz     :     0.068402
      dyz     :     0.046649
      dx2y2   :     0.080653
      dxy     :     0.081221

  3 C s       :     3.014790  s :     3.014790
      pz      :     1.151971  p :     3.385171
      px      :     1.135597
      py      :     1.097604
      dz2     :     0.004253  d :     0.063224
      dxz     :     0.018060
      dyz     :     0.016978
      dx2y2   :     0.011360
      dxy     :     0.012574

  4 H s       :     0.807272  s :     0.807272
      pz      :     0.008190  p :     0.043403
      px      :     0.010705
      py      :     0.024508

  5 H s       :     0.799045  s :     0.799045
      pz      :     0.027093  p :     0.043636
      px      :     0.008035
      py      :     0.008508

  6 H s       :     0.806132  s :     0.806132
      pz      :     0.012543  p :     0.043766
      px      :     0.023125
      py      :     0.008098

  7 H s       :     0.788725  s :     0.788725
      pz      :     0.008023  p :     0.043520
      px      :     0.010245
      py      :     0.025251

  8 H s       :     0.797438  s :     0.797438
      pz      :     0.027177  p :     0.044302
      px      :     0.008686
      py      :     0.008438

  9 H s       :     0.796410  s :     0.796410
      pz      :     0.020487  p :     0.044317
      px      :     0.009546
      py      :     0.014285

 10 H s       :     0.798259  s :     0.798259
      pz      :     0.014379  p :     0.044404
      px      :     0.020880
      py      :     0.009145

 11 H s       :     0.793539  s :     0.793539
      pz      :     0.014801  p :     0.045152
      px      :     0.016780
      py      :     0.013572


---------------------------------
LOEWDIN BOND ORDERS (THRESH 0.050000)
---------------------------------
B(  0-C ,  1-C ) :   1.1395 B(  0-C ,  2-S ) :   0.1340 B(  0-C ,  4-H ) :   0.9287 
B(  0-C ,  5-H ) :   0.9289 B(  0-C ,  6-H ) :   0.9220 B(  1-C ,  2-S ) :   1.3462 
B(  1-C ,  3-C ) :   0.0628 B(  1-C ,  7-H ) :   0.8795 B(  1-C ,  8-H ) :   0.8820 
B(  2-S ,  3-C ) :   1.3501 B(  2-S ,  7-H ) :   0.0583 B(  2-S ,  8-H ) :   0.0625 
B(  2-S ,  9-H ) :   0.0619 B(  2-S , 10-H ) :   0.0663 B(  2-S , 11-H ) :   0.0580 
B(  3-C ,  9-H ) :   0.9198 B(  3-C , 10-H ) :   0.9191 B(  3-C , 11-H ) :   0.9113 


------------------------------------------
LOEWDIN REDUCED ORBITAL POPULATIONS PER MO
-------------------------------------------
THRESHOLD FOR PRINTING IS 0.1%%
                      0         1         2         3         4         5   
                 -88.54247 -10.06134 -10.05301 -10.02593  -7.83642  -5.78418
                   2.00000   2.00000   2.00000   2.00000   2.00000   2.00000
                  --------  --------  --------  --------  --------  --------
 0 C  s               0.0       0.0       0.0      99.7       0.0       0.0
 1 C  s               0.0      99.7       0.0       0.0       0.0       0.0
 1 C  px              0.0       0.0       0.0       0.0       0.1       0.0
 2 S  s             100.0       0.0       0.0       0.0      99.6       0.0
 2 S  pz              0.0       0.0       0.0       0.0       0.0       0.5
 2 S  px              0.0       0.0       0.0       0.0       0.0      69.7
 2 S  py              0.0       0.0       0.0       0.0       0.0      29.8
 3 C  s               0.0       0.0      99.7       0.0       0.0       0.0
 3 C  py              0.0       0.0       0.0       0.0       0.1       0.0

                      6         7         8         9        10        11   
                  -5.78016  -5.77277  -0.77279  -0.70632  -0.62186  -0.54488
                   2.00000   2.00000   2.00000   2.00000   2.00000   2.00000
                  --------  --------  --------  --------  --------  --------
 0 C  s               0.0       0.0      12.2      16.2      16.0       3.5
 0 C  pz              0.0       0.0       0.3       0.1       0.2       2.7
 0 C  px              0.0       0.0       1.7       0.1       1.5       0.9
 0 C  py              0.0       0.0       1.3       0.3       1.8       3.3
 1 C  s               0.0       0.0      25.4       6.8       5.3       9.7
 1 C  pz              0.0       0.0       1.1       0.0       0.0       7.6
 1 C  px              0.0       0.0       0.9       5.6       6.9       2.4
 1 C  py              0.0       0.0       0.5       0.6       4.8       1.8
 1 C  dxz             0.0       0.0       0.0       0.1       0.1       0.1
 1 C  dx2y2           0.0       0.0       0.0       0.0       0.0       0.1
 2 S  s               0.0       0.0      21.1       7.8      10.7      22.1
 2 S  pz             43.6      55.8       1.3       0.1       0.2       1.6
 2 S  px             13.6      16.7       1.1       3.7       2.9       0.7
 2 S  py             42.8      27.5       0.9       2.4       2.3       0.2
 2 S  dz2             0.0       0.0       0.1       0.0       0.1       0.0
 2 S  dxz             0.0       0.0       0.4       0.5       0.7       0.4
 2 S  dyz             0.0       0.0       0.1       0.3       0.2       0.1
 2 S  dx2y2           0.0       0.0       0.2       1.0       0.6       0.1
 2 S  dxy             0.0       0.0       0.1       0.7       0.1       0.3
 3 C  s               0.0       0.0      10.5      25.0      10.6       3.7
 3 C  pz              0.0       0.0       0.2       0.1       0.2       2.2
 3 C  px              0.0       0.0       1.0       0.0       0.8       1.2
 3 C  py              0.0       0.0       1.8       0.4       2.7       6.8
 3 C  dxy             0.0       0.0       0.0       0.0       0.0       0.1
 4 H  s               0.0       0.0       1.6       2.8       5.1       2.3
 4 H  py              0.0       0.0       0.1       0.2       0.3       0.1
 5 H  s               0.0       0.0       1.6       2.9       4.4       2.5
 5 H  pz              0.0       0.0       0.1       0.2       0.3       0.1
 6 H  s               0.0       0.0       1.6       3.2       5.1       1.2
 6 H  pz              0.0       0.0       0.0       0.1       0.1       0.0
 6 H  px              0.0       0.0       0.1       0.2       0.3       0.0
 7 H  s               0.0       0.0       3.5       1.5       2.1       6.1
 7 H  py              0.0       0.0       0.3       0.1       0.1       0.3
 8 H  s               0.0       0.0       3.5       1.1       1.6       7.0
 8 H  pz              0.0       0.0       0.3       0.1       0.1       0.4
 9 H  s               0.0       0.0       1.4       4.8       3.7       2.0
 9 H  pz              0.0       0.0       0.1       0.2       0.2       0.1
 9 H  py              0.0       0.0       0.0       0.1       0.1       0.0
10 H  s               0.0       0.0       1.4       4.8       3.4       2.3
10 H  pz              0.0       0.0       0.0       0.1       0.1       0.0
10 H  px              0.0       0.0       0.1       0.3       0.2       0.1
11 H  s               0.0       0.0       1.7       4.6       3.5       3.0
11 H  pz              0.0       0.0       0.0       0.1       0.1       0.0
11 H  px              0.0       0.0       0.1       0.2       0.1       0.1

                     12        13        14        15        16        17   
                  -0.43773  -0.41482  -0.39459  -0.37675  -0.36188  -0.33927
                   2.00000   2.00000   2.00000   2.00000   2.00000   2.00000
                  --------  --------  --------  --------  --------  --------
 0 C  s               0.0       0.1       0.1       0.1       0.3       0.0
 0 C  pz              5.7      11.2       2.0       1.1       2.3      30.9
 0 C  px              3.9      10.0       1.9      23.0       1.2       0.7
 0 C  py              9.8       0.1       0.1       0.2      28.9       1.3
 0 C  dz2             0.0       0.0       0.0       0.0       0.0       0.6
 0 C  dxz             0.0       0.1       0.0       0.2       0.0       0.1
 0 C  dxy             0.0       0.0       0.0       0.0       0.3       0.0
 1 C  s               0.0       0.0       0.2       0.7       0.3       0.0
 1 C  pz             10.9      14.4       0.1       0.9       3.0      11.2
 1 C  px              5.5       1.7       1.1       0.1      10.2       0.9
 1 C  py             16.8       0.1       1.8       6.7      12.0       0.0
 1 C  dz2             0.1       0.0       0.0       0.0       0.0       0.3
 1 C  dxz             0.0       0.0       0.0       0.0       0.1       0.2
 1 C  dxy             0.0       0.0       0.0       0.0       0.1       0.1
 2 S  s               0.3       1.2       0.0       0.5       0.1       1.3
 2 S  pz              2.1       0.0       4.5       0.0       0.1       2.3
 2 S  px              0.1      12.7       0.1       0.0       1.9       2.5
 2 S  py              1.7       0.2       2.6       0.0       7.2       5.4
 2 S  dz2             0.4       0.2       0.4       0.1       0.1       0.2
 2 S  dxz             0.2       0.1       0.3       0.0       0.4       0.1
 2 S  dyz             0.4       0.0       0.4       0.0       0.5       0.0
 2 S  dx2y2           0.3       0.0       0.3       1.2       0.1       0.1
 2 S  dxy             1.0       0.4       0.0       0.0       0.3       0.0
 3 C  s               0.2       0.0       0.0       0.0       0.1       0.1
 3 C  pz              2.0       1.4      44.7       0.1       1.0       2.2
 3 C  px              8.1       7.4       0.6      25.5       4.5       1.3
 3 C  py              0.0      12.5       5.3       3.9       5.2       2.9
 3 C  dxz             0.0       0.1       0.1       0.2       0.0       0.0
 3 C  dyz             0.1       0.0       0.1       0.1       0.1       0.0
 3 C  dxy             0.0       0.0       0.2       0.0       0.0       0.0
 4 H  s               4.7       0.2       0.0       1.6      10.5       2.0
 4 H  pz              0.0       0.1       0.0       0.0       0.0       0.2
 4 H  px              0.0       0.1       0.0       0.0       0.2       0.0
 4 H  py              0.1       0.0       0.0       0.1       0.1       0.0
 5 H  s               3.5       2.3       1.3       0.0       0.3      19.2
 5 H  pz              0.1       0.0       0.0       0.0       0.0       0.2
 5 H  px              0.0       0.1       0.0       0.2       0.0       0.0
 5 H  py              0.0       0.0       0.0       0.0       0.3       0.0
 6 H  s               0.2       8.1       0.2      10.7       0.0       2.5
 6 H  pz              0.0       0.0       0.0       0.1       0.0       0.1
 6 H  px              0.0       0.2       0.0       0.1       0.0       0.2
 6 H  py              0.0       0.0       0.0       0.0       0.2       0.0
 7 H  s               8.6       0.0       0.1       1.5       1.6       0.2
 7 H  px              0.0       0.0       0.0       0.0       0.2       0.0
 7 H  py              0.3       0.0       0.0       0.0       0.0       0.0
 8 H  s               6.4       4.0       0.1       0.0       1.3       8.4
 8 H  pz              0.2       0.1       0.0       0.0       0.0       0.1
 8 H  py              0.0       0.0       0.0       0.0       0.1       0.0
 9 H  s               2.1       0.0      17.2       0.2       3.9       0.0
 9 H  px              0.0       0.1       0.1       0.2       0.0       0.0
 9 H  py              0.0       0.1       0.2       0.1       0.0       0.0
10 H  s               1.3       1.9      10.7       9.6       0.2       1.0
10 H  pz              0.1       0.1       0.0       0.2       0.0       0.0
10 H  px              0.0       0.0       0.4       0.0       0.0       0.0
11 H  s               2.3       7.9       2.0      10.0       0.3       0.5
11 H  pz              0.0       0.1       0.1       0.2       0.0       0.0
11 H  px              0.0       0.1       0.1       0.0       0.0       0.0
11 H  py              0.1       0.0       0.1       0.1       0.1       0.0

                     18        19        20        21        22        23   
                  -0.31689  -0.27526  -0.18802   0.02268   0.04696   0.08519
                   2.00000   2.00000   2.00000   0.00000   0.00000   0.00000
                  --------  --------  --------  --------  --------  --------
 0 C  s               0.0       0.0       0.9       0.1       0.2      15.3
 0 C  pz              0.0       0.9       0.1       0.3       0.2       0.4
 0 C  px              7.1       2.3       1.4       0.8       0.3       0.6
 0 C  py              7.1       0.7       1.0       0.4       0.2       1.9
 0 C  dz2             0.1       0.1       0.0       0.2       0.0       0.0
 0 C  dxz             0.0       0.1       0.0       0.0       0.0       0.2
 0 C  dyz             0.0       0.0       0.0       0.0       0.1       0.2
 0 C  dx2y2           0.5       0.1       0.0       0.1       0.1       0.1
 0 C  dxy             0.1       0.0       0.0       0.1       0.2       0.2
 1 C  s               0.0       0.5       0.1       5.1       1.9      10.4
 1 C  pz              0.0       5.8       0.8       2.0       4.7       2.7
 1 C  px             11.1       6.3       0.5       6.1       8.3       0.7
 1 C  py             10.0       0.8       0.5       1.0       0.5       0.3
 1 C  dz2             0.1       0.2       0.3       0.1       0.2       0.1
 1 C  dxz             0.0       0.1       0.1       0.2       0.3       0.1
 1 C  dyz             0.0       0.0       0.0       0.0       0.2       0.1
 1 C  dx2y2           0.6       0.0       0.0       0.1       0.5       0.1
 1 C  dxy             0.2       0.1       0.2       0.2       0.1       0.2
 2 S  s               0.3       7.3       0.0       0.0      12.3       2.9
 2 S  pz              0.1      23.4      47.4       0.5       8.6       0.3
 2 S  px             10.0       9.2      13.8      24.1       1.1       0.3
 2 S  py              4.0      19.6      23.0       8.0      11.3       0.3
 2 S  dz2             0.2       0.3       0.2       0.1       2.4       0.1
 2 S  dxz             0.3       0.1       0.0      12.4       1.9       1.2
 2 S  dyz             0.0       0.1       0.0       1.5       4.9       0.6
 2 S  dx2y2           0.2       0.1       0.0      13.0       0.7       0.1
 2 S  dxy             0.5       0.6       0.1       3.2       5.8       0.7
 3 C  s               0.1       0.7       0.0       4.2       4.7      21.0
 3 C  pz              0.0       2.6       0.9       0.5       2.3       0.8
 3 C  px              5.8       0.0       0.3       3.0       1.0       0.9
 3 C  py              7.1       5.6       0.5       3.9      14.6       2.0
 3 C  dz2             0.0       0.0       0.0       0.0       0.1       0.0
 3 C  dxz             0.0       0.0       0.3       0.0       0.5       0.1
 3 C  dyz             0.1       0.1       0.1       0.7       0.0       0.2
 3 C  dx2y2           0.0       0.0       0.3       0.1       0.1       0.1
 3 C  dxy             0.0       0.2       0.0       0.0       0.9       0.3
 4 H  s               9.5       0.0       0.0       0.1       0.3       3.5
 4 H  pz              0.0       0.0       0.0       0.0       0.1       0.1
 4 H  px              0.0       0.0       0.0       0.0       0.0       0.9
 4 H  py              0.1       0.0       0.0       0.0       0.0       0.8
 5 H  s               0.8       1.2       0.0       0.4       0.0       1.2
 5 H  pz              0.0       0.0       0.0       0.1       0.0       0.4
 5 H  py              0.0       0.0       0.0       0.0       0.0       0.4
 6 H  s               4.4       2.5       0.5       0.3       0.2       2.5
 6 H  pz              0.1       0.0       0.0       0.1       0.0       0.4
 6 H  px              0.0       0.0       0.0       0.1       0.0       0.6
 6 H  py              0.0       0.0       0.0       0.0       0.1       0.1
 7 H  s              13.7       0.3       0.1       0.5       0.1       2.4
 7 H  pz              0.0       0.0       0.0       0.0       0.5       0.3
 7 H  px              0.0       0.1       0.0       0.1       0.6       0.1
 7 H  py              0.1       0.0       0.0       0.1       0.0       0.7
 8 H  s               1.4       3.6       1.5       0.9       0.7       3.6
 8 H  pz              0.1       0.0       0.0       0.4       0.0       1.1
 8 H  px              0.1       0.2       0.0       0.2       0.4       0.3
 8 H  py              0.1       0.0       0.0       0.0       0.1       0.3
 9 H  s               2.5       0.1       2.0       0.3       0.3       2.9
 9 H  pz              0.1       0.0       0.0       0.0       0.0       1.1
 9 H  px              0.0       0.0       0.0       0.1       0.0       0.0
 9 H  py              0.0       0.1       0.0       0.1       0.9       0.0
10 H  s               0.7       0.0       2.6       0.2       1.0       2.4
10 H  pz              0.0       0.0       0.0       0.0       0.4       0.2
10 H  px              0.0       0.0       0.0       0.1       0.2       0.5
10 H  py              0.1       0.1       0.0       0.1       0.4       0.6
11 H  s               0.2       3.7       0.1       2.9       1.8       4.7
11 H  pz              0.0       0.0       0.0       0.2       0.0       0.5
11 H  px              0.0       0.1       0.0       0.0       0.3       1.8
11 H  py              0.1       0.0       0.0       0.5       0.3       0.1

                     24        25        26        27        28        29   
                   0.12002   0.13669   0.14454   0.15391   0.16469   0.18125
                   0.00000   0.00000   0.00000   0.00000   0.00000   0.00000
                  --------  --------  --------  --------  --------  --------
 0 C  s              19.8       1.4       2.2       0.2       0.6       0.3
 0 C  pz              0.1      13.0       0.0       4.9       6.3       3.0
 0 C  px             11.5       0.1      10.8       6.6       4.8       0.2
 0 C  py              7.6       1.6       7.1       3.7       7.2      11.6
 0 C  dz2             0.0       0.1       0.1       0.0       1.2       0.3
 0 C  dxz             0.4       0.0       0.0       1.0       0.6       0.0
 0 C  dyz             0.1       0.4       0.0       0.1       0.4       0.1
 0 C  dx2y2           0.3       0.3       1.0       0.0       0.0       0.3
 0 C  dxy             0.1       0.0       0.0       0.4       0.8       1.5
 1 C  s               2.8       4.5       5.4       0.9       1.4       0.7
 1 C  pz              2.2       6.5       0.2       4.9      12.1       2.5
 1 C  px             10.3       0.3       5.7       2.3       2.3       1.2
 1 C  py              7.5       1.7      12.5       4.1       1.4       0.7
 1 C  dz2             0.1       0.6       0.2       0.3       1.7       0.1
 1 C  dxz             0.5       0.0       0.0       0.0       0.0       0.4
 1 C  dyz             0.6       0.2       0.0       0.4       0.1       0.0
 1 C  dx2y2           0.3       0.0       0.9       0.1       0.1       0.2
 1 C  dxy             0.4       0.0       0.6       0.5       0.0       0.1
 2 S  s               2.3       2.4       0.1       0.1       0.3       0.2
 2 S  pz              0.9       0.3       0.1       0.8       0.3       0.4
 2 S  px              0.3       0.9       1.8       0.2       0.3       0.6
 2 S  py              0.6       1.3       1.0       0.3       0.4       0.9
 2 S  dz2             3.0       0.2       0.1       6.0       0.6       9.8
 2 S  dxz             0.1       0.5       0.2       0.1       1.8       0.1
 2 S  dyz             2.5       0.2       0.6       5.6       0.3       0.0
 2 S  dx2y2           1.1       4.2       0.0       0.1       1.4       0.6
 2 S  dxy             0.2       5.5       2.3       0.1       0.9       0.8
 3 C  s               1.7       0.8       6.5       4.4       0.7       1.6
 3 C  pz              0.6      12.0       0.6       5.0       2.7       8.5
 3 C  px              1.6       5.6       1.0       5.6       3.6      22.4
 3 C  py              2.3       0.6       5.2       0.9       2.3       1.0
 3 C  dz2             0.2       0.0       0.0       0.3       0.3       0.1
 3 C  dxz             0.0       1.2       0.0       0.4       0.0       0.3
 3 C  dyz             0.2       0.4       0.0       1.2       0.6       0.2
 3 C  dx2y2           0.0       0.5       0.1       0.1       0.3       0.5
 3 C  dxy             0.0       0.4       0.3       0.9       0.1       0.1
 4 H  s               3.1       0.6       2.5       1.4       0.2       9.6
 4 H  pz              0.0       0.4       0.0       0.0       1.0       0.1
 4 H  px              0.0       0.3       0.0       0.8       0.1       0.7
 4 H  py              2.4       0.1       0.9       0.2       0.0       1.0
 5 H  s               2.1       0.5       1.3       0.5       5.9       0.4
 5 H  pz              1.3       0.1       0.6       0.3       0.4       0.0
 5 H  px              0.5       0.0       0.0       0.5       0.3       0.1
 5 H  py              0.0       0.1       0.0       0.1       0.5       0.9
 6 H  s               1.2       2.1       3.6       3.6       5.1       0.4
 6 H  pz              0.1       0.0       0.6       0.5       0.0       0.1
 6 H  px              0.6       0.3       1.1       0.2       1.6       0.0
 6 H  py              0.0       0.0       0.0       0.4       0.1       0.8
 7 H  s               0.2       0.0       9.9       3.3       4.8       0.4
 7 H  pz              0.1       0.3       0.0       0.2       0.0       0.0
 7 H  px              0.3       0.0       0.6       0.3       0.1       0.0
 7 H  py              0.7       0.0       3.6       0.1       1.6       0.0
 8 H  s               0.1       7.6       0.3       0.1       5.7       0.3
 8 H  pz              0.2       2.9       0.0       0.4       1.7       0.1
 8 H  px              0.7       0.1       0.0       0.0       0.0       0.3
 8 H  py              0.4       0.3       0.1       0.5       0.2       0.1
 9 H  s               1.7       0.6       1.1      16.4       3.1       1.9
 9 H  pz              0.3       0.1       0.8       1.9       0.1       0.2
 9 H  px              0.0       0.8       0.0       0.5       0.1       0.1
 9 H  py              0.1       0.0       0.1       1.3       0.2       0.1
10 H  s               0.6      10.4       2.2       1.1       0.7       6.9
10 H  pz              0.4       0.3       0.2       0.4       0.2       0.5
10 H  px              0.0       0.5       0.5       0.1       1.0       3.4
10 H  py              0.1       0.3       0.4       0.0       0.0       0.1
11 H  s               0.8       2.4       1.3       1.2       5.6       0.1
11 H  pz              0.0       1.6       0.1       0.2       0.0       0.1
11 H  px              0.1       0.0       0.8       0.1       1.0       0.1
11 H  py              0.2       0.1       0.2       1.0       0.6       0.0

                     30        31        32        33        34        35   
                   0.18705   0.19706   0.20974   0.21891   0.22660   0.23205
                   0.00000   0.00000   0.00000   0.00000   0.00000   0.00000
                  --------  --------  --------  --------  --------  --------
 0 C  s               2.0       2.0       0.6       1.1       0.9       1.0
 0 C  pz              5.9       8.5       0.9       7.5      18.4       5.5
 0 C  px              7.2       0.3       0.9       5.3       8.1      21.7
 0 C  py              4.3       3.8       7.8      13.0       8.2       2.7
 0 C  dz2             3.1       0.3       0.0       0.1       0.5       0.0
 0 C  dxz             0.2       0.3       0.1       0.7       0.0       0.4
 0 C  dyz             0.1       0.2       0.0       0.4       0.0       0.0
 0 C  dx2y2           0.2       0.1       0.5       0.1       0.1       0.0
 0 C  dxy             0.1       0.1       0.3       0.5       0.2       0.2
 1 C  s               0.3       0.4       0.1       3.4       1.0       0.4
 1 C  pz              2.1       3.2       0.2       9.0       0.1      10.5
 1 C  px              0.4       7.8       1.9       1.5       0.7       0.5
 1 C  py              3.7       0.4       6.2      12.5       4.3       0.2
 1 C  dz2             0.1       0.0       0.0       0.2       0.3       1.7
 1 C  dxz             0.4       0.4       0.1       0.1       0.1       0.0
 1 C  dyz             0.1       0.1       0.1       0.1       0.1       0.7
 1 C  dx2y2           0.0       0.1       0.4       0.0       0.2       0.0
 1 C  dxy             0.9       0.3       0.1       0.0       0.9       0.4
 2 S  s               0.2       0.3       0.4       0.0       0.2       0.4
 2 S  pz              2.8       0.3       0.5       0.1       0.2       1.8
 2 S  px              0.2       2.2       3.4       2.6       0.1       1.1
 2 S  py              0.3       2.1       1.4       0.9       0.5       1.9
 2 S  dz2             0.9       0.9       0.7       0.0       0.1       3.7
 2 S  dxz             0.6       0.1       0.1       0.2       0.1      11.8
 2 S  dyz             4.3       4.6       1.4       1.2       0.2       0.3
 2 S  dx2y2           1.6       0.5       1.4       0.0       0.3       5.5
 2 S  dxy             0.8       0.4       1.9       0.1       3.2       2.5
 3 C  s               0.0       0.7       1.6       0.1       2.3       0.4
 3 C  pz              7.6      25.5       0.7       3.1       0.7       2.8
 3 C  px              1.3       6.9       0.9       3.9      21.2       0.3
 3 C  py              1.0       3.2      51.1       2.1       2.2       1.5
 3 C  dz2             0.0       0.1       0.0       0.0       0.2       0.4
 3 C  dxz             0.6       1.1       0.1       0.6       0.0       0.0
 3 C  dyz             0.0       0.0       0.1       0.4       1.1       0.0
 3 C  dx2y2           0.1       0.1       0.4       0.1       0.0       0.2
 3 C  dxy             0.0       0.0       0.2       0.1       0.0       0.0
 4 H  s               7.0       0.3       1.7       0.8       3.2       1.0
 4 H  pz              0.2       0.6       0.1       0.0       0.1       0.1
 4 H  px              0.0       0.1       0.0       0.2       0.0       0.1
 4 H  py              0.8       0.0       0.0       0.4       0.0       0.1
 5 H  s              16.1       5.7       0.7       0.5       1.9       0.3
 5 H  pz              4.3       1.3       0.2       0.1       0.3       0.2
 5 H  px              0.3       0.2       0.2       0.4       0.0       0.3
 5 H  py              0.0       0.2       0.2       0.4       0.3       0.0
 6 H  s               1.7       1.9       2.2       6.8       0.4       2.2
 6 H  pz              1.9       0.0       0.1       1.4       0.0       0.0
 6 H  px              0.0       0.6       0.2       1.7       0.2       0.4
 6 H  py              0.3       0.3       0.1       0.0       0.3       0.2
 7 H  s               2.7       0.1       0.8       2.6       5.8       0.1
 7 H  pz              0.5       0.2       0.0       0.1       0.0       1.1
 7 H  px              0.9       0.4       0.2       0.1       0.1       0.1
 7 H  py              0.4       0.0       0.8       0.9       0.5       0.0
 8 H  s               2.5       0.3       0.3       0.8       1.0       9.1
 8 H  pz              0.2       0.0       0.1       0.1       0.1       1.0
 8 H  px              0.3       0.4       0.0       0.0       0.1       0.0
 8 H  py              0.2       0.0       0.0       0.0       0.8       0.2
 9 H  s               1.0       2.3       1.0       0.7       4.4       0.8
 9 H  pz              0.4       1.2       0.0       0.0       0.4       0.3
 9 H  px              0.3       1.1       0.0       0.3       0.1       0.0
 9 H  py              0.0       0.2       0.5       0.4       0.2       0.1
10 H  s               2.5       1.0       1.4       2.4       1.8       0.5
10 H  pz              0.3       0.7       0.1       1.2       0.1       0.3
10 H  px              0.4       0.0       0.6       0.1       0.2       0.1
10 H  py              0.0       0.0       0.3       0.0       0.1       0.0
11 H  s               1.2       2.8       1.3       5.4       0.3       0.4
11 H  pz              0.1       0.0       0.1       0.4       0.0       0.3
11 H  px              0.0       0.3       0.0       0.3       0.3       0.1
11 H  py              0.0       0.1       0.3       0.2       0.0       0.1

                     36        37        38        39        40        41   
                   0.23968   0.25609   0.28037   0.28638   0.31582   0.33662
                   0.00000   0.00000   0.00000   0.00000   0.00000   0.00000
                  --------  --------  --------  --------  --------  --------
 0 C  s               0.9       0.2       0.6       0.3       0.5       1.0
 0 C  pz             17.3       6.0       2.1       0.7       5.8       0.3
 0 C  px              0.5       2.9       6.1       0.1       7.6       1.3
 0 C  py              7.8       2.7       0.6       0.9      12.5       0.7
 0 C  dz2             0.0       0.3       0.0       0.0       0.0       0.0
 0 C  dxz             0.1       0.2       0.2       0.0       0.8       0.0
 0 C  dyz             0.8       0.0       0.1       0.0       0.0       0.0
 0 C  dx2y2           1.1       0.1       0.1       0.1       0.1       0.0
 0 C  dxy             0.0       0.0       0.1       0.2       0.3       0.2
 1 C  s               2.1       0.5       2.5       0.7       1.9       0.8
 1 C  pz              2.2      24.1       1.2       6.4       0.3       1.0
 1 C  px              0.5      14.8       1.4      15.6       1.0       1.7
 1 C  py              3.6       0.2       0.4      23.3       1.1       1.1
 1 C  dz2             0.3       0.0       0.1       0.2       0.2       0.0
 1 C  dxz             0.3       0.7       0.3       0.1       0.5       0.1
 1 C  dyz             0.0       0.0       0.2       0.0       0.0       0.2
 1 C  dx2y2           0.2       0.1       0.7       0.3       0.1       0.1
 1 C  dxy             0.2       0.0       0.2       0.2       0.0       0.1
 2 S  s               0.2       0.5       2.1       0.1       0.9       0.1
 2 S  pz              0.6       1.5      15.3       0.4       0.1      41.0
 2 S  px              0.6       1.6       3.9       0.3      12.5       1.2
 2 S  py              3.8       1.0       8.9       4.3      13.3       3.0
 2 S  dz2             0.5       1.6       3.6       0.1       2.1       9.9
 2 S  dxz             1.1       4.7       0.0       2.7       1.4       1.5
 2 S  dyz             0.1       3.6       5.6       1.4       6.6       0.8
 2 S  dx2y2           0.1       0.8       0.0      10.2       0.0       0.4
 2 S  dxy             0.1       0.1       3.0       6.8       0.5       6.2
 3 C  s               1.2       0.2       3.5       1.2       1.0       0.5
 3 C  pz             12.8       0.8      12.2       2.8       1.3       2.6
 3 C  px             10.8       4.3       1.3       1.7       8.6       1.7
 3 C  py              1.8       4.7       2.0       1.9       2.1       0.9
 3 C  dz2             0.1       0.1       0.0       0.5       0.0       0.1
 3 C  dxz             0.6       0.5       0.2       0.1       0.2       0.4
 3 C  dyz             0.1       0.2       0.0       0.0       0.0       0.2
 3 C  dx2y2           0.0       0.1       0.1       0.4       0.1       0.0
 3 C  dxy             0.4       0.0       0.5       0.7       0.3       0.2
 4 H  s               3.6       0.1       1.2       0.0       1.8       3.2
 4 H  pz              0.8       0.0       0.1       0.1       0.1       0.1
 4 H  px              0.1       0.0       0.1       0.6       0.8       0.2
 4 H  py              1.7       0.0       0.8       0.1       1.3       1.0
 5 H  s               1.0       3.5       0.3       0.2       0.1       2.1
 5 H  pz              0.1       1.3       0.1       0.0       0.1       0.6
 5 H  px              0.0       0.4       0.3       0.3       0.5       0.0
 5 H  py              0.7       0.0       0.0       0.0       0.0       0.1
 6 H  s               3.3       3.5       1.1       0.1       3.0       0.5
 6 H  pz              0.0       0.0       0.2       0.2       0.1       0.1
 6 H  px              0.5       1.7       0.0       0.1       0.0       0.0
 6 H  py              0.1       0.2       0.1       0.1       0.2       0.1
 7 H  s               0.9       0.9       1.5       2.9       3.4       0.2
 7 H  pz              0.3       0.1       0.4       0.0       0.0       0.3
 7 H  px              0.1       0.0       0.0       0.1       0.0       0.1
 7 H  py              0.0       0.1       0.6       0.2       1.0       0.0
 8 H  s               1.7       1.0       4.2       1.8       0.2       2.4
 8 H  pz              0.4       0.6       1.3       1.1       0.1       0.7
 8 H  px              0.0       0.1       0.3       0.3       0.4       0.0
 8 H  py              0.0       0.0       0.1       0.5       0.0       0.3
 9 H  s               0.4       0.3       1.2       1.4       0.4       3.2
 9 H  pz              0.0       0.1       1.1       0.5       0.1       0.1
 9 H  px              0.0       0.5       0.0       0.2       0.4       0.7
 9 H  py              0.4       0.3       0.5       0.0       0.1       0.4
10 H  s               0.3       1.6       4.0       1.2       0.3       2.7
10 H  pz              0.1       0.7       0.1       0.8       0.0       0.0
10 H  px              0.0       0.0       0.4       0.0       0.3       0.6
10 H  py              0.1       0.0       0.1       0.9       0.1       0.1
11 H  s               6.8       3.6       0.5       1.0       0.7       0.2
11 H  pz              2.0       0.2       0.2       0.1       0.1       0.0
11 H  px              1.4       0.1       0.1       0.1       0.0       0.0
11 H  py              0.7       0.1       0.0       0.4       0.7       0.3

                     42        43        44        45        46        47   
                   0.37806   0.40348   0.41871   0.43837   0.44746   0.48175
                   0.00000   0.00000   0.00000   0.00000   0.00000   0.00000
                  --------  --------  --------  --------  --------  --------
 0 C  s               1.1       5.7       4.9       8.6       8.5       0.7
 0 C  pz              0.5       0.4       5.5       0.2       0.4       0.3
 0 C  px              0.9       0.1      10.8       0.5       1.6       1.2
 0 C  py              0.3       0.5       9.9       0.1       0.7       2.0
 0 C  dz2             0.0       0.1       0.2       0.0       0.4       0.0
 0 C  dxz             0.1       0.1       0.8       0.0       0.0       0.6
 0 C  dyz             0.0       0.0       0.3       0.0       0.2       0.0
 0 C  dx2y2           0.0       0.0       0.0       0.0       0.0       0.2
 0 C  dxy             0.2       0.1       1.1       0.0       0.1       0.4
 1 C  s               0.8       0.5       5.2       0.6       0.6       5.9
 1 C  pz              2.3       0.5       5.5       1.4       0.5       6.7
 1 C  px              5.2       1.3       6.3      12.0       1.0       6.7
 1 C  py              1.9       2.6       9.8       5.1       1.8       0.7
 1 C  dz2             0.0       0.3       0.0       0.2       0.4       0.0
 1 C  dxz             0.1       0.0       0.2       0.1       0.0       0.8
 1 C  dyz             0.3       0.0       0.8       0.0       0.4       0.1
 1 C  dx2y2           0.0       0.1       0.0       0.0       0.0       0.8
 1 C  dxy             0.1       0.0       1.4       0.1       0.1       0.1
 2 S  s               0.1       1.0       0.7       0.7       0.1       0.8
 2 S  pz              0.6       2.7       0.2       3.4       9.0      16.3
 2 S  px              1.1      18.2       5.1      23.0       3.2       0.6
 2 S  py              0.3      14.6       4.9      10.6      10.0       0.3
 2 S  dz2            14.8       3.6       2.4       1.4       2.9      16.9
 2 S  dxz             8.6       4.6       0.2       6.8       1.2       6.9
 2 S  dyz            17.2       0.6       5.1       0.3       1.1       0.8
 2 S  dx2y2           9.4       4.6       1.2       2.0       1.0       7.7
 2 S  dxy             1.0       1.0       1.1       0.1      20.7       2.3
 3 C  s               3.8       6.8       2.5       1.9      10.5       1.3
 3 C  pz              6.0       0.6       0.2       0.4       1.6       0.9
 3 C  px              0.8       0.9       0.7       0.3       1.7       0.4
 3 C  py              2.0       2.3       0.1       0.8       4.6       3.1
 3 C  dz2             1.8       0.1       0.0       0.1       0.1       0.0
 3 C  dyz             0.4       0.2       0.0       0.0       0.0       0.1
 3 C  dx2y2           0.0       0.1       0.0       0.1       0.3       0.9
 3 C  dxy             0.3       0.2       0.0       0.0       0.0       0.0
 4 H  s               0.0       1.4       1.9       1.6       0.3       1.7
 4 H  pz              0.2       0.0       0.0       0.1       0.2       0.1
 4 H  px              0.0       0.0       0.0       0.0       0.5       0.3
 4 H  py              0.0       0.4       0.9       0.4       0.0       0.3
 5 H  s               1.0       0.8       1.2       4.2       2.0       0.0
 5 H  pz              0.1       0.5       0.2       1.4       0.5       0.3
 5 H  px              0.2       0.0       0.5       0.0       0.1       0.7
 5 H  py              0.0       0.0       0.1       0.3       0.2       0.0
 6 H  s               0.1       1.7       0.5       4.5       2.9       0.2
 6 H  pz              0.0       0.1       0.1       0.4       0.5       0.5
 6 H  px              0.1       0.4       0.3       1.3       0.7       0.0
 6 H  py              0.1       0.0       0.1       0.3       0.1       0.3
 7 H  s               0.4       3.4       0.1       0.2       0.7       2.4
 7 H  pz              0.3       0.1       0.0       0.0       0.1       0.9
[...]
 7 H  px              2.3       0.8       0.9       0.0       0.7       1.1
 7 H  py              0.0       0.0       5.5       5.1       1.7      11.3
 8 H  s               0.2       0.1       0.2       0.3       0.2       2.5
 8 H  pz              1.1       3.3       1.0       3.3       1.5      12.2
 8 H  px              1.1       2.0       1.5       1.0       0.0       1.1
 8 H  py              0.9       6.0       1.3       0.1       0.1       0.9
 9 H  s               0.0       0.1       0.1       0.0       2.4       0.4
 9 H  pz              0.1       0.0       0.1       0.0      12.6       1.8
 9 H  px              9.3       0.8       2.2       0.1       1.1       0.1
 9 H  py              0.2       0.0       0.1       0.0       4.7       0.6
10 H  s               0.0       0.0       0.0       0.0       2.4       0.4
10 H  pz              3.0       0.0       1.5       0.0       5.3       1.0
10 H  px              4.5       0.2       1.7       0.1      10.9       1.1
10 H  py              0.9       0.2       0.1       0.0       2.1       0.4
11 H  s               0.0       0.0       0.0       0.0       2.4       0.1
11 H  pz              0.0       0.2       0.2       0.2       5.3       0.4
11 H  px              4.0       0.1       1.6       0.3       8.6       0.2
11 H  py              2.5       0.4       1.3       0.0       4.1       0.3

                    114       115       116       117       118       119   
                   3.48826   3.50630   3.51711   3.54048   3.56421   3.60108
                   0.00000   0.00000   0.00000   0.00000   0.00000   0.00000
                  --------  --------  --------  --------  --------  --------
 0 C  s               2.2       0.2       0.1       0.5       0.1       0.0
 0 C  pz              0.1       0.1       3.7       2.3       5.1       1.7
 0 C  px              6.6       1.8       0.9       0.3       3.4       0.6
 0 C  py              4.0       0.0       3.1       0.6       2.4       2.6
 0 C  dz2             0.0       0.4       8.9       2.7       1.1       9.5
 0 C  dxz             7.7       0.9       0.7       0.1       5.8       0.0
 0 C  dyz             2.1       0.2       0.1       1.4       1.3       0.3
 0 C  dx2y2           1.7       1.6       2.1       0.2      10.4       1.7
 0 C  dxy             5.2       0.1       0.5       1.4       3.1       2.5
 1 C  s               1.6       0.1       0.0       0.2       0.6       0.0
 1 C  pz              3.2       0.0       2.2       0.5       0.5       2.8
 1 C  px              1.7       0.0       0.6       0.6       0.1       0.7
 1 C  py              3.8       1.2       3.1       0.6       0.5       3.1
 1 C  dz2             2.9       0.1       7.1       0.9       0.5      12.2
 1 C  dxz             0.5       0.2       0.4       0.1       0.2       0.3
 1 C  dyz             1.8       0.1       0.0       0.5       1.0       0.1
 1 C  dx2y2           0.3       0.4       2.3       0.0       0.5       1.9
 1 C  dxy             7.9       1.3       1.4       1.2       1.1       2.3
 2 S  pz              0.0       0.0       0.1       0.1       0.0       0.0
 2 S  px              0.0       0.0       0.0       0.1       0.2       0.1
 2 S  py              0.0       0.1       0.1       0.0       0.0       0.0
 3 C  pz              1.7       5.3       1.1       3.5       0.2       0.1
 3 C  px              0.0       2.4       0.0       6.9       1.8       0.3
 3 C  py              0.1       3.3       0.2       0.4       0.2       0.0
 3 C  dz2             0.2       1.3       0.3       0.7       0.0       0.0
 3 C  dxz             0.4      15.6       0.6       5.3       1.8       0.3
 3 C  dyz             1.6       0.9       0.4      11.2       1.6       0.5
 3 C  dx2y2           0.7       4.1       0.6       0.1       0.0       0.0
 3 C  dxy             1.4       2.1       0.5       4.1       0.4       0.2
 4 H  s               0.4       0.4       3.7       0.1       3.3       3.7
 4 H  pz              0.0       0.0       0.0       0.0       0.6       0.0
 4 H  px              1.4       0.0       2.3       0.0       1.0       0.7
 4 H  py              0.9       0.6       7.4       0.4       7.2       8.7
 5 H  s               0.1       0.1       4.3       1.7       2.1       3.1
 5 H  pz              0.0       0.6      10.3       4.7       4.4       7.4
 5 H  px              0.2       0.1       0.0       0.1       0.7       0.5
 5 H  py              0.1       0.0       0.3       0.4       0.7       0.0
 6 H  s               4.1       0.9       0.0       0.2       7.0       0.0
 6 H  pz              4.2       1.2       0.3       0.0       3.1       0.0
 6 H  px              8.4       1.5       0.3       0.4      12.8       0.0
 6 H  py              0.5       0.0       0.5       0.0       0.1       0.0
 7 H  s               0.8       0.8       3.8       0.1       0.4       4.4
 7 H  pz              0.8       0.1       0.0       0.1       0.0       0.0
 7 H  px              0.9       0.5       1.7       0.2       0.3       1.0
 7 H  py              1.8       1.6       7.1       0.1       1.2       9.7
 8 H  s               1.6       0.0       3.1       0.4       0.5       4.4
 8 H  pz              4.3       0.0       7.4       1.0       2.1      10.0
 8 H  px              0.1       0.0       0.0       0.1       0.0       0.5
 8 H  py              1.2       0.1       0.0       0.2       0.0       0.1
 9 H  s               1.4       5.3       0.8       3.0       0.2       0.1
 9 H  pz              2.0       7.9       1.1       4.2       0.3       0.2
 9 H  px              0.3       1.9       0.3       0.2       0.0       0.0
 9 H  py              1.1       3.6       0.6       3.0       0.2       0.1
10 H  s               0.5       7.9       0.6       1.2       0.7       0.1
10 H  pz              0.2       5.2       0.3       1.8       0.7       0.1
10 H  px              0.9      13.1       1.1       1.0       0.7       0.1
10 H  py              0.1       1.1       0.1       0.2       0.1       0.0
11 H  s               0.5       0.4       0.2       8.4       1.6       0.4
11 H  pz              0.2       1.1       0.1       6.1       1.2       0.2
11 H  px              0.7       0.2       0.0       8.6       1.6       0.2
11 H  py              0.5       0.2       0.6       5.5       0.9       0.1

                    120       121       122       123   
                  18.78267  21.88372  21.89892  21.97078
                   0.00000   0.00000   0.00000   0.00000
                  --------  --------  --------  --------
 0 C  s               0.0      24.7      54.1      20.9
 1 C  s               0.2       7.8      13.1      78.8
 2 S  s              99.4       0.0       0.0       0.0
 3 C  s               0.1      67.1      32.5       0.1


                      *****************************
                      * MAYER POPULATION ANALYSIS *
                      *****************************

  NA   - Mulliken gross atomic population
  ZA   - Total nuclear charge
  QA   - Mulliken gross atomic charge
  VA   - Mayer's total valence
  BVA  - Mayer's bonded valence
  FA   - Mayer's free valence

  ATOM       NA         ZA         QA         VA         BVA        FA
  0 C      6.4113     6.0000    -0.4113     3.7768     3.7768    -0.0000
  1 C      6.2535     6.0000    -0.2535     3.7319     3.7319     0.0000
  2 S     16.1354    16.0000    -0.1354     1.9348     1.9348    -0.0000
  3 C      6.4192     6.0000    -0.4192     3.8370     3.8370    -0.0000
  4 H      0.8644     1.0000     0.1356     0.9686     0.9686    -0.0000
  5 H      0.8434     1.0000     0.1566     0.9626     0.9626     0.0000
  6 H      0.8600     1.0000     0.1400     0.9620     0.9620    -0.0000
  7 H      0.8473     1.0000     0.1527     0.9600     0.9600    -0.0000
  8 H      0.8458     1.0000     0.1542     0.9564     0.9564    -0.0000
  9 H      0.8369     1.0000     0.1631     0.9560     0.9560     0.0000
 10 H      0.8329     1.0000     0.1671     0.9534     0.9534    -0.0000
 11 H      0.8500     1.0000     0.1500     0.9702     0.9702    -0.0000

  Mayer bond orders larger than 0.100000
B(  0-C ,  1-C ) :   0.8959 B(  0-C ,  4-H ) :   0.9741 B(  0-C ,  5-H ) :   0.9756 
B(  0-C ,  6-H ) :   0.9608 B(  1-C ,  2-S ) :   0.9457 B(  1-C ,  7-H ) :   0.9479 
B(  1-C ,  8-H ) :   0.9578 B(  2-S ,  3-C ) :   0.9522 B(  3-C ,  9-H ) :   0.9553 
B(  3-C , 10-H ) :   0.9554 B(  3-C , 11-H ) :   0.9560 

-------
TIMINGS
-------

Total SCF time: 0 days 0 hours 0 min 3 sec 

Total time                  ....       3.706 sec
Sum of individual times     ....       3.689 sec  ( 99.5%)

SCF preparation             ....       0.027 sec  (  0.7%)
Fock matrix formation       ....       3.596 sec  ( 97.0%)
  Startup                   ....       0.001 sec  (  0.0% of F)
  Split-RI-J                ....       0.523 sec  ( 14.6% of F)
  XC integration            ....       3.064 sec  ( 85.2% of F)
    XC Preparation          ....       0.000 sec  (  0.0% of XC)
    Basis function eval.    ....       0.621 sec  ( 20.3% of XC)
    Density eval.           ....       0.891 sec  ( 29.1% of XC)
    XC-Functional eval.     ....       0.554 sec  ( 18.1% of XC)
    XC-Potential eval.      ....       0.923 sec  ( 30.1% of XC)
Diagonalization             ....       0.000 sec  (  0.0%)
Density matrix formation    ....       0.004 sec  (  0.1%)
Total Energy calculation    ....       0.001 sec  (  0.0%)
Population analysis         ....       0.037 sec  (  1.0%)
Orbital Transformation      ....       0.003 sec  (  0.1%)
Orbital Orthonormalization  ....       0.000 sec  (  0.0%)
DIIS solution               ....       0.018 sec  (  0.5%)
  MO trafo                  ....       0.000 sec  (  0.0 % of DIIS)
  Orb grad                  ....       0.000 sec  (  0.0 % of DIIS)
  Energy W gradient         ....       0.000 sec  (  0.0 % of DIIS)
  DIIS error                ....       0.002 sec  (  9.2 % of DIIS)
  DIIS work                 ....       0.015 sec  ( 80.1 % of DIIS)
  Form Q                    ....       0.000 sec  (  0.0 % of DIIS)
  Form QpQm                 ....       0.000 sec  (  0.0 % of DIIS)
  Exp/Cayley                ....       0.000 sec  (  0.0 % of DIIS)
  Orb update                ....       0.000 sec  (  0.0 % of DIIS)
  Wake-sleep                ....       0.000 sec  (  1.6 % of DIIS)
SOSCF solution              ....       0.003 sec  (  0.1%)
  MO trafo                  ....       0.002 sec  ( 76.9 % of SOSCF)
  Orb grad                  ....       0.000 sec  (  0.8 % of SOSCF)
  Rot update                ....       0.000 sec  (  0.4 % of SOSCF)
  Step                      ....       0.001 sec  ( 21.0 % of SOSCF)
Finished LeanSCF after   3.7 sec

Maximum memory used throughout the entire LEANSCF-calculation: 13.2 MB


-------------------------------------------------------------------------------
                          DFT DISPERSION CORRECTION                            
                                                                               
                                DFTD4 V3.4.0                                   
-------------------------------------------------------------------------------
The R2SCAN3C composite method is recognized
Using three-body term ABC
Active option DFTDOPT                   ...         5   

-------------------------   ----------------
Dispersion correction           -0.002600890
-------------------------   ----------------

------------------   -----------------
gCP correction             0.009693006
------------------   -----------------

-------------------------   --------------------
FINAL SINGLE POINT ENERGY      -517.251918526080
-------------------------   --------------------


------------------------------------------------------------------------------
                              ORCA PROPERTY CALCULATIONS
------------------------------------------------------------------------------

GBWName                                 ... sp.gbw
Number of atoms                         ...     12
Number of basis functions               ...    124
Max core memory                         ...   1024 MB

Electric properties:
Dipole moment                           ... YES
Quadrupole moment                       ...  NO
Static polarizability (Dipole/Dipole)   ...  NO
Static polarizability (Dipole/Quad.)    ...  NO
Static polarizability (Quad./Quad.)     ...  NO
Static polarizability (Velocity)        ...  NO

Atomic electric properties:
Dipole moment                           ...  NO
Quadrupole moment                       ...  NO
Static polarizability                   ...  NO

Choice of electric origin               ... Center of mass
Position of electric origin             ...    -0.000009    -0.000011    -0.000006

General magnetic properties:
Magnetizability                         ...  NO

EPR properties:
g-Tensor (aka g-matrix)                 ...  NO
Zero-Field splitting spin-orbit         ...  NO
Zero-field splitting spin-spin          ...  NO
Hyperfine couplings                     ...  NO (   0 nuclei)
Quadrupole couplings                    ...  NO (   0 nuclei)
Contact density                         ...  NO (   0 nuclei)

NMR properties:
Chemical shifts                         ...  NO (   0 nuclei)
Spin-rotation constants                 ...  NO (   0 nuclei)
Spin-spin couplings                     ...  NO (   0 nuclei,    0 pairs)

Choice of magnetic origin               ... GIAO
Position of magnetic origin             ...     0.000000     0.000000     0.000000

Properties with geometric perturbations:
SCF Hessian                             ...  NO
IR spectrum                             ...  NO
VCD spectrum                            ...  NO
X-ray spectroscopy properties:
SCF XES/XAS/RIXS spectra                ...  NO


-------------
DIPOLE MOMENT
-------------

Method             : SCF
Type of density    : Electron Density
Multiplicity       :   1
Irrep              :   0
Energy             :  -517.2590106413908870 Eh
Relativity type    : 
Basis              : AO
                                X                 Y                 Z
Electronic contribution:      3.236273301       3.722295255       1.965678515
Nuclear contribution   :     -3.526939767      -4.200733604      -2.400433684
                        -----------------------------------------
Total Dipole Moment    :     -0.290666467      -0.478438349      -0.434755169
                        -----------------------------------------
Magnitude (a.u.)       :      0.708803432
Magnitude (Debye)      :      1.801635147



--------------------
Rotational spectrum 
--------------------
 
Rotational constants in cm-1:             0.326993             0.127783             0.106390 
Rotational constants in MHz :          9803.002785          3830.851120          3189.498688 

Dipole components along the rotational axes: 
x,y,z [a.u.] :     0.305589     0.567711     0.294485 
x,y,z [Debye]:     0.776746     1.443008     0.748521 

 

Dipole moment calculation done in   0.0 sec 

Maximum memory used throughout the entire PROP-calculation: 7.4 MB

--------------------------------
SUGGESTED CITATIONS FOR THIS RUN
--------------------------------

Below you find a list of papers that are relevant to this ORCA run
We neither can nor want to force you to cite these papers, but we appreciate if you do
You receive ORCA, which is the product of decades of hard work by many enthusiastic individuals, for free
The only thing we kindly ask in return is that you cite our papers,
We deeply appreciate it, if you show your appreciation for ORCA by not just citing the generic ORCA reference.

Please note that relegating all ORCA citations to the supporting information does *not* help us.
SI sections are not indexed - citations you put there will not count into any citation statistics
But we need these citations in order to attract the funding resources that allow us to do what we are doing

Therefore, if you are a happy ORCA user, please consider citing a few of the papers listed below in the main body of your paper

In addition to the list printed below, the program has created the file sp.bibtex that contains the list in bibtex format
You can import this file easily into all common literature databanks and citation aid programs


List of essential papers. We consider these as the minimum necessary citations

  1. Neese,F.
     Software update: the ORCA program system, version 5.0
     WIRES Comput. Molec. Sci., 2022 12(1)e1606
     doi.org/10.1002/wcms.1606
  2. Grimme,S.; Hansen,A.; Ehlert,S.; Mewes,J.
     r2SCAN-3c: A 'Swiss army knife' composite electronic-structure method
     J. Chem. Phys., 2021 154 064103
     doi.org/10.1063/5.0040021

List of papers to cite with high priority. The work reported in these papers was absolutely
necessary for this run to complete.
Our perspective: the developers of density functionals and basis sets usually get cited in chemistry papers
Good! But without the algorithms to do something with them, the functionals or basis sets would not do anything.
Hence, in our opinion, the algorithm design and method developments papers are equally worthy of getting cited

  1. Neese,F.
     An improvement of the resolution of the identity approximation for the formation of the Coulomb matrix
     J. Comp. Chem., 2003 24(14)1740-1747
     doi.org/10.1002/jcc.10318
  2. Neese,F.
     The SHARK Integral Generation and Digestion System
     J. Comp. Chem., 2022  1-16
     doi.org/10.1002/jcc.26942
  3. Lehtola,S.; Steigemann,C.; Oliveira,M.; Marques,M.
     Recent developments in Libxc - A comprehensive library of functionals for density functional theory
     Software X, 2018 7 
     doi.org/10.1016/j.softx.2017.11.002
  4. Caldeweyher,E.; Bannwarth,C.; Grimme,S.
     Extension of the D3 dispersion coefficient model
     J. Chem. Phys., 2017 147 034112
     doi.org/10.1063/1.4993215
  5. Caldeweyher,E.; Ehlert,S.; Hansen,A.; Neugebauer,H.; Spicher,S.; Bannwarth,C.; Grimme,S.
     A generally applicable atomic-charge dependent London dispersion correction
     J. Chem. Phys., 2019 150 154122
     doi.org/10.1063/1.5090222
  6. Caldeweyher,E.; Mewes,J.; Ehlert,S.; Grimme,S.
     Extension and evaluation of the D4 London-dispersion model for periodic systems
     Phys. Chem. Chem. Phys., 2020 22(16)8499-8512
     doi.org/10.1039/D0CP00502A
  7. Wittmann,L.; Gordiy,I.; Friede,M.; Helmich-Paris,B.; Grimme,S.; Hansen,A.; Bursch,M.
     Extension of the D3 and D4 London Dispersion Corrections to the full Actinides Series
     Phys. Chem. Chem. Phys., 2024 26(32)21379-21394
     doi.org/https://doi.org/10.1039/D4CP01514B 

List of suggested additional citations. These are papers that are important in the 'surrounding' of 
of this run, or papers that preceded the highly important papers. If you like your results we are grateful for a citation.

  1. Neese,F.
     The ORCA program system
     WIRES Comput. Molec. Sci., 2012 2(1)73-78
     doi.org/10.1002/wcms.81
  2. Neese,F.
     Software update: the ORCA program system, version 4.0
     WIRES Comput. Molec. Sci., 2018 8(1)1-6
     doi.org/10.1002/wcms.1327
  3. Neese,F.; Wennmohs,F.; Becker,U.; Riplinger,C.
     The ORCA quantum chemistry program package
     J. Chem. Phys., 2020 152 Art. No. L224108
     doi.org/10.1063/5.0004608

List of optional additional citations

  1. Neese,F.
     Approximate second-order SCF convergence for spin unrestricted wavefunctions
     Chem. Phys. Lett., 2000 325(1-3)93-98
     doi.org/10.1016/s0009-2614(00)00662-x

Timings for individual modules:

Sum of individual times          ...        4.074 sec (=   0.068 min)
Startup calculation              ...        0.278 sec (=   0.005 min)   6.8 %
SCF iterations                   ...        3.761 sec (=   0.063 min)  92.3 %
Property calculations            ...        0.036 sec (=   0.001 min)   0.9 %
                             ****ORCA TERMINATED NORMALLY****
TOTAL RUN TIME: 0 days 0 hours 0 minutes 4 seconds 143 msec
