 Entering Gaussian System
 *********************************************
 Gaussian 98:
 frequency output generated by the xtb code
 *********************************************
                         Standard orientation:
 --------------------------------------------------------------------
  Center     Atomic     Atomic              Coordinates (Angstroms)
  Number     Number      Type              X           Y           Z
 --------------------------------------------------------------------
    1          6             0        1.639840    1.196343    0.000040
    2          6             0        0.255009    1.228962   -0.000037
    3          6             0       -0.426561    0.020433   -0.000061
    4          6             0        0.299452   -1.165430   -0.000008
    5          7             0        1.617407   -1.186046    0.000065
    6          6             0        2.272633   -0.038048    0.000089
    7         17             0       -2.152252   -0.009941   -0.000151
    8          1             0        2.211229    2.111409    0.000058
    9          1             0       -0.285545    2.163145   -0.000077
   10          1             0       -0.196903   -2.125853   -0.000021
   11          1             0        3.351084   -0.117195    0.000144
 --------------------------------------------------------------------
     1 basis functions        1 primitive gaussians
     1 alpha electrons        1 beta electrons

 Harmonic frequencies (cm**-1), IR intensities (km*mol⁻¹),
 Raman scattering activities (A**4/amu), Raman depolarization ratios,
 reduced masses (AMU), force constants (mDyne/A) and normal coordinates:
                      1                      2                      3
                        a                      a                      a 
 Frequencies --   170.1977               268.5429               367.0491
 Red. masses --     4.4605                 6.3490                 3.1212
 Frc consts  --     0.0000                 0.0000                 0.0000
 IR Inten    --     0.1756                 0.9702                 2.2886
 Raman Activ --     0.0000                 0.0000                 0.0000
 Depolar     --     0.0000                 0.0000                 0.0000
 Atom AN      X      Y      Z        X      Y      Z        X      Y      Z
   1   6    -0.00  -0.00  -0.03    -0.21   0.03  -0.00     0.00  -0.00  -0.51
   2   6    -0.00   0.00   0.39    -0.19  -0.34  -0.00    -0.00   0.00   0.42
   3   6    -0.00   0.00   0.37    -0.00  -0.44   0.00    -0.00   0.00   0.13
   4   6    -0.00   0.00   0.43     0.21  -0.32   0.00     0.00  -0.00  -0.37
   5   7    -0.00  -0.00  -0.05     0.26   0.04   0.00    -0.00   0.00   0.37
   6   6     0.00  -0.00  -0.45     0.02   0.16  -0.00    -0.00   0.00   0.09
   7  17     0.00  -0.00  -0.39    -0.05   0.52  -0.00     0.00   0.00  -0.05
   8   1     0.00  -0.00  -0.04    -0.12   0.05  -0.00     0.00  -0.00  -0.33
   9   1    -0.00   0.00   0.16    -0.12  -0.14  -0.00    -0.00   0.00   0.26
  10   1    -0.00   0.00   0.21     0.14  -0.13   0.00     0.00  -0.00  -0.28
  11   1     0.00  -0.00  -0.31     0.01   0.10  -0.00    -0.00   0.00   0.08
                      4                      5                      6
                        a                      a                      a 
 Frequencies --   394.6988               434.9897               593.4675
 Red. masses --    11.8352                 4.5010                 7.6435
 Frc consts  --     0.0000                 0.0000                 0.0000
 IR Inten    --     0.1164                 0.0977                 4.4540
 Raman Activ --     0.0000                 0.0000                 0.0000
 Depolar     --     0.0000                 0.0000                 0.0000
 Atom AN      X      Y      Z        X      Y      Z        X      Y      Z
   1   6    -0.27   0.08  -0.00    -0.00   0.00   0.10    -0.34  -0.31  -0.00
   2   6    -0.22   0.11  -0.00    -0.00   0.00   0.17    -0.32   0.32  -0.00
   3   6     0.08  -0.02  -0.00     0.00  -0.00  -0.72     0.03   0.18   0.00
   4   6    -0.17  -0.13  -0.00     0.00   0.00  -0.00     0.32   0.24   0.00
   5   7    -0.21  -0.11  -0.00    -0.00   0.00   0.41     0.38  -0.39   0.00
   6   6    -0.38   0.00  -0.00     0.00  -0.00  -0.32     0.02  -0.17   0.00
   7  17     0.75   0.04   0.00    -0.00   0.00   0.12    -0.06   0.06  -0.00
   8   1    -0.04   0.00  -0.00    -0.00   0.00   0.18    -0.04  -0.12  -0.00
   9   1    -0.12  -0.00  -0.00    -0.00   0.00   0.27    -0.04   0.12  -0.00
  10   1    -0.09  -0.01  -0.00    -0.00   0.00   0.15     0.01   0.11  -0.00
  11   1    -0.11   0.02  -0.00     0.00  -0.00  -0.16     0.02   0.11  -0.00
                      7                      8                      9
                        a                      a                      a 
 Frequencies --   678.0784               706.6526               780.4324
 Red. masses --     3.8421                 8.2251                 1.3431
 Frc consts  --     0.0000                 0.0000                 0.0000
 IR Inten    --    11.1943                 2.2636                15.0611
 Raman Activ --     0.0000                 0.0000                 0.0000
 Depolar     --     0.0000                 0.0000                 0.0000
 Atom AN      X      Y      Z        X      Y      Z        X      Y      Z
   1   6    -0.00   0.00   0.37     0.14   0.38  -0.00     0.00  -0.00  -0.16
   2   6     0.00   0.00  -0.28     0.15   0.29   0.00     0.00  -0.00  -0.27
   3   6    -0.00   0.00   0.35     0.44  -0.02   0.00    -0.00   0.00   0.30
   4   6     0.00  -0.00  -0.36     0.07  -0.34   0.00     0.00  -0.00  -0.21
   5   7    -0.00  -0.00   0.46     0.12  -0.32  -0.00    -0.00   0.00   0.08
   6   6     0.00  -0.00  -0.37    -0.39   0.03  -0.00     0.00  -0.00  -0.18
   7  17    -0.00  -0.00   0.00    -0.31  -0.01  -0.00     0.00  -0.00  -0.03
   8   1     0.00   0.00   0.01     0.16   0.03   0.00    -0.00   0.00   0.49
   9   1     0.00  -0.00  -0.21    -0.06   0.02   0.00    -0.00   0.00   0.44
  10   1     0.00  -0.00  -0.26    -0.05  -0.06   0.00    -0.00   0.00   0.32
  11   1     0.00  -0.00  -0.29    -0.10   0.04   0.00    -0.00   0.00   0.43
                     10                     11                     12
                        a                      a                      a 
 Frequencies --   896.0850               911.0847               923.7474
 Red. masses --     1.2497                 1.3699                 1.3197
 Frc consts  --     0.0000                 0.0000                 0.0000
 IR Inten    --     0.0270                 0.4539                 0.0845
 Raman Activ --     0.0000                 0.0000                 0.0000
 Depolar     --     0.0000                 0.0000                 0.0000
 Atom AN      X      Y      Z        X      Y      Z        X      Y      Z
   1   6    -0.00   0.00   0.19    -0.00  -0.00   0.09    -0.00   0.00   0.34
   2   6    -0.00   0.00   0.12    -0.00   0.00   0.24     0.00  -0.00  -0.31
   3   6    -0.00   0.00   0.02     0.00  -0.00  -0.07    -0.00   0.00  -0.03
   4   6     0.00  -0.00  -0.40    -0.00   0.00   0.12    -0.00   0.00   0.17
   5   7    -0.00  -0.00   0.00    -0.00   0.00   0.04     0.00  -0.00  -0.06
   6   6    -0.00   0.00   0.01     0.00  -0.00  -0.45     0.00   0.00  -0.10
   7  17    -0.00  -0.00  -0.00     0.00   0.00   0.00    -0.00   0.00  -0.00
   8   1     0.00  -0.00  -0.44     0.00  -0.00  -0.08     0.00  -0.00  -0.58
   9   1     0.00  -0.00  -0.16     0.00  -0.00  -0.41    -0.00   0.00   0.58
  10   1    -0.00   0.00   0.75     0.00  -0.00  -0.17     0.00  -0.00  -0.16
  11   1    -0.00   0.00   0.05    -0.00   0.00   0.72    -0.00   0.00   0.20
                     13                     14                     15
                        a                      a                      a 
 Frequencies --   988.1410              1088.9046              1118.5649
 Red. masses --     6.4552                 1.7775                 3.6574
 Frc consts  --     0.0000                 0.0000                 0.0000
 IR Inten    --    36.3726                 2.6843                35.0036
 Raman Activ --     0.0000                 0.0000                 0.0000
 Depolar     --     0.0000                 0.0000                 0.0000
 Atom AN      X      Y      Z        X      Y      Z        X      Y      Z
   1   6     0.12   0.26   0.00    -0.08  -0.33  -0.00    -0.16  -0.24  -0.00
   2   6     0.20  -0.43   0.00     0.18  -0.04   0.00     0.11  -0.27   0.00
   3   6    -0.34   0.01  -0.00    -0.04  -0.02  -0.00     0.65  -0.00   0.00
   4   6     0.14   0.43   0.00     0.15  -0.01   0.00     0.08   0.30   0.00
   5   7     0.17  -0.34   0.00    -0.01   0.29  -0.00    -0.14   0.22  -0.00
   6   6    -0.38   0.03  -0.00    -0.45   0.11  -0.00    -0.15  -0.02  -0.00
   7  17     0.07   0.00   0.00    -0.00  -0.00  -0.00    -0.11  -0.00  -0.00
   8   1    -0.02   0.10   0.00     0.32  -0.32   0.00    -0.13  -0.02  -0.00
   9   1     0.04  -0.13   0.00     0.36   0.17   0.00    -0.22  -0.23  -0.00
  10   1    -0.07   0.17  -0.00     0.29  -0.13   0.00    -0.21   0.21  -0.00
  11   1    -0.10   0.10  -0.00    -0.12   0.22  -0.00    -0.05  -0.00  -0.00
                     16                     17                     18
                        a                      a                      a 
 Frequencies --  1130.5198              1189.2887              1250.4920
 Red. masses --     1.2432                 1.1966                 1.2023
 Frc consts  --     0.0000                 0.0000                 0.0000
 IR Inten    --     4.6218                 3.6429                 0.4556
 Raman Activ --     0.0000                 0.0000                 0.0000
 Depolar     --     0.0000                 0.0000                 0.0000
 Atom AN      X      Y      Z        X      Y      Z        X      Y      Z
   1   6    -0.17  -0.10  -0.00     0.06  -0.07   0.00    -0.01   0.05  -0.00
   2   6     0.19  -0.08   0.00     0.00  -0.04   0.00    -0.23  -0.06  -0.00
   3   6     0.11   0.11   0.00    -0.06   0.01  -0.00    -0.03  -0.17   0.00
   4   6    -0.14  -0.20  -0.00    -0.26  -0.10  -0.00     0.17  -0.08   0.00
   5   7     0.05  -0.11   0.00     0.07  -0.08   0.00     0.09   0.10   0.00
   6   6     0.04   0.16   0.00     0.19   0.18   0.00     0.00   0.18  -0.00
   7  17    -0.02  -0.01  -0.00     0.01  -0.01   0.00     0.01   0.01   0.00
   8   1    -0.49   0.25  -0.00     0.37  -0.24   0.00     0.27  -0.16   0.00
   9   1     0.53   0.25   0.00    -0.20  -0.13  -0.00     0.29   0.19   0.00
  10   1    -0.25   0.05  -0.00    -0.38   0.13  -0.00    -0.56   0.29  -0.00
  11   1     0.03   0.28  -0.00     0.10   0.64  -0.00    -0.04  -0.46   0.00
                     19                     20                     21
                        a                      a                      a 
 Frequencies --  1276.6255              1389.7339              1428.4390
 Red. masses --    10.3807                 3.0993                 2.9889
 Frc consts  --     0.0000                 0.0000                 0.0000
 IR Inten    --     3.5560                28.2615                 6.9145
 Raman Activ --     0.0000                 0.0000                 0.0000
 Depolar     --     0.0000                 0.0000                 0.0000
 Atom AN      X      Y      Z        X      Y      Z        X      Y      Z
   1   6    -0.32   0.20  -0.00     0.06   0.27   0.00     0.39  -0.16   0.00
   2   6     0.29   0.20   0.00    -0.32  -0.07  -0.00    -0.04   0.31  -0.00
   3   6    -0.01  -0.44   0.00     0.26  -0.34   0.00    -0.21  -0.28  -0.00
   4   6    -0.37   0.22  -0.00     0.10   0.29   0.00     0.35  -0.07   0.00
   5   7     0.36   0.21   0.00    -0.43  -0.17  -0.00    -0.11   0.26  -0.00
   6   6     0.00  -0.41   0.00     0.20  -0.13   0.00    -0.20  -0.28  -0.00
   7  17     0.00  -0.00   0.00    -0.02   0.01  -0.00     0.01   0.01  -0.00
   8   1     0.05  -0.03   0.00     0.14   0.01   0.00    -0.25   0.19  -0.00
   9   1     0.08   0.05   0.00     0.30   0.21   0.00    -0.12   0.03  -0.00
  10   1    -0.06   0.04  -0.00     0.16   0.01   0.00    -0.25   0.16  -0.00
  11   1     0.02   0.00   0.00     0.08   0.28   0.00    -0.03   0.27  -0.00
                     22                     23                     24
                        a                      a                      a 
 Frequencies --  1556.2442              1562.8969              3070.2048
 Red. masses --     8.8147                 7.9052                 1.0787
 Frc consts  --     0.0000                 0.0000                 0.0000
 IR Inten    --     6.4072                24.2210                14.2469
 Raman Activ --     0.0000                 0.0000                 0.0000
 Depolar     --     0.0000                 0.0000                 0.0000
 Atom AN      X      Y      Z        X      Y      Z        X      Y      Z
   1   6    -0.45   0.10  -0.00    -0.18   0.33  -0.00    -0.02  -0.04  -0.00
   2   6     0.51   0.17   0.00    -0.10  -0.29  -0.00    -0.00  -0.00  -0.00
   3   6    -0.20  -0.09  -0.00    -0.01   0.46  -0.00    -0.00   0.00  -0.00
   4   6     0.42  -0.09   0.00     0.22  -0.26   0.00    -0.01  -0.02  -0.00
   5   7    -0.41  -0.14  -0.00     0.02   0.27  -0.00     0.01   0.00   0.00
   6   6     0.20   0.09   0.00     0.02  -0.56   0.00     0.26  -0.03   0.00
   7  17    -0.00  -0.00  -0.00    -0.00  -0.00  -0.00    -0.00  -0.00   0.00
   8   1     0.05  -0.08   0.00     0.11  -0.01   0.00     0.09   0.15   0.00
   9   1    -0.09  -0.08  -0.00     0.08  -0.01   0.00     0.00  -0.00   0.00
  10   1    -0.07   0.06  -0.00    -0.09   0.01  -0.00     0.04   0.07   0.00
  11   1     0.04  -0.02   0.00     0.03   0.14   0.00    -0.94   0.07  -0.00
                     25                     26                     27
                        a                      a                      a 
 Frequencies --  3073.5761              3089.3404              3100.3509
 Red. masses --     1.0804                 1.0797                 1.0892
 Frc consts  --     0.0000                 0.0000                 0.0000
 IR Inten    --    10.9378                19.7805                15.3657
 Raman Activ --     0.0000                 0.0000                 0.0000
 Depolar     --     0.0000                 0.0000                 0.0000
 Atom AN      X      Y      Z        X      Y      Z        X      Y      Z
   1   6    -0.00  -0.00  -0.00     0.08   0.14   0.00     0.12   0.19   0.00
   2   6    -0.01   0.01  -0.00     0.11  -0.18   0.00    -0.09   0.15  -0.00
   3   6     0.01   0.00   0.00     0.01  -0.00   0.00    -0.01  -0.00  -0.00
   4   6     0.12   0.24   0.00     0.00   0.01  -0.00    -0.00  -0.01   0.00
   5   7     0.00   0.01   0.00    -0.00  -0.00  -0.00    -0.00  -0.00  -0.00
   6   6     0.02  -0.00   0.00     0.04  -0.00   0.00     0.04  -0.01   0.00
   7  17    -0.00  -0.00  -0.00    -0.00   0.00  -0.00     0.00   0.00   0.00
   8   1     0.01   0.01   0.00    -0.31  -0.49  -0.00    -0.40  -0.63  -0.00
   9   1     0.02  -0.03   0.00    -0.38   0.66  -0.00     0.29  -0.51   0.00
  10   1    -0.44  -0.85  -0.00    -0.01  -0.03  -0.00     0.01   0.02   0.00
  11   1    -0.08   0.01  -0.00    -0.11   0.01  -0.00    -0.13   0.01  -0.00
