
                                 *****************
                                 * O   R   C   A *
                                 *****************

                                            #,                                       
                                            ###                                      
                                            ####                                     
                                            #####                                    
                                            ######                                   
                                           ########,                                 
                                     ,,################,,,,,                         
                               ,,#################################,,                 
                          ,,##########################################,,             
                       ,#########################################, ''#####,          
                    ,#############################################,,   '####,        
                  ,##################################################,,,,####,       
                ,###########''''           ''''###############################       
              ,#####''   ,,,,##########,,,,          '''####'''          '####       
            ,##' ,,,,###########################,,,                        '##       
           ' ,,###''''                  '''############,,,                           
         ,,##''                                '''############,,,,        ,,,,,,###''
      ,#''                                            '''#######################'''  
     '                                                          ''''####''''         
             ,#######,   #######,   ,#######,      ##                                
            ,#'     '#,  ##    ##  ,#'     '#,    #''#        ,####,   ,####,        
            ##       ##  ##   ,#'  ##            #'  '#       #'       #'  '#        
            ##       ##  #######   ##           ,######,      #####,   #    #        
            '#,     ,#'  ##    ##  '#,     ,#' ,#      #,     #,   #   #,  ,#        
             '#######'   ##     ##  '#######'  #'      '#     '####' # '####'        



                #########################################################
                #                        -***-                          #
                #          Department of theory and spectroscopy        #
                #                                                       #
                #                      Frank Neese                      #
                #                                                       #
                #     Directorship, Architecture, Infrastructure        #
                #                    SHARK, DRIVERS                     #
                #        Core code/Algorithms in most modules           #
                #                                                       #
                #        Max Planck Institute fuer Kohlenforschung      #
                #                Kaiser Wilhelm Platz 1                 #
                #                 D-45470 Muelheim/Ruhr                 #
                #                      Germany                          #
                #                                                       #
                #                  All rights reserved                  #
                #                        -***-                          #
                #########################################################


                         Program Version 6.0.1  -  RELEASE   -


 With contributions from (in alphabetic order):
[Max-Planck-Institut fuer Kohlenforschung]                               
  Daniel Aravena         : Magnetic Suceptibility                        
  Michael Atanasov       : Ab Initio Ligand Field Theory (pilot matlab implementation)
  Alexander A. Auer      : GIAO ZORA, VPT2 properties, NMR spectrum      
  Ute Becker             : All parallelization in ORCA, NUMFREQ, NUMCALC 
  Giovanni Bistoni       : ED, misc. LED, open-shell LED, HFLD           
  Martin Brehm           : Molecular dynamics                            
  Dmytro Bykov           : pre 5.0 version of the SCF Hessian            
  Marcos Casanova-Páez   : Triplet and SCS-CIS(D). UHF-(DLPNO)-IP/EA/STEOM-CCSD. UHF-CVS-IP/STEOM-CCSD   
  Vijay G. Chilkuri      : MRCI spin determinant printing, contributions to CSF-ICE 
  Pauline Colinet        : FMM embedding                                 
  Dipayan Datta          : RHF DLPNO-CCSD density                        
  Achintya Kumar Dutta   : EOM-CC, STEOM-CC                              
  Nicolas Foglia         : Exact transition moments, OPA infrastructure, MCD improvements    
  Dmitry Ganyushin       : Spin-Orbit,Spin-Spin,Magnetic field MRCI      
  Miquel Garcia-Rates    : C-PCM and meta-GGA Hessian, CCSD/C-PCM, Gaussian charge scheme 
  Tiago L. C. Gouveia    : GS-ROHF, GS-ROCIS                             
  Yang Guo               : DLPNO-NEVPT2, F12-NEVPT2, CIM, IAO-localization        
  Andreas Hansen         : Spin unrestricted coupled pair/coupled cluster methods 
  Ingolf Harden          : AUTO-CI MPn and infrastructure                
  Benjamin Helmich-Paris : MC-RPA, TRAH-(SCF,CASSCF), AVAS, COSX integrals, SCF dyn. polar. 
  Lee Huntington         : MR-EOM, pCC                                   
  Robert Izsak           : Overlap fitted RIJCOSX, COSX-SCS-MP3, EOM     
  Riya Kayal             : Wick's Theorem for AUTO-CI, AUTO-CI UHF-CCSDT 
  Emily Kempfer          : AUTO-CI, RHF CISDT and CCSDT                  
  Christian Kollmar      : KDIIS, OOCD, Brueckner-CCSD(T), CCSD density, CASPT2, CASPT2-K, improved NEVPT2 
  Axel Koslowski         : Symmetry handling                             
  Simone Kossmann        : meta-GGA functionals, TD-DFT gradient, OOMP2, (MP2 Hessian; deprecated post 5.0) 
  Lucas Lang             : DCDCAS                                        
  Marvin Lechner         : AUTO-CI (C++ implementation), FIC-MRCC        
  Spencer Leger          : CASSCF response                               
  Dagmar Lenk            : GEPOL surface, SMD, ORCA-2-JSON               
  Dimitrios Liakos       : Extrapolation schemes; Compound Job, initial MDCI parallelization 
  Dimitrios Manganas     : Further ROCIS development; embedding schemes. LFT, Crystal Embedding 
  Dimitrios Pantazis     : SARC Basis sets                               
  Anastasios Papadopoulos: AUTO-CI, single reference methods and gradients 
  Taras Petrenko         : pre 6.0 DFT Hessian and TD-DFT gradient, (ASA, deprecated), ECA, 1-Electron XAS/XES, NRVS 
  Peter Pinski           : DLPNO-MP2, DLPNO-MP2 Gradient                 
  Christoph Reimann      : Effective Core Potentials                     
  Marius Retegan         : Local ZFS, SOC                                
  Christoph Riplinger    : Optimizer, TS searches, QM/MM, DLPNO-CCSD(T), (RO)-DLPNO pert. Triples 
  Michael Roemelt        : Original ROCIS implementation                 
  Masaaki Saitow         : Open-shell DLPNO-CCSD energy and density      
  Barbara Sandhoefer     : DKH picture change effects                    
  Kantharuban Sivalingam : CASSCF convergence/infrastructure, NEVPT2 and variants, FIC-MRCI 
  Bernardo de Souza      : ESD, SOC TD-DFT                               
  Georgi L. Stoychev     : AutoAux, RI-MP2 NMR, DLPNO-MP2 response, X2C  
  Van Anh Tran           : RI-MP2 g-tensors                              
  Willem Van den Heuvel  : Paramagnetic NMR                              
  Zikuan Wang            : NOTCH, Electric field optimization            
  Frank Wennmohs         : Technical directorship and infrastructure     
  Hang Xu                : AUTO-CI-Response properties                   
                                                                         
[FACCTs GmbH]                                                            
  Markus Bursch, Miquel Garcia-Rates, Christoph Riplinger, Bernardo de Souza, Georgi L. Stoychev 
                                                                 
  APM, Basis sets (HGBS, AHGBS, def-TZVP (Ac-Lr), def2-XVPD (La-Lu)), CI-OPT, improved COSX, DLPNO-Multilevel,           
  DOCKER, DRACO, updates on ESD, GOAT, IRC, LR-CPCM, MBIS, meta-GGA TD-DFT gradient, ML-optimized integration grids, 
  MM, NACMEs, nearIR, NEB, NEB-TS, NL-DFT gradient (VV10), 2- and 3-layer-ONIOM, interface openCOSMO-RS, QMMM,   
  Crystal-QMMM, SF, symmetry and pop. for TD-DFT, r2SCAN hybrids, SOLVATOR                                   
                                                                         
[Other institutions]                                                     
  V. Asgeirsson          : NEB                                           
  Christoph Bannwarth    : sTDA-DFT, sTD-DFT, PBEh-3c, B97-3c, D3        
  Sebastian Ehlert       : rSCAN, r2SCAN, r2SCAN-3c, D4, dhf basis sets  
  Marvin Friede          : D4 for Fr, Ra, Ac-Lr                          
  Lars Goerigk           : TD-DFT with DH, B97 family of functionals     
  Stefan Grimme          : VdW corrections, initial TS optimization, DFT functionals, gCP, sTDA/sTD-DF 
  Waldemar Hujo          : DFT-NL                                        
  H. Jonsson             : NEB                                           
  Holger Kruse           : gCP                                           
  Marcel Mueller         : wB97X-3c, vDZP basis set                      
  Hagen Neugebauer       : wr2SCAN                                       
  Tobias Risthaus        : range-separated hybrid DFT                    
  Lukas Wittmann         : regularized MP2, r2SCAN double-hybrids, wr2SCAN        
                                                                         
We gratefully acknowledge several colleagues who have allowed us to      
interface, adapt or use parts of their codes:                            
  Ed Valeev, F. Pavosevic, A. Kumar             : LibInt (2-el integral package), F12 methods 
  Garnet Chan, S. Sharma, J. Yang, R. Olivares  : DMRG                   
  Ulf Ekstrom                                   : XCFun DFT Library      
  Mihaly Kallay                                 : mrcc  (arbitrary order and MRCC methods)
  Frank Weinhold                                : gennbo (NPA and NBO analysis)           
  Simon Mueller                                 : openCOSMO-RS                            
  Christopher J. Cramer and Donald G. Truhlar   : smd solvation model                     
  S Lehtola, MJT Oliveira, MAL Marques          : LibXC Library                           
  Liviu Ungur et al                             : ANISO software                          


 Your calculation uses the libint2 library for the computation of 2-el integrals
 For citations please refer to: http://libint.valeyev.net

 Your ORCA version has been built with support for libXC version: 6.2.2
 For citations please refer to: https://libxc.gitlab.io

 This ORCA versions uses:
   CBLAS   interface :  Fast vector & matrix operations
   LAPACKE interface :  Fast linear algebra routines
   SCALAPACK package :  Parallel linear algebra routines
   Shared memory     :  Shared parallel matrices
   BLAS/LAPACK       :  OpenBLAS 0.3.27  USE64BITINT DYNAMIC_ARCH NO_AFFINITY Zen SINGLE_THREADED
        Core in use  :  Zen
   Copyright (c) 2011-2014, The OpenBLAS Project


Your calculation utilizes the geometrical counterpoise correction gCP
Please cite in your paper:
H.Kruse, S. Grimme J.Chem.Phys., 136, (2012), 154101 
   

Your calculation utilizes the atom-pairwise dispersion correction
based on EEQ partial charges (D4)


================================================================================

cite the ECPs for I  [Def2-ECP] as follows:
Ce-Yb(ecp-28): M. Dolg, H. Stoll, H.Preuss, J. Chem. Phys., 1989, 90, 1730-1734.
Y-Cd(ecp-28), Hf-Hg(ecp-46): D. Andrae,U. Haeussermann, M. Dolg, H. Stoll, H. Preuss, Theor. Chim. Acta, 1990, 77, 123-141.
In-Sb(ecp-28), Tl-Bi(ecp-46): B. Metz, H. Stoll, M. Dolg, J. Chem. Phys., 2000, 113, 2563-2569.
Te-Xe(ecp-28), Po-Rn(ecp-46): K. A. Peterson, D. Figgen, E. Goll, H. Stoll, M. Dolg, J. Chem. Phys., 2003, 119, 11113-11123.
Rb(ecp-28), Cs(ecp-46): T. Leininger, A. Nicklass, W. Kuechle, H. Stoll, M. Dolg, A. Bergner, Chem. Phys. Lett., 1996, 255, 274-280.
Sr(ecp-28), Ba(ecp-46): M. Kaupp, P. V. Schleyer, H. Stoll and H. Preuss, J. Chem. Phys., 1991, 94, 1360-1366.
La(ecp-46): M. Dolg, H. Stoll, A. Savin, H. Preuss, Theor. Chim. Acta, 1989, 75, 173-194.
Lu(ecp-28): X. Cao, M. Dolg, J. Chem. Phys., 2001, 115, 7348-7355.
Fr-Lr(ecp-60) K. Eichkorn, F. Weigend, O. Treutler, R. Ahlrichs, Theor. Chem. Acc. 1997, 97, 119.

ECP parameters for I  [Def2-ECP] have been obtained from:
TURBOMOLE (7.0.2)

----- Orbital basis set information -----
Your calculation utilizes the basis: def2-mTZVPP
   Stefan Grimme, Andreas Hansen, Sebastian Ehlert, and Jan-Michael Mewes 
   J. Chem. Phys. 154, 064103 (2021). DOI: 10.1063/5.0040021

----- AuxJ basis set information -----
Your calculation utilizes the auxiliary basis: def2/J
   F. Weigend, Phys. Chem. Chem. Phys. 8, 1057 (2006).

================================================================================
                                        WARNINGS
                       Please study these warnings very carefully!
================================================================================



WARNING: SCAN, rSCAN, or r2SCAN functional requested.
  ===> : libXC variant has now been activated.



================================================================================
                                       INPUT FILE
================================================================================
NAME = sp.inp
|  1> ! r2scan-3c def2/J RI DEFGRID2 scfconv6 printgap
|  2> %output
|  3>     printlevel normal
|  4> end
|  5> * xyz 0 1
|  6> C -3.2933409113 -0.8842305235 -0.288002911
|  7> C -2.3009131999 0.0094239946 0.4479280516
|  8> C -1.2408251956 0.566463552 -0.5011370478
|  9> I 0.7893630749 0.0388731087 0.0425075836
| 10> H -3.7945015282 -0.3327816036 -1.0811296409
| 11> H -2.7848558919 -1.7396142717 -0.728082291
| 12> H -4.0484027109 -1.2538060445 0.4015804278
| 13> H -1.8437551244 -0.5661586368 1.2535734703
| 14> H -2.8380300435 0.8394583307 0.912793886
| 15> H -1.2533386941 1.6521482097 -0.5360218433
| 16> H -1.3730112144 0.1807273055 -1.5086624401
| 17> *
| 18> 
| 19>                          ****END OF INPUT****
================================================================================

                       ****************************
                       * Single Point Calculation *
                       ****************************

---------------------------------
CARTESIAN COORDINATES (ANGSTROEM)
---------------------------------
  C     -3.293341   -0.884231   -0.288003
  C     -2.300913    0.009424    0.447928
  C     -1.240825    0.566464   -0.501137
  I      0.789363    0.038873    0.042508
  H     -3.794502   -0.332782   -1.081130
  H     -2.784856   -1.739614   -0.728082
  H     -4.048403   -1.253806    0.401580
  H     -1.843755   -0.566159    1.253573
  H     -2.838030    0.839458    0.912794
  H     -1.253339    1.652148   -0.536022
  H     -1.373011    0.180727   -1.508662

----------------------------
CARTESIAN COORDINATES (A.U.)
----------------------------
  NO LB      ZA    FRAG     MASS         X           Y           Z
   0 C     6.0000    0    12.011   -6.223512   -1.670954   -0.544247
   1 C     6.0000    0    12.011   -4.348096    0.017809    0.846461
   2 C     6.0000    0    12.011   -2.344820    1.070461   -0.947012
   3 I    25.0000*   0   126.900    1.491680    0.073460    0.080328
   4 H     1.0000    0     1.008   -7.170569   -0.628866   -2.043039
   5 H     1.0000    0     1.008   -5.262615   -3.287395   -1.375876
   6 H     1.0000    0     1.008   -7.650372   -2.369350    0.758877
   7 H     1.0000    0     1.008   -3.484192   -1.069885    2.368911
   8 H     1.0000    0     1.008   -5.363100    1.586346    1.724930
   9 H     1.0000    0     1.008   -2.368467    3.122108   -1.012934
  10 H     1.0000    0     1.008   -2.594615    0.341525   -2.850959
* core charge reduced due to ECP

--------------------------------
INTERNAL COORDINATES (ANGSTROEM)
--------------------------------
 C      0   0   0     0.000000000000     0.00000000     0.00000000
 C      1   0   0     1.524836234416     0.00000000     0.00000000
 C      2   1   0     1.528006612639   111.43346708     0.00000000
 I      3   2   1     2.166925373608   113.91666900   238.86120263
 H      1   2   3     1.088259107415   110.76221599   300.93529630
 H      1   2   3     1.088075471803   110.59621877    61.37896766
 H      1   2   3     1.087303806711   110.18676907   181.07294926
 H      2   1   3     1.090574808180   108.66584795   237.22712397
 H      2   1   3     1.092497939026   109.30823576   120.75495553
 H      3   2   1     1.086317040540   112.10437085   119.54155993
 H      3   2   1     1.086909845185   111.22294276   357.37999396

---------------------------
INTERNAL COORDINATES (A.U.)
---------------------------
 C      0   0   0     0.000000000000     0.00000000     0.00000000
 C      1   0   0     2.881522882126     0.00000000     0.00000000
 C      2   1   0     2.887514028708   111.43346708     0.00000000
 I      3   2   1     4.094895508765   113.91666900   238.86120263
 H      1   2   3     2.056511675760   110.76221599   300.93529630
 H      1   2   3     2.056164654745   110.59621877    61.37896766
 H      1   2   3     2.054706419054   110.18676907   181.07294926
 H      2   1   3     2.060887716014   108.66584795   237.22712397
 H      2   1   3     2.064521906633   109.30823576   120.75495553
 H      3   2   1     2.052841701232   112.10437085   119.54155993
 H      3   2   1     2.053961939662   111.22294276   357.37999396

---------------------
BASIS SET INFORMATION
---------------------
There are 3 groups of distinct atoms

 Group   1 Type C   : 11s6p1d contracted to 5s3p1d pattern {62111/411/1}
 Group   2 Type I   : 11s10p8d contracted to 6s5p3d pattern {521111/34111/611}
 Group   3 Type H   : 4s1p contracted to 2s1p pattern {31/1}

Atom   0C    basis set group =>   1
Atom   1C    basis set group =>   1
Atom   2C    basis set group =>   1
Atom   3I    basis set group =>   2
Atom   4H    basis set group =>   3
Atom   5H    basis set group =>   3
Atom   6H    basis set group =>   3
Atom   7H    basis set group =>   3
Atom   8H    basis set group =>   3
Atom   9H    basis set group =>   3
Atom  10H    basis set group =>   3
---------------------------------
AUXILIARY/J BASIS SET INFORMATION
---------------------------------
There are 3 groups of distinct atoms

 Group   1 Type C   : 12s5p4d2f1g contracted to 6s4p3d1f1g pattern {711111/2111/211/2/1}
 Group   2 Type I   : 11s5p5d3f1g contracted to 8s4p3d2f1g pattern {41111111/2111/311/21/1}
 Group   3 Type H   : 5s2p1d contracted to 3s1p1d pattern {311/2/1}

Atom   0C    basis set group =>   1
Atom   1C    basis set group =>   1
Atom   2C    basis set group =>   1
Atom   3I    basis set group =>   2
Atom   4H    basis set group =>   3
Atom   5H    basis set group =>   3
Atom   6H    basis set group =>   3
Atom   7H    basis set group =>   3
Atom   8H    basis set group =>   3
Atom   9H    basis set group =>   3
Atom  10H    basis set group =>   3
-------------------------
ECP PARAMETER INFORMATION
-------------------------

 Group 1, Type I  ECP Def2-ECP (replacing 28 core electrons, lmax=3)

Atom   3I    ECP group =>   1


Checking for AutoStart:
The File: sp.gbw exists
Trying to determine its content:
     ... Fine, the file contains calculation information
     ... Fine, the calculation information was read
     ... Fine, the file contains a basis set
     ... Fine, the basis set was read
     ... Fine, the file contains ECP parameters
     ... Fine, ECP parameters were read
     ... Fine, the file contains a geometry
     ... Fine, the geometry was read
     ... Fine, the file contains a set of orbitals
     ... Fine, the orbitals can be read
     => possible old guess file was deleted
     => GBW file was renamed to GES file
     => GES file is set as startup file
     => Guess is set to MORead
     ... now leaving AutoStart

------------------------------------------------------------------------------
                             ORCA STARTUP CALCULATIONS
                           -- RI-GTO INTEGRALS CHOSEN --
------------------------------------------------------------------------------
------------------------------------------------------------------------------
                   ___                                                        
                  /   \      - P O W E R E D   B Y -                         
                 /     \                                                     
                 |  |  |   _    _      __       _____    __    __             
                 |  |  |  | |  | |    /  \     |  _  \  |  |  /  |          
                  \  \/   | |  | |   /    \    | | | |  |  | /  /          
                 / \  \   | |__| |  /  /\  \   | |_| |  |  |/  /          
                |  |  |   |  __  | /  /__\  \  |    /   |      \           
                |  |  |   | |  | | |   __   |  |    \   |  |\   \          
                \     /   | |  | | |  |  |  |  | |\  \  |  | \   \       
                 \___/    |_|  |_| |__|  |__|  |_| \__\ |__|  \__/        
                                                                              
                      - O R C A' S   B I G   F R I E N D -                    
                                      &                                       
                       - I N T E G R A L  F E E D E R -                       
                                                                              
 v1 FN, 2020, v2 2021, v3 2022-2024                                           
------------------------------------------------------------------------------


----------------------
SHARK INTEGRAL PACKAGE
----------------------

Number of atoms                             ...     11
Number of basis functions                   ...    128
Number of shells                            ...     62
Maximum angular momentum                    ...      2
Integral batch strategy                     ... SHARK/LIBINT Hybrid
RI-J (if used) integral strategy            ... SPLIT-RIJ (Revised 2003 algorithm where possible)
Printlevel                                  ...      1
Contraction scheme used                     ... SEGMENTED contraction
Prescreening option                         ... SCHWARTZ
   Thresh                                   ... 1.000e-10
   Tcut                                     ... 1.000e-11
   Tpresel                                  ... 1.000e-11 
Coulomb Range Separation                    ... NOT USED
Exchange Range Separation                   ... NOT USED
Multipole approximations                    ... NOT USED
Finite Nucleus Model                        ... NOT USED
CABS basis                                  ... NOT available
Auxiliary Coulomb fitting basis             ... AVAILABLE
   # of basis functions in Aux-J            ...    282
   # of shells in Aux-J                     ...     98
   Maximum angular momentum in Aux-J        ...      4
Auxiliary J/K fitting basis                 ... NOT available
Auxiliary Correlation fitting basis         ... NOT available
Auxiliary 'external' fitting basis          ... NOT available

Checking pre-screening integrals            ... done (  0.0 sec) Dimension = 62
Check shell pair data                       ... done (  0.0 sec)
Shell pair information
Shell pair cut-off parameter TPreSel        ...   1.0e-11
Total number of shell pairs                 ...      1953
Shell pairs after pre-screening             ...      1836
Total number of primitive shell pairs       ...      7143
Primitive shell pairs kept                  ...      5121
          la=0 lb=0:    585 shell pairs
          la=1 lb=0:    690 shell pairs
          la=1 lb=1:    221 shell pairs
          la=2 lb=0:    199 shell pairs
          la=2 lb=1:    120 shell pairs
          la=2 lb=2:     21 shell pairs

Calculating one electron integrals          ... done (  0.0 sec)
Calculating ECP integrals                   ... done (  0.0 sec)
Calculating RI/J V-Matrix + Cholesky decomp.... done (  0.0 sec)
Calculating Nuclear repulsion               ... done (  0.0 sec) ENN=    183.616163667124 Eh

Diagonalization of the overlap matrix:
Smallest eigenvalue                        ... 3.672e-04
Time for diagonalization                   ...    0.001 sec
Threshold for overlap eigenvalues          ... 1.000e-07
Number of eigenvalues below threshold      ... 0
Time for construction of square roots      ...    0.000 sec
Total time needed                          ...    0.003 sec

-------------------
DFT GRID GENERATION
-------------------

General Integration Accuracy     IntAcc      ... 4.388
Radial Grid Type                 RadialGrid  ... OptM3 with GC (2021)
Angular Grid (max. ang.)         AngularGrid ... 4 (Lebedev-302)
Angular grid pruning method      GridPruning ... 4 (adaptive)
Weight generation scheme         WeightScheme... mBecke (2022)
Basis function cutoff            BFCut       ... 1.0000e-10
Integration weight cutoff        WCut        ... 1.0000e-14
Partially contracted basis set               ... off
Rotationally invariant grid construction     ... off
Angular grids for H and He will be reduced by one unit

Total number of grid points                  ...    52171
Total number of batches                      ...      821
Average number of points per batch           ...       63
Average number of grid points per atom       ...     4743
Initializing property integral containers    ... done (  0.0 sec)

SHARK setup successfully completed in   0.4 seconds

Maximum memory used throughout the entire STARTUP-calculation: 25.2 MB
-------------------------------------------------------------------------------
                                 ORCA GUESS
                   Start orbitals & Density for SCF / CASSCF
-------------------------------------------------------------------------------

------------
SCF SETTINGS
------------
Hamiltonian:
 Density Functional     Method          .... DFT(GTOs)
  Functional kind                       .... Exchange
  Functional name                       .... Re-regularized SCAN exchange by Furness et al
  Functional family                     .... MGGA
  Functional refs                              
    [ 0] J. W. Furness, A. D. Kaplan, J. Ning, J. P. Perdew, and J. Sun.,  J. Phys. Chem. Lett. 11, 8208-8215 (2020), doi: 10.1021/acs.jpclett.0c02405
    [ 1] J. W. Furness, A. D. Kaplan, J. Ning, J. P. Perdew, and J. Sun.,  J. Phys. Chem. Lett. 11, 9248-9248 (2020), doi: 10.1021/acs.jpclett.0c03077
  Functional external parameters        .... 6
    Parameter  0 _c1        =  6.670000e-01 : c1 parameter        
    Parameter  1 _c2        =  8.000000e-01 : c2 parameter        
    Parameter  2 _d         =  1.240000e+00 : d parameter         
    Parameter  3 _k1        =  6.500000e-02 : k1 parameter        
    Parameter  4 _eta       =  1.000000e-03 : eta parameter       
    Parameter  5 _dp2       =  3.610000e-01 : dp2 parameter       
  Functional kind                       .... Correlation
  Functional name                       .... Re-regularized SCAN correlation by Furness et al
  Functional family                     .... MGGA
  Functional refs                              
    [ 0] J. W. Furness, A. D. Kaplan, J. Ning, J. P. Perdew, and J. Sun.,  J. Phys. Chem. Lett. 11, 8208-8215 (2020), doi: 10.1021/acs.jpclett.0c02405
    [ 1] J. W. Furness, A. D. Kaplan, J. Ning, J. P. Perdew, and J. Sun.,  J. Phys. Chem. Lett. 11, 9248-9248 (2020), doi: 10.1021/acs.jpclett.0c03077
  Functional external parameters        .... 1
    Parameter  0 _eta       =  1.000000e-03 : Regularization parameter
 Gradients option       PostSCFGGA      .... off
 RI-approximation to the Coulomb term is turned on
   Number of AuxJ basis functions       .... 282


General Settings:
 Integral files         IntName         .... sp
 Hartree-Fock type      HFTyp           .... RHF
 Total Charge           Charge          ....    0
 Multiplicity           Mult            ....    1
 Number of Electrons    NEL             ....   50
 Basis Dimension        Dim             ....  128
 Nuclear Repulsion      ENuc            ....    183.6161636671 Eh

Convergence Acceleration:
 AO-DIIS                CNVDIIS         .... on
   Start iteration      DIISMaxIt       ....    12
   Startup error        DIISStart       ....  0.200000
   # of expansion vecs  DIISMaxEq       ....     5
   Bias factor          DIISBfac        ....   1.050
   Max. coefficient     DIISMaxC        ....  10.000
 MO-DIIS                CNVKDIIS        .... off
 Trust-Rad. Augm. Hess. CNVTRAH         .... auto
   Auto Start mean grad. ratio tolernc. ....  1.125000
   Auto Start start iteration           ....     1
   Auto Start num. interpolation iter.  ....    10
   Max. Number of Micro iterations      ....    24
   Max. Number of Macro iterations      .... Maxiter - #DIIS iter
   Number of Davidson start vectors     ....     2
   Converg. threshold    (grad. norm)   ....   3.330e-04
   Grad. Scal. Fac. for Micro threshold ....   0.100
   Minimum threshold for Micro iter.    ....   1.000e-02
   NR start threshold (gradient norm)   ....   1.000e-04
   Initial trust radius                 ....   0.400
   Minimum AH scaling param. (alpha)    ....   1.000
   Maximum AH scaling param. (alpha)    .... 1000.000
   Quad. conv. algorithm                .... NR
   White noise on init. David. guess    .... on
   Maximum white noise                  ....   0.010
   Pseudo random numbers                .... off
   Inactive MOs                         .... canonical
   Orbital update algorithm             .... Taylor
   Preconditioner                       .... Diag
   Full preconditioner red. dimension   ....   250
   COSX micro iterations for RIJONX calc.... off
 SOSCF                  CNVSOSCF        .... on
   Start iteration      SOSCFMaxIt      ....   150
   Startup grad/error   SOSCFStart      ....  0.003300
   Hessian update       SOSCFHessUp     .... L-BFGS
 Level Shifting         CNVShift        .... on
   Level shift para.    LevelShift      ....    0.2500
   Turn off err/grad.   ShiftErr        ....    0.0010
 Zerner damping         CNVZerner       .... off
 Static damping         CNVDamp         .... on
   Fraction old density DampFac         ....    0.7000
   Max. Damping (<1)    DampMax         ....    0.9800
   Min. Damping (>=0)   DampMin         ....    0.0000
   Turn off err/grad.   DampErr         ....    0.1000

SCF Procedure:
 Maximum # iterations   MaxIter         ....   125
 SCF integral mode      SCFMode         .... Direct
   Integral package                     .... SHARK and LIBINT hybrid scheme
 Reset frequency        DirectResetFreq ....    20
 Integral Threshold     Thresh          ....  1.000e-10 Eh
 Primitive CutOff       TCut            ....  1.000e-11 Eh

Convergence Tolerance:
 Convergence Check Mode ConvCheckMode   .... Total+1el-Energy
 Convergence forced     ConvForced      .... 0
 Energy Change          TolE            ....  1.000e-06 Eh
 1-El. energy change                    ....  1.000e-03 Eh
 Orbital Gradient       TolG            ....  3.330e-04
 Orbital Rotation angle TolX            ....  3.330e-04
 DIIS Error             TolErr          ....  1.000e-06

---------------------
INITIAL GUESS: MOREAD
---------------------
Guess MOs are being read from file: sp.ges
Input Geometry matches current geometry (good)
Atom 0: N(Shells)= 9 and 6 - projection required
Input basis set needs projection
NBasis(read)= 82
NBasis(calc)= 128
Basis set overlap was calculated
Using GuessMode=FMatrix for the initial guess
C*T matrix was formed
Effective Fockian was calculated
Effective Fockian was diagonalized
Initial density was built
                      ------------------
                      INITIAL GUESS DONE (   0.0 sec)
                      ------------------
             **** ENERGY FILE WAS UPDATED (sp.en.tmp) ****
Finished Guess after   0.0 sec
Maximum memory used throughout the entire GUESS-calculation: 9.9 MB

-------------------------------------------------------------------------------------------
                                      ORCA LEAN-SCF
                              memory conserving SCF solver
-------------------------------------------------------------------------------------------

----------------------------------------D-I-I-S--------------------------------------------
Iteration    Energy (Eh)           Delta-E    RMSDP     MaxDP     DIISErr   Damp  Time(sec)
-------------------------------------------------------------------------------------------
               ***  Starting incremental Fock matrix formation  ***
    1    -416.1548486501104662     0.00e+00  3.71e-03  8.85e-02  2.84e-01  0.700   0.5
    2    -416.1761912432997406    -2.13e-02  2.98e-03  6.92e-02  2.00e-01  0.700   0.5
                               ***Turning on AO-DIIS***
    3    -416.1912282661508016    -1.50e-02  2.19e-03  5.13e-02  1.40e-01  0.700   0.4
    4    -416.2017560661274729    -1.05e-02  1.57e-03  3.66e-02  9.79e-02  0.700   0.4
    5    -416.2091566259451838    -7.40e-03  3.71e-03  8.61e-02  6.85e-02  0.000   0.4
                              *** Initializing SOSCF ***
---------------------------------------S-O-S-C-F--------------------------------------
Iteration    Energy (Eh)           Delta-E    RMSDP     MaxDP     MaxGrad    Time(sec)
--------------------------------------------------------------------------------------
    6    -416.2264827742532134    -1.73e-02  4.93e-05  8.03e-04  4.38e-04     0.4
               *** Restarting incremental Fock matrix formation ***
    7    -416.2264832541430906    -4.80e-07  3.19e-05  6.11e-04  1.71e-04     0.5
    8    -416.2264819222172036     1.33e-06  1.94e-05  4.56e-04  3.63e-04     0.4
    9    -416.2264837249609855    -1.80e-06  3.60e-06  1.21e-04  1.16e-05     0.4
                  *** Gradient check signals convergence ***

               *****************************************************
               *                     SUCCESS                       *
               *           SCF CONVERGED AFTER   9 CYCLES          *
               *****************************************************

             **** ENERGY FILE WAS UPDATED (sp.en.tmp) ****

----------------
TOTAL SCF ENERGY
----------------

Total Energy       :       -416.22648372496099 Eh          -11326.09843 eV

Components:
Nuclear Repulsion  :        183.61616366712352 Eh            4996.44983 eV
Electronic Energy  :       -599.84264739208447 Eh          -16322.54826 eV
One Electron Energy:      -1040.66952481182852 Eh          -28318.05743 eV
Two Electron Energy:        440.82687741974405 Eh           11995.50917 eV

Virial components:
Potential Energy   :       -646.19451695735268 Eh          -17583.84675 eV
Kinetic Energy     :        229.96803323239166 Eh            6257.74832 eV
Virial Ratio       :          2.80993191912177

DFT components:
N(Alpha)           :       24.999980780915 electrons
N(Beta)            :       24.999980780915 electrons
N(Total)           :       49.999961561830 electrons
E(X)               :      -39.351329589299 Eh       
E(C)               :       -1.822737340433 Eh       
E(XC)              :      -41.174066929732 Eh       

---------------
SCF CONVERGENCE
---------------

  Last Energy change         ...    1.8027e-06  Tolerance :   1.0000e-06
  Last MAX-Density change    ...    1.2099e-04  Tolerance :   1.0000e-05
  Last RMS-Density change    ...    3.6028e-06  Tolerance :   1.0000e-06
  Last DIIS Error            ...    4.3843e-04  Tolerance :   1.0000e-06
  Last Orbital Gradient      ...    1.1644e-05  Tolerance :   3.3300e-04
  Last Orbital Rotation      ...    4.0818e-05  Tolerance :   3.3300e-04


----------------
ORBITAL ENERGIES
----------------

  NO   OCC          E(Eh)            E(eV) 
   0   2.0000     -10.084647      -274.4172 
   1   2.0000     -10.046394      -273.3763 
   2   2.0000     -10.030867      -272.9538 
   3   2.0000      -6.804527      -185.1606 
   4   2.0000      -4.823019      -131.2410 
   5   2.0000      -4.806958      -130.8040 
   6   2.0000      -4.806776      -130.7990 
   7   2.0000      -1.858454       -50.5711 
   8   2.0000      -1.854246       -50.4566 
   9   2.0000      -1.854034       -50.4508 
  10   2.0000      -1.841047       -50.0974 
  11   2.0000      -1.841034       -50.0971 
  12   2.0000      -0.775871       -21.1125 
  13   2.0000      -0.690863       -18.7993 
  14   2.0000      -0.618638       -16.8340 
  15   2.0000      -0.565188       -15.3796 
  16   2.0000      -0.447006       -12.1637 
  17   2.0000      -0.421041       -11.4571 
  18   2.0000      -0.395887       -10.7726 
  19   2.0000      -0.359962        -9.7951 
  20   2.0000      -0.333131        -9.0649 
  21   2.0000      -0.326514        -8.8849 
  22   2.0000      -0.302520        -8.2320 
  23   2.0000      -0.231939        -6.3114 
  24   2.0000      -0.230776        -6.2797 
  25   0.0000      -0.057478        -1.5641 
  26   0.0000       0.087826         2.3899 
  27   0.0000       0.095214         2.5909 
  28   0.0000       0.113155         3.0791 
  29   0.0000       0.129646         3.5278 
  30   0.0000       0.136470         3.7135 
  31   0.0000       0.155145         4.2217 
  32   0.0000       0.165650         4.5076 
  33   0.0000       0.172414         4.6916 
  34   0.0000       0.186646         5.0789 
  35   0.0000       0.190490         5.1835 
*Only the first 10 virtual orbitals were printed.

                    ********************************
                    * MULLIKEN POPULATION ANALYSIS *
                    ********************************

-----------------------
MULLIKEN ATOMIC CHARGES
-----------------------
   0 C :   -0.481545
   1 C :   -0.201405
   2 C :   -0.292067
   3 I :   -0.140598
   4 H :    0.147593
   5 H :    0.154147
   6 H :    0.148745
   7 H :    0.165013
   8 H :    0.146556
   9 H :    0.173820
  10 H :    0.179743
Sum of atomic charges:    0.0000000

--------------------------------
MULLIKEN REDUCED ORBITAL CHARGES
--------------------------------
  0 C s       :     3.331098  s :     3.331098
      pz      :     1.053974  p :     3.123308
      px      :     1.034627
      py      :     1.034707
      dz2     :     0.002298  d :     0.027139
      dxz     :     0.008065
      dyz     :     0.006579
      dx2y2   :     0.003347
      dxy     :     0.006850

  1 C s       :     3.189586  s :     3.189586
      pz      :     0.973159  p :     2.975670
      px      :     0.968899
      py      :     1.033613
      dz2     :     0.004326  d :     0.036149
      dxz     :     0.009805
      dyz     :     0.008269
      dx2y2   :     0.004943
      dxy     :     0.008806

  2 C s       :     3.263031  s :     3.263031
      pz      :     1.039917  p :     2.998284
      px      :     0.855758
      py      :     1.102609
      dz2     :     0.008179  d :     0.030752
      dxz     :     0.005941
      dyz     :     0.003827
      dx2y2   :     0.008567
      dxy     :     0.004237

  3 I s       :     3.998592  s :     3.998592
      pz      :     3.925898  p :    11.095296
      px      :     3.242998
      py      :     3.926401
      dz2     :     2.006662  d :    10.046710
      dxz     :     2.012391
      dyz     :     2.001354
      dx2y2   :     2.015085
      dxy     :     2.011218

  4 H s       :     0.834217  s :     0.834217
      pz      :     0.007612  p :     0.018190
      px      :     0.005245
      py      :     0.005334

  5 H s       :     0.827702  s :     0.827702
      pz      :     0.004890  p :     0.018151
      px      :     0.005045
      py      :     0.008216

  6 H s       :     0.832960  s :     0.832960
      pz      :     0.006441  p :     0.018295
      px      :     0.007287
      py      :     0.004568

  7 H s       :     0.816673  s :     0.816673
      pz      :     0.007739  p :     0.018314
      px      :     0.004902
      py      :     0.005673

  8 H s       :     0.835462  s :     0.835462
      pz      :     0.004979  p :     0.017982
      px      :     0.005313
      py      :     0.007690

  9 H s       :     0.807877  s :     0.807877
      pz      :     0.003542  p :     0.018303
      px      :     0.003293
      py      :     0.011468

 10 H s       :     0.801996  s :     0.801996
      pz      :     0.010368  p :     0.018261
      px      :     0.003348
      py      :     0.004545


------------------------
MULLIKEN OVERLAP CHARGES
------------------------
B(  0-C ,  1-C ) :   0.4382 B(  0-C ,  2-C ) :  -0.0850 B(  0-C ,  4-H ) :   0.8405 
B(  0-C ,  5-H ) :   0.8420 B(  0-C ,  6-H ) :   0.8040 B(  0-C ,  7-H ) :  -0.0645 
B(  0-C ,  8-H ) :  -0.0645 B(  1-C ,  2-C ) :   0.3756 B(  1-C ,  3-I ) :  -0.0823 
B(  1-C ,  4-H ) :  -0.0830 B(  1-C ,  5-H ) :  -0.0994 B(  1-C ,  6-H ) :  -0.0721 
B(  1-C ,  7-H ) :   0.8667 B(  1-C ,  8-H ) :   0.8075 B(  1-C , 10-H ) :  -0.1521 
B(  2-C ,  3-I ) :   0.3972 B(  2-C ,  7-H ) :  -0.0897 B(  2-C ,  8-H ) :  -0.0568 
B(  2-C ,  9-H ) :   0.8065 B(  2-C , 10-H ) :   0.8787 B(  3-I ,  9-H ) :  -0.0670 
B(  3-I , 10-H ) :  -0.0701 B(  4-H ,  5-H ) :  -0.0510 B(  9-H , 10-H ) :  -0.0520 



                     *******************************
                     * LOEWDIN POPULATION ANALYSIS *
                     *******************************

----------------------
LOEWDIN ATOMIC CHARGES
----------------------
   0 C :   -0.421892
   1 C :   -0.331363
   2 C :   -0.418645
   3 I :    0.061640
   4 H :    0.149915
   5 H :    0.153855
   6 H :    0.154343
   7 H :    0.163347
   8 H :    0.157950
   9 H :    0.165074
  10 H :    0.165776

-------------------------------
LOEWDIN REDUCED ORBITAL CHARGES
-------------------------------
  0 C s       :     2.976172  s :     2.976172
      pz      :     1.140654  p :     3.382345
      px      :     1.116150
      py      :     1.125541
      dz2     :     0.004663  d :     0.063376
      dxz     :     0.019491
      dyz     :     0.015913
      dx2y2   :     0.006802
      dxy     :     0.016507

  1 C s       :     2.946598  s :     2.946598
      pz      :     1.102645  p :     3.306126
      px      :     1.083465
      py      :     1.120016
      dz2     :     0.008017  d :     0.078639
      dxz     :     0.022351
      dyz     :     0.018998
      dx2y2   :     0.009114
      dxy     :     0.020159

  2 C s       :     3.022835  s :     3.022835
      pz      :     1.138483  p :     3.330271
      px      :     1.029743
      py      :     1.162046
      dz2     :     0.017962  d :     0.065539
      dxz     :     0.012593
      dyz     :     0.008006
      dx2y2   :     0.019048
      dxy     :     0.007930

  3 I s       :     3.765456  s :     3.765456
      pz      :     3.904602  p :    11.067018
      px      :     3.251432
      py      :     3.910983
      dz2     :     2.014775  d :    10.105887
      dxz     :     2.027347
      dyz     :     2.003297
      dx2y2   :     2.035952
      dxy     :     2.024516

  4 H s       :     0.806687  s :     0.806687
      pz      :     0.018415  p :     0.043398
      px      :     0.012192
      py      :     0.012791

  5 H s       :     0.802602  s :     0.802602
      pz      :     0.011257  p :     0.043542
      px      :     0.012041
      py      :     0.020245

  6 H s       :     0.802138  s :     0.802138
      pz      :     0.015675  p :     0.043519
      px      :     0.017466
      py      :     0.010378

  7 H s       :     0.792387  s :     0.792387
      pz      :     0.019192  p :     0.044266
      px      :     0.011040
      py      :     0.014034

  8 H s       :     0.798663  s :     0.798663
      pz      :     0.011726  p :     0.043387
      px      :     0.012778
      py      :     0.018883

  9 H s       :     0.788623  s :     0.788623
      pz      :     0.008366  p :     0.046303
      px      :     0.007853
      py      :     0.030084

 10 H s       :     0.787847  s :     0.787847
      pz      :     0.027416  p :     0.046378
      px      :     0.007872
      py      :     0.011089


---------------------------------
LOEWDIN BOND ORDERS (THRESH 0.050000)
---------------------------------
B(  0-C ,  1-C ) :   1.1442 B(  0-C ,  2-C ) :   0.0775 B(  0-C ,  4-H ) :   0.9301 
B(  0-C ,  5-H ) :   0.9289 B(  0-C ,  6-H ) :   0.9273 B(  1-C ,  2-C ) :   1.1175 
B(  1-C ,  3-I ) :   0.1170 B(  1-C ,  7-H ) :   0.8949 B(  1-C ,  8-H ) :   0.8955 
B(  2-C ,  3-I ) :   1.3120 B(  2-C ,  9-H ) :   0.9054 B(  2-C , 10-H ) :   0.8986 


------------------------------------------
LOEWDIN REDUCED ORBITAL POPULATIONS PER MO
-------------------------------------------
THRESHOLD FOR PRINTING IS 0.1%%
                      0         1         2         3         4         5   
                 -10.08465 -10.04639 -10.03087  -6.80453  -4.82302  -4.80696
                   2.00000   2.00000   2.00000   2.00000   2.00000   2.00000
                  --------  --------  --------  --------  --------  --------
 0 C  s               0.0       0.0      99.7       0.0       0.0       0.0
 1 C  s               0.0      99.7       0.0       0.0       0.0       0.0
 2 C  s              99.7       0.0       0.0       0.0       0.0       0.0
 2 C  px              0.0       0.0       0.0       0.2       0.0       0.0
 3 I  s               0.0       0.0       0.0      99.7       0.0       0.0
 3 I  pz              0.0       0.0       0.0       0.0       7.1      33.7
 3 I  px              0.0       0.0       0.0       0.0      86.5      13.3
 3 I  py              0.0       0.0       0.0       0.0       6.4      53.0

                      6         7         8         9        10        11   
                  -4.80678  -1.85845  -1.85425  -1.85403  -1.84105  -1.84103
                   2.00000   2.00000   2.00000   2.00000   2.00000   2.00000
                  --------  --------  --------  --------  --------  --------
 3 I  pz             59.2       0.0       0.0       0.0       0.0       0.0
 3 I  px              0.2       0.0       0.0       0.0       0.0       0.0
 3 I  py             40.5       0.0       0.0       0.0       0.0       0.0
 3 I  dz2             0.0      15.7       9.6       9.9       6.1      58.7
 3 I  dxz             0.0      17.8      29.8      40.0       9.8       2.6
 3 I  dyz             0.0       1.2      11.5       0.1      75.1      12.2
 3 I  dx2y2           0.0      48.7      24.6       3.8       7.3      15.6
 3 I  dxy             0.0      16.5      24.6      46.2       1.7      10.9

                     12        13        14        15        16        17   
                  -0.77587  -0.69086  -0.61864  -0.56519  -0.44701  -0.42104
                   2.00000   2.00000   2.00000   2.00000   2.00000   2.00000
                  --------  --------  --------  --------  --------  --------
 0 C  s              13.7      18.4      11.2       4.4       0.2       0.2
 0 C  pz              0.4       0.1       0.3       4.3       0.3       7.2
 0 C  px              1.7       0.1       1.3       1.4      12.4       0.9
 0 C  py              1.3       0.0       1.1       1.5       2.6      20.1
 0 C  dxz             0.0       0.0       0.0       0.1       0.0       0.1
 1 C  s              27.6       2.4       3.5      12.4       0.1       0.3
 1 C  pz              2.0       0.1       0.1      10.1       1.4      12.7
 1 C  px              0.2       7.3       2.5       0.0       8.4       3.9
 1 C  py              0.0       2.9       3.4       0.0      16.5       4.6
 1 C  dxz             0.0       0.1       0.1       0.0       0.0       0.0
 1 C  dxy             0.1       0.0       0.0       0.1       0.0       0.0
 2 C  s              22.5      13.5       4.8       8.4       0.0       0.5
 2 C  pz              1.1       0.1       0.0       9.8       1.0       1.7
 2 C  px              0.8       6.8       8.1       0.2       0.1       7.3
 2 C  py              0.7       0.1       0.7       1.5      25.1       5.5
 2 C  dxz             0.1       0.0       0.1       0.1       0.0       0.0
 2 C  dx2y2           0.0       0.0       0.1       0.1       0.0       0.1
 3 I  s               4.1      27.0      44.4       7.5       0.3       2.1
 3 I  pz              0.1       0.1       0.0       0.6       0.0       0.0
 3 I  px              1.6       0.9       1.0       1.0       0.6       4.3
 3 I  py              0.1       0.1       0.1       0.3       0.9       0.9
 3 I  dz2             0.1       0.1       0.1       0.0       0.0       0.1
 3 I  dxz             0.1       0.1       0.0       0.3       0.0       0.0
 3 I  dx2y2           0.4       0.2       0.2       0.1       0.2       0.1
 3 I  dxy             0.1       0.1       0.0       0.2       0.3       0.2
 4 H  s               1.9       3.5       3.3       2.9       2.0       4.2
 4 H  pz              0.1       0.2       0.1       0.1       0.1       0.1
 4 H  px              0.0       0.1       0.0       0.0       0.0       0.1
 5 H  s               1.8       3.6       3.4       2.6       2.3       2.1
 5 H  pz              0.0       0.1       0.0       0.0       0.0       0.1
 5 H  py              0.1       0.2       0.1       0.1       0.1       0.0
 6 H  s               1.8       4.0       3.9       1.4       2.1       6.6
 6 H  pz              0.0       0.1       0.1       0.1       0.1       0.1
 6 H  px              0.1       0.2       0.1       0.0       0.0       0.2
 7 H  s               3.7       0.4       0.6       8.0       2.3       6.2
 7 H  pz              0.2       0.0       0.0       0.2       0.2       0.1
 7 H  px              0.1       0.0       0.0       0.1       0.0       0.0
 7 H  py              0.1       0.0       0.0       0.2       0.0       0.0
 8 H  s               3.8       0.5       1.3       6.3       7.7       0.9
 8 H  pz              0.1       0.0       0.0       0.0       0.1       0.2
 8 H  px              0.1       0.0       0.1       0.1       0.0       0.0
 8 H  py              0.2       0.0       0.0       0.3       0.1       0.0
 9 H  s               3.1       3.2       1.8       4.7       8.7       4.1
 9 H  py              0.3       0.3       0.2       0.3       0.2       0.1
10 H  s               3.4       2.5       1.1       7.3       2.8       1.2
10 H  pz              0.3       0.2       0.1       0.3       0.2       0.0
10 H  py              0.0       0.0       0.0       0.1       0.0       0.0

                     18        19        20        21        22        23   
                  -0.39589  -0.35996  -0.33313  -0.32651  -0.30252  -0.23194
                   2.00000   2.00000   2.00000   2.00000   2.00000   2.00000
                  --------  --------  --------  --------  --------  --------
 0 C  s               0.1       0.1       0.2       0.6       0.1       0.0
 0 C  pz             19.3       0.7      23.6       0.1       0.5       0.0
 0 C  px              0.5      27.0       1.2       3.4       5.5       0.4
 0 C  py              2.3       4.0       0.1      22.4       0.8       0.1
 0 C  dxz             0.0       0.0       0.2       0.5       0.0       0.0
 0 C  dyz             0.0       0.4       0.0       0.0       0.2       0.0
 0 C  dx2y2           0.0       0.0       0.1       0.0       0.1       0.0
 0 C  dxy             0.2       0.0       0.5       0.0       0.0       0.0
 1 C  s               0.0       0.1       0.3       0.1       0.0       0.6
 1 C  pz              2.4       1.4      21.2       1.6       1.9       0.1
 1 C  px             13.0       5.0       0.6       1.6       9.0       2.5
 1 C  py              2.8       0.7       0.1      19.7       5.2       0.0
 1 C  dz2             0.0       0.0       0.1       0.0       0.2       0.0
 1 C  dxz             0.0       0.0       0.2       0.5       0.1       0.0
 1 C  dyz             0.0       0.1       0.0       0.0       0.6       0.0
 1 C  dx2y2           0.0       0.3       0.1       0.0       0.0       0.0
 1 C  dxy             0.0       0.0       0.6       0.2       0.0       0.0
 2 C  s               0.1       0.5       0.9       0.0       0.0       0.0
 2 C  pz             28.0       2.0       7.7       1.2       2.6       0.7
 2 C  px              1.5       3.2       5.4       6.1      11.3       0.5
 2 C  py              1.0      12.8       0.8       5.0       3.0       0.6
 2 C  dz2             0.1       0.1       0.1       0.3       0.1       0.0
 2 C  dxz             0.1       0.0       0.0       0.1       0.0       0.1
 2 C  dyz             0.1       0.0       0.0       0.1       0.0       0.0
 2 C  dx2y2           0.0       0.1       0.0       0.0       0.4       0.1
 3 I  s               0.0       1.5       0.1       0.4       1.1       0.0
 3 I  pz              2.2       0.1       1.3       0.0       5.0      44.4
 3 I  px              0.1      12.3       0.6       4.0      22.7      13.5
 3 I  py              0.1       0.1       0.2       3.8       2.3      34.8
 3 I  dz2             0.1       0.0       0.1       0.1       0.0       0.0
 3 I  dxz             0.5       0.0       0.1       0.0       0.2       0.0
 3 I  dx2y2           0.0       0.5       0.0       0.0       0.1       0.0
 3 I  dxy             0.0       0.0       0.0       0.2       0.0       0.0
 4 H  s               2.6       8.5       5.8       2.2       3.3       0.0
 4 H  pz              0.0       0.2       0.0       0.1       0.0       0.0
 4 H  py              0.1       0.0       0.1       0.1       0.0       0.0
 5 H  s               5.4       7.3       3.8       4.8       2.8       0.1
 5 H  pz              0.0       0.1       0.1       0.0       0.0       0.0
 5 H  px              0.1       0.0       0.0       0.2       0.0       0.0
 5 H  py              0.1       0.1       0.1       0.0       0.0       0.0
 6 H  s               2.8       3.0      10.0       3.9       0.5       0.1
 6 H  pz              0.0       0.1       0.0       0.1       0.0       0.0
 6 H  px              0.1       0.0       0.1       0.0       0.0       0.0
 6 H  py              0.1       0.1       0.0       0.1       0.0       0.0
 7 H  s               0.2       0.8       6.1       0.8      10.2       0.2
 7 H  px              0.2       0.0       0.1       0.0       0.0       0.0
 7 H  py              0.0       0.1       0.1       0.1       0.0       0.0
 8 H  s               0.8       0.1       4.6       7.7       5.9       0.2
 8 H  px              0.1       0.0       0.0       0.2       0.0       0.0
 8 H  py              0.1       0.0       0.1       0.0       0.0       0.0
 9 H  s               0.4       5.8       0.1       3.0       2.3       0.6
 9 H  pz              0.2       0.0       0.1       0.0       0.0       0.0
 9 H  px              0.0       0.0       0.1       0.1       0.1       0.0
10 H  s              11.7       0.1       2.1       4.0       1.2       0.1
10 H  pz              0.2       0.0       0.0       0.1       0.0       0.0
10 H  px              0.1       0.0       0.1       0.0       0.1       0.0

                     24        25        26        27        28        29   
                  -0.23078  -0.05748   0.08783   0.09521   0.11315   0.12965
                   2.00000   0.00000   0.00000   0.00000   0.00000   0.00000
                  --------  --------  --------  --------  --------  --------
 0 C  s               0.0       0.4       9.8      14.7       1.5      15.2
 0 C  pz              0.0       0.0       0.9       1.4       0.2      11.5
 0 C  px              0.0       0.1       4.3       5.6       1.0       4.0
 0 C  py              0.1       0.3       3.1       1.9       0.2       6.2
 0 C  dz2             0.0       0.0       0.1       0.1       0.3       0.0
 0 C  dxz             0.0       0.0       0.6       0.2       0.0       0.1
 0 C  dyz             0.0       0.0       0.3       0.0       0.0       0.2
 0 C  dx2y2           0.0       0.0       0.1       0.0       0.2       0.0
 0 C  dxy             0.0       0.0       0.3       0.0       0.2       0.1
 1 C  s               0.0       0.1      14.2       2.2       3.0      10.3
 1 C  pz              0.1       0.5       2.6       4.0       5.7       4.8
 1 C  px              0.1       0.2       0.5       6.8       8.5       0.5
 1 C  py              0.1       0.1       1.4       5.6       1.1       2.4
 1 C  dz2             0.0       0.2       0.1       0.0       0.2       0.1
 1 C  dxz             0.0       0.1       0.0       0.9       0.1       0.0
 1 C  dyz             0.0       0.3       0.3       0.3       1.1       0.1
 1 C  dx2y2           0.0       0.2       0.0       0.0       0.0       0.0
 1 C  dxy             0.0       0.0       0.0       1.9       1.0       0.0
 2 C  s               0.0       7.0      11.8       1.8      12.2       1.7
 2 C  pz              0.8       3.0       5.1       1.6       3.4       8.6
 2 C  px              0.0      23.1       0.6       2.2      11.1       1.2
 2 C  py              1.3       2.4       1.5       2.1       7.3       1.6
 2 C  dz2             0.1       0.1       0.0       2.2       0.1       0.2
 2 C  dxz             0.1       0.0       0.5       0.0       1.0       0.1
 2 C  dyz             0.0       0.0       0.4       0.5       0.4       0.0
 2 C  dx2y2           0.0       0.2       1.1       0.1       0.8       0.1
 2 C  dxy             0.1       0.0       0.0       0.1       0.3       0.2
 3 I  s               0.0       3.1       1.4       0.3       3.0       0.1
 3 I  pz             41.3       2.4       0.3       0.5       0.6       3.8
 3 I  px              0.0      32.3       0.6       0.0       0.8       0.1
 3 I  py             51.9       2.3       0.0       0.5       1.8       1.6
 3 I  dz2             0.0       2.8       0.9       2.6       0.6       0.0
 3 I  dxz             0.0       3.3       1.9       2.6       1.5       0.5
 3 I  dyz             0.0       0.1       3.8       1.2       2.3       0.0
 3 I  dx2y2           0.0       7.6       0.0       0.3       2.5       1.5
 3 I  dxy             0.0       3.0       0.4       5.5       2.9       2.4
 4 H  s               0.0       0.1       1.3       1.4       0.8       1.7
 4 H  pz              0.0       0.0       0.3       0.3       0.2       0.9
 4 H  px              0.0       0.0       0.0       0.6       0.0       0.4
 4 H  py              0.0       0.0       0.7       0.2       0.2       0.1
 5 H  s               0.0       0.0       1.7       1.4       0.4       2.3
 5 H  pz              0.0       0.0       0.1       0.0       0.1       0.5
 5 H  px              0.0       0.0       1.1       0.1       0.0       0.1
 5 H  py              0.0       0.0       0.0       0.9       0.1       1.2
 6 H  s               0.0       0.3       3.3       0.6       0.3       0.9
 6 H  pz              0.0       0.0       1.2       0.1       0.5       0.1
 6 H  px              0.0       0.0       0.1       0.5       0.1       0.4
 6 H  py              0.0       0.0       0.0       0.1       0.0       0.1
 7 H  s               0.0       1.7       0.6       1.3       0.5       0.9
 7 H  pz              0.0       0.0       0.1       0.0       1.1       0.6
 7 H  px              0.0       0.1       0.1       0.0       0.3       0.4
 7 H  py              0.0       0.0       0.1       1.2       0.1       0.1
 8 H  s               0.1       0.4       3.0       3.8       4.6       2.5
 8 H  pz              0.0       0.0       0.6       0.0       0.0       0.5
 8 H  px              0.0       0.0       0.4       1.5       0.0       0.2
 8 H  py              0.0       0.0       1.0       0.2       0.5       1.3
 9 H  s               1.6       0.1       4.5       2.4       8.1       0.4
 9 H  pz              0.0       0.1       0.5       0.2       0.3       0.0
 9 H  px              0.0       0.7       0.0       0.1       0.3       0.3
 9 H  py              0.0       0.1       1.5       0.1       3.4       0.1
10 H  s               2.0       0.0       6.1      11.3       0.5       3.2
10 H  pz              0.0       0.1       0.8       2.1       0.1       1.5
10 H  px              0.0       0.6       0.3       0.0       0.6       0.0
10 H  py              0.0       0.1       1.4       0.1       0.0       0.1

                     30        31        32        33        34        35   
                   0.13647   0.15514   0.16565   0.17241   0.18665   0.19049
                   0.00000   0.00000   0.00000   0.00000   0.00000   0.00000
                  --------  --------  --------  --------  --------  --------
 0 C  s               1.9       0.3       0.7       0.1       0.1       0.2
 0 C  pz              4.6       0.8      10.8       2.3       0.2       0.5
 0 C  px              0.4      10.2      11.0       0.4      14.1       5.6
 0 C  py              1.5       9.2       3.6       4.1       6.0       0.2
 0 C  dz2             0.2       0.1       0.0       0.2       0.4       0.2
 0 C  dxz             0.3       0.3       0.2       0.6       0.3       0.2
 0 C  dyz             0.1       1.2       0.1       0.0       1.5       0.3
 0 C  dx2y2           0.2       0.1       0.4       0.0       0.0       0.1
 0 C  dxy             0.0       0.0       2.2       0.1       0.1       0.0
 1 C  s               5.1       0.1       1.0       0.2       0.2       0.6
 1 C  pz              7.3       0.1      19.3       0.5       0.1       1.5
 1 C  px              1.9       3.1       1.2       3.3       0.2       0.2
 1 C  py              6.1       3.5       2.8       0.4       1.0       3.9
 1 C  dz2             0.0       0.1       0.8       0.0       0.0       0.1
 1 C  dxz             1.1       0.0       0.1       0.3       0.1       0.0
 1 C  dyz             0.2       0.2       0.2       0.1       0.0       0.1
 1 C  dx2y2           0.0       0.4       0.0       0.0       0.4       0.0
 1 C  dxy             0.0       0.0       0.0       0.1       0.0       0.3
 2 C  s               1.0       0.1       0.4       4.6       0.1       0.7
 2 C  pz              2.6       5.3       2.0       0.9       1.5      12.6
 2 C  px              3.4       9.3       1.2       1.9       0.0       1.6
 2 C  py              2.2      11.9       0.5       0.6       1.1       0.6
 2 C  dz2             0.0       0.1       0.2       0.0       0.1       0.2
 2 C  dxz             0.3       0.0       0.1       0.6       0.1       0.2
 2 C  dyz             0.0       0.2       0.0       0.0       0.2       0.0
 2 C  dx2y2           1.2       0.7       0.0       0.1       0.0       0.0
 2 C  dxy             0.1       0.0       0.3       0.3       0.1       0.5
 3 I  s               4.2       2.0       0.0       3.9       0.0       0.1
 3 I  pz              5.4       0.0       5.1       0.7       7.3       7.2
 3 I  px              4.0       0.7       0.0      58.7       1.0       0.6
 3 I  py              7.2       1.1       3.8       0.1      12.9      13.9
 3 I  dz2             4.5       0.6       2.4       1.0       3.7       2.5
 3 I  dxz             0.4       0.1       0.6       2.4      10.4      18.1
 3 I  dyz             7.9       3.6       0.6       2.3       0.6       0.2
 3 I  dx2y2           0.0       2.6       1.3       0.0      15.9       3.4
 3 I  dxy             1.0       6.3       4.3       0.5       3.1      11.1
 4 H  s               0.1       8.5       3.1       1.6       4.8       0.6
 4 H  pz              0.1       1.9       0.0       0.7       0.8       0.2
 4 H  px              0.1       0.2       0.4       0.1       0.1       0.3
 4 H  py              0.3       0.7       1.0       0.0       0.0       0.1
 5 H  s               1.1       5.5       2.0       2.8       7.4       0.1
 5 H  pz              0.0       1.2       0.6       0.1       0.4       0.0
 5 H  px              0.2       0.2       0.4       0.5       0.1       0.1
 5 H  py              0.2       0.7       0.7       0.2       0.3       0.0
 6 H  s               0.4       0.1       9.3       0.5       0.3       1.7
 6 H  pz              0.2       0.1       0.6       0.1       0.1       0.5
 6 H  px              0.1       0.0       2.0       0.3       0.6       0.0
 6 H  py              0.0       0.5       0.5       0.1       0.6       0.1
 7 H  s              10.2       0.2       0.2       0.1       0.2       0.0
 7 H  pz              1.6       0.2       0.1       0.0       0.0       0.2
 7 H  px              1.3       0.0       0.1       0.3       0.2       0.2
 7 H  py              0.6       0.0       0.2       0.0       0.2       0.1
 8 H  s               0.3       0.8       0.2       0.4       0.4       4.5
 8 H  pz              0.4       0.1       0.5       0.0       0.0       0.0
 8 H  px              0.0       0.0       0.0       0.0       0.1       0.6
 8 H  py              0.1       0.7       0.0       0.2       0.1       0.8
 9 H  s               4.5       2.9       0.3       0.2       0.2       0.4
 9 H  pz              0.1       0.2       0.0       0.0       0.2       0.1
 9 H  px              0.1       0.0       0.1       0.2       0.1       0.1
 9 H  py              0.8       0.0       0.0       0.0       0.1       0.0
10 H  s               0.3       0.0       0.0       0.0       0.0       1.7
10 H  pz              0.1       0.2       0.2       0.2       0.0       0.1
10 H  px              0.2       0.0       0.0       0.2       0.0       0.0
10 H  py              0.3       0.5       0.0       0.1       0.1       0.1

                     36        37        38        39        40        41   
                   0.19418   0.19764   0.20900   0.21027   0.22151   0.22648
                   0.00000   0.00000   0.00000   0.00000   0.00000   0.00000
                  --------  --------  --------  --------  --------  --------
 0 C  s               1.1       0.2       0.3       0.2       2.1       0.2
 0 C  pz             10.5       3.5      12.3       3.8       2.0      19.0
 0 C  px              2.4       2.5       3.9       0.5       4.4       0.8
 0 C  py              6.2      19.6       9.8       4.0       2.8       1.0
 0 C  dz2             0.1       0.0       0.0       0.2       0.0       0.0
 0 C  dxz             1.4       0.0       0.0       1.5       0.3       0.0
 0 C  dyz             0.1       0.0       1.3       0.3       0.1       0.1
 0 C  dx2y2           0.4       0.1       0.1       0.0       0.0       0.6
 0 C  dxy             0.2       1.4       0.2       0.4       0.5       0.2
 1 C  s               0.5       0.1       0.2       1.0       0.6       0.1
 1 C  pz              0.6       1.4       7.4      13.2       4.7       0.2
 1 C  px              2.3       9.8       4.1       0.1       2.6       4.5
 1 C  py              6.9       2.1       0.9       5.4       3.5       0.7
 1 C  dz2             0.2       0.1       0.1       0.1       0.0       0.3
 1 C  dxz             0.2       0.3       0.8       1.2       0.5       0.0
 1 C  dyz             0.0       0.1       0.4       0.0       0.1       1.0
 1 C  dx2y2           0.0       0.0       0.8       0.0       0.0       0.2
 1 C  dxy             0.1       0.0       0.2       0.6       0.0       0.0
 2 C  s               0.2       0.5       1.1       2.9       0.5       1.3
 2 C  pz              4.1       0.1       4.4       0.2       8.7       0.2
 2 C  px              0.0       5.2       1.2       9.8       0.7       0.1
 2 C  py              1.1       7.8       8.1       0.0       0.3      18.1
 2 C  dz2             0.0       0.0       0.1       0.1       0.4       0.0
 2 C  dxz             0.0       0.2       0.1       0.2       0.0       0.0
 2 C  dyz             0.1       0.0       0.1       0.0       0.1       0.0
 2 C  dx2y2           0.0       0.0       0.0       0.1       0.0       0.1
 2 C  dxy             0.1       0.0       0.1       0.1       0.1       0.0
 3 I  s               0.1       0.3       0.0       0.7       0.1       0.1
 3 I  pz             14.9       1.1       6.8      11.7       7.9       5.9
 3 I  px              3.2       1.9       0.7       1.1       0.1       1.2
 3 I  py              2.1       2.1       0.2       8.9      19.7       1.9
 3 I  dz2             8.6       7.6       1.9       1.8      15.9       0.1
 3 I  dxz             0.2       6.9       0.0       0.9       1.6       0.4
 3 I  dyz             8.0       3.5      10.8       1.6       0.9       9.4
 3 I  dx2y2           1.3       4.6       3.2       3.0       7.2       0.3
 3 I  dxy             0.1       0.3       1.7       1.7       0.0      14.5
 4 H  s               2.8       0.6       1.4       9.7       0.9       0.6
 4 H  pz              0.0       0.0       0.0       0.6       0.0       0.7
 4 H  px              1.0       0.5       0.0       0.7       0.1       0.1
 4 H  py              0.3       0.5       0.0       0.0       0.7       0.0
 5 H  s               2.2       3.1       3.7       0.6       1.4       3.2
 5 H  pz              0.1       0.0       0.8       0.6       0.0       0.0
 5 H  px              0.0       0.3       0.0       0.0       0.5       0.0
 5 H  py              1.9       0.0       0.2       0.0       0.0       0.7
 6 H  s               9.7       0.4       3.2       3.5       1.6       0.7
 6 H  pz              1.1       0.0       0.4       0.0       0.5       0.1
 6 H  px              1.2       0.0       0.6       1.0       0.4       0.0
 6 H  py              0.0       0.6       1.6       0.0       0.0       0.0
 7 H  s               0.4       4.9       0.1       3.3       0.2       1.0
 7 H  pz              0.0       1.0       0.4       0.0       0.1       0.2
 7 H  px              0.1       0.1       0.1       0.3       0.2       0.4
 7 H  py              0.0       0.6       0.0       0.1       0.1       0.0
 8 H  s               0.4       0.9       1.1       0.2       1.5       4.5
 8 H  pz              0.2       0.4       0.1       0.5       0.3       0.5
 8 H  px              0.0       0.3       0.2       0.0       0.4       0.0
 8 H  py              0.1       0.0       0.6       0.1       0.2       0.4
 9 H  s               0.0       1.0       1.2       0.5       0.9       2.2
 9 H  pz              0.1       0.0       0.0       0.0       0.0       0.0
 9 H  px              0.1       0.0       0.1       0.2       0.3       0.0
 9 H  py              0.1       0.9       0.4       0.3       0.1       1.2
10 H  s               0.3       0.3       0.2       0.1       1.1       0.4
10 H  pz              0.0       0.1       0.0       0.1       0.1       0.2
10 H  px              0.2       0.1       0.3       0.2       0.0       0.1

                     42        43        44        45        46        47   
                   0.25918   0.26426   0.28269   0.28733   0.31096   0.33847
                   0.00000   0.00000   0.00000   0.00000   0.00000   0.00000
                  --------  --------  --------  --------  --------  --------
 0 C  s               0.6       0.3       1.0       0.4       1.2       0.5
 0 C  pz              0.8       0.1       1.2      18.6       0.7       0.7
 0 C  px             11.0       2.3       2.0       4.8      12.9       0.2
 0 C  py             10.7       2.7       8.5       3.1       0.0       0.5
 0 C  dz2             0.1       0.1       0.1       0.0       0.0       0.1
 0 C  dxz             0.1       0.0       0.0       0.7       0.0       0.1
 0 C  dyz             0.2       0.0       0.1       0.2       0.0       0.0
 0 C  dx2y2           0.0       0.0       0.0       0.0       0.3       0.1
 0 C  dxy             0.1       0.1       0.2       0.1       0.1       0.2
 1 C  s               0.4       1.9       1.6       0.2       0.7       0.5
 1 C  pz              3.2       2.8      10.7       2.9       1.5       8.4
 1 C  px              3.3       6.0       7.2       1.4       0.3       1.7
 1 C  py              6.2      10.1       1.1       2.6      10.5       8.2
 1 C  dz2             0.0       0.0       0.0       0.4       0.1       0.0
 1 C  dxz             0.0       0.3       0.0       0.8       1.0       0.1
 1 C  dyz             0.2       0.4       1.4       0.0       0.2       0.2
 1 C  dx2y2           0.0       0.1       0.1       0.1       0.0       0.2
 1 C  dxy             0.1       0.1       0.9       0.2       1.7       0.1
 2 C  s               0.4       0.0       0.4       0.3       0.2       9.6
 2 C  pz              5.3       2.3       9.0       8.7       6.7       1.9
 2 C  px              1.2       0.1       1.7       1.7       0.3       4.2
 2 C  py              0.2       6.1       2.0       0.1       1.5       1.6
 2 C  dz2             0.1       0.2       0.1       1.0       0.0       0.0
 2 C  dxz             0.0       0.0       0.0       0.5       0.1       0.2
 2 C  dyz             0.0       0.0       1.3       0.5       0.9       0.0
 2 C  dx2y2           0.0       0.8       0.0       0.3       0.0       0.0
 2 C  dxy             0.0       0.0       0.1       0.1       0.5       0.2
 3 I  s               0.7       0.0       0.6       0.2       0.0       9.0
 3 I  pz              0.0       1.1       0.4      11.2       6.8       0.1
 3 I  px              7.9       2.5       0.4       0.1       0.0       5.5
 3 I  py              0.2       9.6       5.6       0.7       3.9       0.1
 3 I  dz2             3.5      10.3      13.6       0.1       0.3       3.9
 3 I  dxz             0.3       5.9       0.0       1.5      13.1       5.7
 3 I  dyz            21.9       0.0       2.8       5.9       8.3       0.0
 3 I  dx2y2           1.1       3.0       0.0       0.5       1.2      14.4
 3 I  dxy             1.5       0.1       2.6       0.3       5.2       7.4
 4 H  s               0.7       1.5       0.1       1.6       0.4       0.6
 4 H  pz              0.0       0.5       0.4       1.0       0.0       0.0
 4 H  px              0.2       0.2       0.0       0.0       0.0       0.8
 4 H  py              0.1       0.0       0.0       0.5       0.2       0.0
 5 H  s               3.3       0.2       2.3       0.5       0.4       0.1
 5 H  pz              0.4       0.0       0.0       0.3       0.2       0.1
 5 H  px              0.7       0.2       0.1       0.4       0.3       0.1
 5 H  py              1.1       0.2       0.5       0.0       0.1       0.0
 6 H  s               1.4       1.9       0.6       4.6       0.7       1.2
 6 H  pz              0.4       0.5       0.0       0.1       0.0       0.1
 6 H  px              0.0       0.2       0.0       0.0       0.1       0.1
 6 H  py              0.0       0.0       0.2       0.0       0.0       0.3
 7 H  s               5.0       3.3       7.8       2.0       1.3       0.2
 7 H  pz              1.0       0.0       0.5       0.7       1.1       0.1
 7 H  px              0.4       0.0       0.1       0.4       0.0       0.3
 7 H  py              0.9       0.3       1.8       0.0       0.3       0.2
 8 H  s               0.3       4.7       0.2       0.3       8.1       0.5
 8 H  pz              0.4       0.0       1.1       0.0       0.3       0.0
 8 H  px              0.1       0.8       0.9       0.4       0.9       0.0
 8 H  py              0.2       2.1       0.0       0.1       0.2       0.0
 9 H  s               0.2       7.5       0.8       0.3       1.5       4.2
 9 H  pz              0.0       0.2       1.6       0.5       0.8       0.0
 9 H  px              0.1       0.0       0.4       0.2       0.3       0.1
 9 H  py              0.0       2.2       0.1       0.1       0.8       1.3
10 H  s               0.8       2.4       1.9      12.3       0.8       2.9
10 H  pz              0.9       1.6       0.1       3.3       0.0       0.8
10 H  px              0.1       0.0       0.0       0.1       0.2       0.0
10 H  py              0.0       0.0       1.8       0.3       0.6       0.2

                     48        49        50        51        52        53   
                   0.39372   0.41321   0.43377   0.43845   0.46354   0.47997
                   0.00000   0.00000   0.00000   0.00000   0.00000   0.00000
                  --------  --------  --------  --------  --------  --------
 0 C  s               4.4       1.2       2.0       0.0      18.8      32.3
 0 C  pz              3.2       3.3       1.0       2.0       0.4       1.8
 0 C  px              3.6       2.1       2.9       2.0       1.0       3.5
 0 C  py              6.6       2.3       1.5       0.2       1.2       3.0
 0 C  dz2             0.0       0.1       0.0       0.7       0.0       0.0
 0 C  dxz             0.6       0.4       0.0       0.2       0.0       0.0
 0 C  dyz             0.0       0.3       0.6       0.0       0.0       0.2
 0 C  dx2y2           0.4       0.2       0.2       0.0       0.0       0.0
 0 C  dxy             0.7       0.2       0.0       0.0       0.1       0.2
 1 C  s               8.0       0.7       1.6       2.8       2.9      18.6
 1 C  pz              5.8       0.2       5.3       4.4       1.3       1.4
 1 C  px              4.8      40.5       0.2       2.7       2.7       2.5
 1 C  py             12.8       7.3       6.9       0.1       1.6       4.1
 1 C  dz2             0.1       0.1       0.4       0.0       0.0       0.2
 1 C  dxz             0.0       0.8       0.0       0.0       0.1       0.2
 1 C  dyz             0.6       0.1       0.0       0.4       0.1       0.2
 1 C  dx2y2           0.0       0.1       0.3       0.1       0.0       0.0
 1 C  dxy             0.4       0.2       0.1       0.4       0.0       0.0
 2 C  s               1.9       2.5       4.1       0.7      11.2       6.8
 2 C  pz              1.0       0.4      16.6       0.5       4.2       0.1
 2 C  px              3.5       4.7       8.8      34.6       0.6       1.5
 2 C  py              3.3       1.4      13.0       9.3       4.8       5.6
 2 C  dz2             0.0       0.5       1.1       0.6       0.3       0.1
 2 C  dxz             0.5       1.1       0.2       0.0       0.0       0.0
 2 C  dyz             0.1       0.3       0.1       0.0       0.1       0.0
 2 C  dx2y2           0.0       0.0       0.9       0.2       0.1       0.0
 2 C  dxy             0.2       0.2       0.1       0.1       0.0       0.3
 3 I  s               0.2       0.3       0.2       0.7       2.0       1.3
 3 I  pz              0.9       0.8       0.7       0.1       0.0       0.0
 3 I  px              0.6       1.5       0.0       3.3       1.9       0.8
 3 I  py              0.6       0.7       0.3       0.8       0.4       0.6
 3 I  dz2             3.9       0.6       2.5       2.0       0.2       0.0
 3 I  dxz             6.9       6.6       3.5       0.9       0.0       0.2
 3 I  dyz             0.1       2.0       0.1       0.8       0.9       0.2
 3 I  dx2y2           1.4       0.5       0.3      15.7       1.7       0.1
 3 I  dxy             1.8       5.8       5.7       2.1       1.6       5.8
 4 H  s               4.1       0.6       0.2       0.0       4.8       1.3
 4 H  pz              0.9       0.0       0.0       0.2       0.7       0.1
 4 H  px              0.2       0.4       0.1       0.5       0.6       0.2
 4 H  py              0.4       0.0       0.5       0.0       0.4       0.3
 5 H  s               0.5       0.8       1.2       0.3       7.3       0.5
 5 H  pz              0.0       0.0       0.5       0.2       0.4       0.0
 5 H  px              0.5       0.1       0.1       0.0       0.4       0.6
 5 H  py              0.4       0.1       0.3       0.2       1.8       0.1
 6 H  s               0.4       1.0       0.1       1.5       6.2       0.7
 6 H  pz              0.1       0.1       0.0       0.8       0.9       0.2
[...]
 6 H  px              5.7       2.0       0.9       3.0       3.9       0.4
 6 H  py              0.6       6.6       0.4       0.9       0.7       0.0
 7 H  s               0.5       0.1       0.1       0.1       0.8       2.8
 7 H  pz              2.9       7.8       0.1       0.9       2.0       4.4
 7 H  px              0.1       1.8       3.5       0.2       1.8       2.4
 7 H  py              4.0       2.4       0.3       0.5       1.7       1.9
 8 H  s               0.5       0.1       0.0       0.1       2.0       0.4
 8 H  pz              3.0       5.8       0.9       0.2       1.5       0.9
 8 H  px              0.2       0.4       5.4       0.6       2.5       0.8
 8 H  py              9.8       0.0       0.1       0.1       6.7       0.0
 9 H  s               0.2       0.0       0.0       1.1       2.6       3.4
 9 H  pz              0.0       0.2       5.6       0.1       0.1       0.0
 9 H  px              0.0       1.3       0.0       0.0       0.0       0.0
 9 H  py              0.5       0.1       0.3      10.7      13.6      11.2
10 H  s               0.2       0.1       0.0       1.0       1.3       0.1
10 H  pz              1.2       0.0       2.9       9.8       6.3       0.1
10 H  px              0.8       1.6       0.5       0.2       0.1       0.1
10 H  py              0.0       0.1       5.7       1.5       1.7       0.1

                    114       115       116       117       118       119   
                   3.47636   3.51433   3.53757   3.58206   3.63619   4.24930
                   0.00000   0.00000   0.00000   0.00000   0.00000   0.00000
                  --------  --------  --------  --------  --------  --------
 0 C  s               0.0       1.9       0.0       0.3       0.0       0.0
 0 C  pz              0.4       0.3       1.2       7.3       0.4       0.0
 0 C  px              2.4       2.2       6.1       0.4       0.7       0.0
 0 C  py              1.0       9.9       0.8       0.5       1.0       0.0
 0 C  dz2             0.5       0.1       1.1       0.7       0.6       0.0
 0 C  dxz             0.1      18.4       0.9       4.7       0.8       0.0
 0 C  dyz             3.1       0.2       9.4       3.2       2.7       0.0
 0 C  dx2y2           1.3       0.0       3.0       0.6       0.4       0.0
 0 C  dxy             1.2       1.2       3.5       7.8       1.9       0.0
 1 C  s               1.3       1.5       0.1       1.2       0.1       0.0
 1 C  pz              2.3       4.2       0.0       4.4       0.1       0.0
 1 C  px              3.3       3.5       0.2       0.9       2.5       0.0
 1 C  py              0.7       0.7       1.0       0.2       5.4       0.0
 1 C  dz2             0.1       1.3       0.0       0.4       2.0       0.0
 1 C  dxz             0.1       0.6       2.0       1.1       4.0       0.0
 1 C  dyz             4.5       3.5       0.1       3.3       8.8       0.0
 1 C  dx2y2           1.4       0.0       0.0       0.7       0.7       0.0
 1 C  dxy             3.3       6.1       0.0       6.1       3.4       0.0
 2 C  s               0.7       0.1       0.2       0.2       0.1       0.5
 2 C  pz              6.3       0.0       3.0       0.0       0.2       0.0
 2 C  px              0.5       0.0       0.1       0.3       0.1       0.3
 2 C  py              0.2       0.5       1.6       1.4       3.2       0.0
 2 C  dz2             4.9       0.4       6.4       1.2       3.5       0.0
 2 C  dxz             3.6       0.0       1.7       0.1       0.0       0.0
 2 C  dyz             5.3       0.0       2.1       0.1       0.2       0.0
 2 C  dx2y2           0.2       0.5       0.4       1.3       3.5       0.1
 2 C  dxy             0.3       0.0       0.0       0.7       0.3       0.0
 3 I  s               0.1       0.0       0.0       0.0       0.0      98.5
 4 H  s               0.5       1.5       0.4       6.0       0.4       0.0
 4 H  pz              1.4       1.3       1.2       7.4       0.7       0.0
 4 H  px              0.0       1.1       0.0       4.1       0.2       0.0
 4 H  py              0.3       0.1       0.2       4.3       0.1       0.0
 5 H  s               2.6       2.1       5.0       0.0       2.2       0.0
 5 H  pz              0.8       1.7       1.9       0.1       0.7       0.0
 5 H  px              1.3       3.2       2.3       0.1       0.6       0.0
 5 H  py              3.8       2.6       7.9       0.2       4.1       0.0
 6 H  s               1.0       3.9       4.3       2.3       0.3       0.0
 6 H  pz              1.3       6.4       4.7       1.0       0.1       0.0
 6 H  px              0.4       5.7       3.9       3.4       0.5       0.0
 6 H  py              0.8       0.2       2.4       0.7       0.0       0.0
 7 H  s               0.1       2.3       0.2       3.8       2.9       0.0
 7 H  pz              0.2       2.5       0.6       6.2       4.5       0.0
 7 H  px              0.3       0.6       0.0       2.0       1.0       0.0
 7 H  py              0.1       4.1       0.0       3.5       0.9       0.0
 8 H  s               3.4       0.2       0.1       0.1       6.7       0.0
 8 H  pz              1.3       0.1       0.0       0.0       3.5       0.0
 8 H  px              2.8       0.8       0.1       0.4       3.0       0.0
 8 H  py              6.7       0.6       0.0       0.3       9.1       0.0
 9 H  s               0.2       0.4       1.4       1.1       2.9       0.0
 9 H  pz              0.2       0.0       0.2       0.0       0.0       0.0
 9 H  py              0.1       1.2       3.0       2.7       6.1       0.0
10 H  s               5.2       0.0       3.9       0.5       1.0       0.0
10 H  pz             13.1       0.0      10.1       0.6       1.8       0.0
10 H  px              0.3       0.0       0.1       0.0       0.0       0.0
10 H  py              2.5       0.0       1.0       0.0       0.1       0.0

                    120       121       122       123       124       125   
                  21.78643  21.93434  21.95551  34.43615  34.43841  34.55847
                   0.00000   0.00000   0.00000   0.00000   0.00000   0.00000
                  --------  --------  --------  --------  --------  --------
 0 C  s              26.0      45.8      27.8       0.0       0.0       0.0
 1 C  s               8.0      19.9      71.8       0.0       0.0       0.0
 2 C  s              65.6      34.0       0.1       0.0       0.0       0.0
 3 I  pz              0.0       0.0       0.0      95.1       1.2       3.7
 3 I  px              0.0       0.0       0.0       2.9       3.9      93.1
 3 I  py              0.0       0.0       0.0       2.0      94.9       3.1

                    126       127   
                  42.32775 117.83012
                   0.00000   0.00000
                  --------  --------
 3 I  s             100.0     100.0


                      *****************************
                      * MAYER POPULATION ANALYSIS *
                      *****************************

  NA   - Mulliken gross atomic population
  ZA   - Total nuclear charge
  QA   - Mulliken gross atomic charge
  VA   - Mayer's total valence
  BVA  - Mayer's bonded valence
  FA   - Mayer's free valence

  ATOM       NA         ZA         QA         VA         BVA        FA
  0 C      6.4815     6.0000    -0.4815     3.8298     3.8298    -0.0000
  1 C      6.2014     6.0000    -0.2014     3.5965     3.5965     0.0000
  2 C      6.2921     6.0000    -0.2921     3.7410     3.7410     0.0000
  3 I     25.1406    25.0000    -0.1406     1.0179     1.0179    -0.0000
  4 H      0.8524     1.0000     0.1476     0.9607     0.9607    -0.0000
  5 H      0.8459     1.0000     0.1541     0.9601     0.9601     0.0000
  6 H      0.8513     1.0000     0.1487     0.9625     0.9625    -0.0000
  7 H      0.8350     1.0000     0.1650     0.9580     0.9580     0.0000
  8 H      0.8534     1.0000     0.1466     0.9617     0.9617     0.0000
  9 H      0.8262     1.0000     0.1738     0.9518     0.9518     0.0000
 10 H      0.8203     1.0000     0.1797     0.9499     0.9499     0.0000

  Mayer bond orders larger than 0.100000
B(  0-C ,  1-C ) :   0.8935 B(  0-C ,  4-H ) :   0.9793 B(  0-C ,  5-H ) :   0.9770 
B(  0-C ,  6-H ) :   0.9678 B(  1-C ,  2-C ) :   0.8668 B(  1-C ,  7-H ) :   0.9724 
B(  1-C ,  8-H ) :   0.9648 B(  2-C ,  3-I ) :   0.9683 B(  2-C ,  9-H ) :   0.9536 
B(  2-C , 10-H ) :   0.9670 

-------
TIMINGS
-------

Total SCF time: 0 days 0 hours 0 min 4 sec 

Total time                  ....       4.033 sec
Sum of individual times     ....       4.014 sec  ( 99.5%)

SCF preparation             ....       0.030 sec  (  0.8%)
Fock matrix formation       ....       3.892 sec  ( 96.5%)
  Startup                   ....       0.002 sec  (  0.0% of F)
  Split-RI-J                ....       0.594 sec  ( 15.3% of F)
  XC integration            ....       3.285 sec  ( 84.4% of F)
    XC Preparation          ....       0.000 sec  (  0.0% of XC)
    Basis function eval.    ....       0.662 sec  ( 20.2% of XC)
    Density eval.           ....       0.964 sec  ( 29.3% of XC)
    XC-Functional eval.     ....       0.586 sec  ( 17.8% of XC)
    XC-Potential eval.      ....       0.982 sec  ( 29.9% of XC)
Diagonalization             ....       0.000 sec  (  0.0%)
Density matrix formation    ....       0.014 sec  (  0.3%)
Total Energy calculation    ....       0.001 sec  (  0.0%)
Population analysis         ....       0.041 sec  (  1.0%)
Orbital Transformation      ....       0.008 sec  (  0.2%)
Orbital Orthonormalization  ....       0.000 sec  (  0.0%)
DIIS solution               ....       0.021 sec  (  0.5%)
  MO trafo                  ....       0.000 sec  (  0.0 % of DIIS)
  Orb grad                  ....       0.000 sec  (  0.0 % of DIIS)
  Energy W gradient         ....       0.000 sec  (  0.0 % of DIIS)
  DIIS error                ....       0.002 sec  (  8.5 % of DIIS)
  DIIS work                 ....       0.013 sec  ( 65.0 % of DIIS)
  Form Q                    ....       0.000 sec  (  0.0 % of DIIS)
  Form QpQm                 ....       0.000 sec  (  0.0 % of DIIS)
  Exp/Cayley                ....       0.000 sec  (  0.0 % of DIIS)
  Orb update                ....       0.000 sec  (  0.0 % of DIIS)
  Wake-sleep                ....       0.000 sec  (  1.6 % of DIIS)
SOSCF solution              ....       0.007 sec  (  0.2%)
  MO trafo                  ....       0.003 sec  ( 49.7 % of SOSCF)
  Orb grad                  ....       0.000 sec  (  1.6 % of SOSCF)
  Rot update                ....       0.001 sec  (  7.9 % of SOSCF)
  Step                      ....       0.003 sec  ( 40.2 % of SOSCF)
Finished LeanSCF after   4.0 sec

Maximum memory used throughout the entire LEANSCF-calculation: 13.9 MB


-------------------------------------------------------------------------------
                          DFT DISPERSION CORRECTION                            
                                                                               
                                DFTD4 V3.4.0                                   
-------------------------------------------------------------------------------
The R2SCAN3C composite method is recognized
Using three-body term ABC
Active option DFTDOPT                   ...         5   

-------------------------   ----------------
Dispersion correction           -0.002465652
-------------------------   ----------------

------------------   -----------------
gCP correction             0.005043676
------------------   -----------------

-------------------------   --------------------
FINAL SINGLE POINT ENERGY      -416.223905701343
-------------------------   --------------------


------------------------------------------------------------------------------
                              ORCA PROPERTY CALCULATIONS
------------------------------------------------------------------------------

GBWName                                 ... sp.gbw
Number of atoms                         ...     11
Number of basis functions               ...    128
Max core memory                         ...   1024 MB

Electric properties:
Dipole moment                           ... YES
Quadrupole moment                       ...  NO
Static polarizability (Dipole/Dipole)   ...  NO
Static polarizability (Dipole/Quad.)    ...  NO
Static polarizability (Quad./Quad.)     ...  NO
Static polarizability (Velocity)        ...  NO

Atomic electric properties:
Dipole moment                           ...  NO
Quadrupole moment                       ...  NO
Static polarizability                   ...  NO

Choice of electric origin               ... Center of mass
Position of electric origin             ...    -0.000059    -0.000003    -0.000004

General magnetic properties:
Magnetizability                         ...  NO

EPR properties:
g-Tensor (aka g-matrix)                 ...  NO
Zero-Field splitting spin-orbit         ...  NO
Zero-field splitting spin-spin          ...  NO
Hyperfine couplings                     ...  NO (   0 nuclei)
Quadrupole couplings                    ...  NO (   0 nuclei)
Contact density                         ...  NO (   0 nuclei)

NMR properties:
Chemical shifts                         ...  NO (   0 nuclei)
Spin-rotation constants                 ...  NO (   0 nuclei)
Spin-spin couplings                     ...  NO (   0 nuclei,    0 pairs)

Choice of magnetic origin               ... GIAO
Position of magnetic origin             ...     0.000000     0.000000     0.000000

Properties with geometric perturbations:
SCF Hessian                             ...  NO
IR spectrum                             ...  NO
VCD spectrum                            ...  NO
X-ray spectroscopy properties:
SCF XES/XAS/RIXS spectra                ...  NO


-------------
DIPOLE MOMENT
-------------

Method             : SCF
Type of density    : Electron Density
Multiplicity       :   1
Irrep              :   0
Energy             :  -416.2264837249609855 Eh
Relativity type    : 
Basis              : AO
                                X                 Y                 Z
Electronic contribution:     73.249681867       4.088110827       4.182024450
Nuclear contribution   :    -74.097525723      -3.964965771      -4.290502616
                        -----------------------------------------
Total Dipole Moment    :     -0.847843856       0.123145056      -0.108478167
                        -----------------------------------------
Magnitude (a.u.)       :      0.863580582
Magnitude (Debye)      :      2.195047396



--------------------
Rotational spectrum 
--------------------
 
Rotational constants in cm-1:             0.549395             0.046477             0.045772 
Rotational constants in MHz :         16470.459271          1393.348986          1372.224860 

Dipole components along the rotational axes: 
x,y,z [a.u.] :    -0.831786     0.232009     0.008651 
x,y,z [Debye]:    -2.114233     0.589720     0.021988 

 

Dipole moment calculation done in   0.0 sec 

Maximum memory used throughout the entire PROP-calculation: 8.1 MB

--------------------------------
SUGGESTED CITATIONS FOR THIS RUN
--------------------------------

Below you find a list of papers that are relevant to this ORCA run
We neither can nor want to force you to cite these papers, but we appreciate if you do
You receive ORCA, which is the product of decades of hard work by many enthusiastic individuals, for free
The only thing we kindly ask in return is that you cite our papers,
We deeply appreciate it, if you show your appreciation for ORCA by not just citing the generic ORCA reference.

Please note that relegating all ORCA citations to the supporting information does *not* help us.
SI sections are not indexed - citations you put there will not count into any citation statistics
But we need these citations in order to attract the funding resources that allow us to do what we are doing

Therefore, if you are a happy ORCA user, please consider citing a few of the papers listed below in the main body of your paper

In addition to the list printed below, the program has created the file sp.bibtex that contains the list in bibtex format
You can import this file easily into all common literature databanks and citation aid programs


List of essential papers. We consider these as the minimum necessary citations

  1. Neese,F.
     Software update: the ORCA program system, version 5.0
     WIRES Comput. Molec. Sci., 2022 12(1)e1606
     doi.org/10.1002/wcms.1606
  2. Grimme,S.; Hansen,A.; Ehlert,S.; Mewes,J.
     r2SCAN-3c: A 'Swiss army knife' composite electronic-structure method
     J. Chem. Phys., 2021 154 064103
     doi.org/10.1063/5.0040021

List of papers to cite with high priority. The work reported in these papers was absolutely
necessary for this run to complete.
Our perspective: the developers of density functionals and basis sets usually get cited in chemistry papers
Good! But without the algorithms to do something with them, the functionals or basis sets would not do anything.
Hence, in our opinion, the algorithm design and method developments papers are equally worthy of getting cited

  1. Neese,F.
     An improvement of the resolution of the identity approximation for the formation of the Coulomb matrix
     J. Comp. Chem., 2003 24(14)1740-1747
     doi.org/10.1002/jcc.10318
  2. Neese,F.
     The SHARK Integral Generation and Digestion System
     J. Comp. Chem., 2022  1-16
     doi.org/10.1002/jcc.26942
  3. Lehtola,S.; Steigemann,C.; Oliveira,M.; Marques,M.
     Recent developments in Libxc - A comprehensive library of functionals for density functional theory
     Software X, 2018 7 
     doi.org/10.1016/j.softx.2017.11.002
  4. Caldeweyher,E.; Bannwarth,C.; Grimme,S.
     Extension of the D3 dispersion coefficient model
     J. Chem. Phys., 2017 147 034112
     doi.org/10.1063/1.4993215
  5. Caldeweyher,E.; Ehlert,S.; Hansen,A.; Neugebauer,H.; Spicher,S.; Bannwarth,C.; Grimme,S.
     A generally applicable atomic-charge dependent London dispersion correction
     J. Chem. Phys., 2019 150 154122
     doi.org/10.1063/1.5090222
  6. Caldeweyher,E.; Mewes,J.; Ehlert,S.; Grimme,S.
     Extension and evaluation of the D4 London-dispersion model for periodic systems
     Phys. Chem. Chem. Phys., 2020 22(16)8499-8512
     doi.org/10.1039/D0CP00502A
  7. Wittmann,L.; Gordiy,I.; Friede,M.; Helmich-Paris,B.; Grimme,S.; Hansen,A.; Bursch,M.
     Extension of the D3 and D4 London Dispersion Corrections to the full Actinides Series
     Phys. Chem. Chem. Phys., 2024 26(32)21379-21394
     doi.org/https://doi.org/10.1039/D4CP01514B 

List of suggested additional citations. These are papers that are important in the 'surrounding' of 
of this run, or papers that preceded the highly important papers. If you like your results we are grateful for a citation.

  1. Neese,F.
     The ORCA program system
     WIRES Comput. Molec. Sci., 2012 2(1)73-78
     doi.org/10.1002/wcms.81
  2. Neese,F.
     Software update: the ORCA program system, version 4.0
     WIRES Comput. Molec. Sci., 2018 8(1)1-6
     doi.org/10.1002/wcms.1327
  3. Neese,F.; Wennmohs,F.; Becker,U.; Riplinger,C.
     The ORCA quantum chemistry program package
     J. Chem. Phys., 2020 152 Art. No. L224108
     doi.org/10.1063/5.0004608

List of optional additional citations

  1. Neese,F.
     Approximate second-order SCF convergence for spin unrestricted wavefunctions
     Chem. Phys. Lett., 2000 325(1-3)93-98
     doi.org/10.1016/s0009-2614(00)00662-x

Timings for individual modules:

Sum of individual times          ...        4.607 sec (=   0.077 min)
Startup calculation              ...        0.460 sec (=   0.008 min)  10.0 %
SCF iterations                   ...        4.101 sec (=   0.068 min)  89.0 %
Property calculations            ...        0.046 sec (=   0.001 min)   1.0 %
                             ****ORCA TERMINATED NORMALLY****
TOTAL RUN TIME: 0 days 0 hours 0 minutes 4 seconds 699 msec
