9
 energy: -10.577727259722 gnorm: 0.014986968109 xtb: 6.7.1 (41059b4)
C           -1.71765174401974        0.37292975385501       -0.03939658044279
C           -0.59461735581621       -0.64717959147389        0.05750234645756
S            1.09263033833101        0.09813397511859       -0.04143884855972
H           -1.69106288468803        1.06843514039275        0.80481789748161
H           -1.63824653843973        0.95563176852372       -0.96043862121173
H           -2.69033456992228       -0.13254944652640       -0.02806230596136
H           -0.62890100041724       -1.34663938607834       -0.78382009766939
H           -0.66595951595930       -1.23749533354065        0.97542744087797
H            0.97509202267030        0.87164804733442        1.05278721807040
9
 energy: -10.578221668141 gnorm: 0.005208973637 xtb: 6.7.1 (41059b4)
C           -1.70823789347224        0.37491976007616       -0.03693543959337
C           -0.60261117873549       -0.65627459402770        0.05335688968235
S            1.06387432034997        0.10543387491101       -0.04299471075905
H           -1.66983592428862        1.06509855731037        0.80608179507709
H           -1.62399421429477        0.94945157858940       -0.95771186513584
H           -2.67559730642046       -0.12737789879034       -0.02660652291062
H           -0.63215990531461       -1.34723248501356       -0.79089128748202
H           -0.65280347992943       -1.22709205994001        0.98212154042916
H            0.94231433384444        0.86598819448988        1.05095804973485
9
 energy: -10.578260875193 gnorm: 0.002006694363 xtb: 6.7.1 (41059b4)
C           -1.70809191570084        0.37357298527883       -0.03595941524101
C           -0.60058134084355       -0.65507159766428        0.05388464280718
S            1.06266847459754        0.10417510542857       -0.04289311285746
H           -1.66516028924546        1.06119028912929        0.80669922643724
H           -1.61939212075218        0.94758144076094       -0.95509672261672
H           -2.67588533357522       -0.12432823871191       -0.02757337748353
H           -0.63229669627439       -1.34378017142706       -0.78953995666112
H           -0.65037918699605       -1.22366821513373        0.98234153762649
H            0.93006716052894        0.86324332994456        1.04551562703148
9
 energy: -10.578266122842 gnorm: 0.000590934624 xtb: 6.7.1 (41059b4)
C           -1.70745906178289        0.37347079447826       -0.03558622966376
C           -0.59988832828347       -0.65660381620485        0.05380726149535
S            1.06152904548800        0.10481328248536       -0.04137392792078
H           -1.66437783213419        1.06001943245437        0.80782118478893
H           -1.61730346476183        0.94867988975709       -0.95394808500237
H           -2.67566842817461       -0.12312701159735       -0.02859031624492
H           -0.63359930875139       -1.34542920845007       -0.78920394813177
H           -0.65144215496702       -1.22580578085401        0.98160026325714
H            0.92915828510620        0.86689734553640        1.04285224646472
9
 energy: -10.578267145247 gnorm: 0.000348965705 xtb: 6.7.1 (41059b4)
C           -1.70705808272334        0.37395045130261       -0.03508178345436
C           -0.59909413144389       -0.65709208965422        0.05448205401566
S            1.06209181322278        0.10344876149409       -0.04128380267582
H           -1.66531142053347        1.05952378850402        0.80952443638775
H           -1.61559679929950        0.95058995925544       -0.95280150983640
H           -2.67530213344469       -0.12291745907121       -0.02998656189928
H           -0.63323035274618       -1.34607721331247       -0.78870527722145
H           -0.65224351378863       -1.22745497177378        0.98186448765185
H            0.92669337249571        0.86894370086073        1.03936640607459
9
 energy: -10.578267530017 gnorm: 0.000170811156 xtb: 6.7.1 (41059b4)
C           -1.70698349324514        0.37384389699603       -0.03496824841274
C           -0.59926236858108       -0.65714923272855        0.05441969471327
S            1.06235978427922        0.10241594149566       -0.04077865630214
H           -1.66552975692700        1.05870112366686        0.81024388736114
H           -1.61485489931403        0.95110627621824       -0.95214889115153
H           -2.67522697933455       -0.12309015793750       -0.03078027473477
H           -0.63371866572404       -1.34612565203244       -0.78886845139550
H           -0.65252599048969       -1.22734768841371        0.98199131915028
H            0.92669112107511        0.87056042034062        1.03826806981454
9
 energy: -10.578267724404 gnorm: 0.000090013889 xtb: 6.7.1 (41059b4)
C           -1.70665482747960        0.37379049045434       -0.03478292974668
C           -0.59945877403566       -0.65744110205206        0.05464397025117
S            1.06232894522943        0.10170549122840       -0.04084992647868
H           -1.66587672883051        1.05778260652057        0.81107440700767
H           -1.61375840091736        0.95188348609376       -0.95125615366066
H           -2.67494902613283       -0.12292871971075       -0.03192308468351
H           -0.63402014612877       -1.34632246188637       -0.78865505261881
H           -0.65272112382578       -1.22754456132437        0.98224887661967
H            0.92605883385989        0.87198969828170        1.03687834235238
9
 energy: -10.578267819883 gnorm: 0.000068493286 xtb: 6.7.1 (41059b4)
C           -1.70653980760572        0.37375505854282       -0.03460360922760
C           -0.59950159229908       -0.65766987156064        0.05477003459425
S            1.06241604075552        0.10124862207339       -0.04088725289528
H           -1.66628647035915        1.05708642513152        0.81182527394093
H           -1.61281039889396        0.95256187529234       -0.95056592596668
H           -2.67497610760482       -0.12272198938129       -0.03290613176352
H           -0.63422358982412       -1.34667768535445       -0.78839951025046
H           -0.65275360781029       -1.22766045803897        0.98242093339087
H            0.92562428538041        0.87299295090049        1.03572463722002
