
                                 *****************
                                 * O   R   C   A *
                                 *****************

                                            #,                                       
                                            ###                                      
                                            ####                                     
                                            #####                                    
                                            ######                                   
                                           ########,                                 
                                     ,,################,,,,,                         
                               ,,#################################,,                 
                          ,,##########################################,,             
                       ,#########################################, ''#####,          
                    ,#############################################,,   '####,        
                  ,##################################################,,,,####,       
                ,###########''''           ''''###############################       
              ,#####''   ,,,,##########,,,,          '''####'''          '####       
            ,##' ,,,,###########################,,,                        '##       
           ' ,,###''''                  '''############,,,                           
         ,,##''                                '''############,,,,        ,,,,,,###''
      ,#''                                            '''#######################'''  
     '                                                          ''''####''''         
             ,#######,   #######,   ,#######,      ##                                
            ,#'     '#,  ##    ##  ,#'     '#,    #''#        ,####,   ,####,        
            ##       ##  ##   ,#'  ##            #'  '#       #'       #'  '#        
            ##       ##  #######   ##           ,######,      #####,   #    #        
            '#,     ,#'  ##    ##  '#,     ,#' ,#      #,     #,   #   #,  ,#        
             '#######'   ##     ##  '#######'  #'      '#     '####' # '####'        



                #########################################################
                #                        -***-                          #
                #          Department of theory and spectroscopy        #
                #                                                       #
                #                      Frank Neese                      #
                #                                                       #
                #     Directorship, Architecture, Infrastructure        #
                #                    SHARK, DRIVERS                     #
                #        Core code/Algorithms in most modules           #
                #                                                       #
                #        Max Planck Institute fuer Kohlenforschung      #
                #                Kaiser Wilhelm Platz 1                 #
                #                 D-45470 Muelheim/Ruhr                 #
                #                      Germany                          #
                #                                                       #
                #                  All rights reserved                  #
                #                        -***-                          #
                #########################################################


                         Program Version 6.0.1  -  RELEASE   -


 With contributions from (in alphabetic order):
[Max-Planck-Institut fuer Kohlenforschung]                               
  Daniel Aravena         : Magnetic Suceptibility                        
  Michael Atanasov       : Ab Initio Ligand Field Theory (pilot matlab implementation)
  Alexander A. Auer      : GIAO ZORA, VPT2 properties, NMR spectrum      
  Ute Becker             : All parallelization in ORCA, NUMFREQ, NUMCALC 
  Giovanni Bistoni       : ED, misc. LED, open-shell LED, HFLD           
  Martin Brehm           : Molecular dynamics                            
  Dmytro Bykov           : pre 5.0 version of the SCF Hessian            
  Marcos Casanova-Páez   : Triplet and SCS-CIS(D). UHF-(DLPNO)-IP/EA/STEOM-CCSD. UHF-CVS-IP/STEOM-CCSD   
  Vijay G. Chilkuri      : MRCI spin determinant printing, contributions to CSF-ICE 
  Pauline Colinet        : FMM embedding                                 
  Dipayan Datta          : RHF DLPNO-CCSD density                        
  Achintya Kumar Dutta   : EOM-CC, STEOM-CC                              
  Nicolas Foglia         : Exact transition moments, OPA infrastructure, MCD improvements    
  Dmitry Ganyushin       : Spin-Orbit,Spin-Spin,Magnetic field MRCI      
  Miquel Garcia-Rates    : C-PCM and meta-GGA Hessian, CCSD/C-PCM, Gaussian charge scheme 
  Tiago L. C. Gouveia    : GS-ROHF, GS-ROCIS                             
  Yang Guo               : DLPNO-NEVPT2, F12-NEVPT2, CIM, IAO-localization        
  Andreas Hansen         : Spin unrestricted coupled pair/coupled cluster methods 
  Ingolf Harden          : AUTO-CI MPn and infrastructure                
  Benjamin Helmich-Paris : MC-RPA, TRAH-(SCF,CASSCF), AVAS, COSX integrals, SCF dyn. polar. 
  Lee Huntington         : MR-EOM, pCC                                   
  Robert Izsak           : Overlap fitted RIJCOSX, COSX-SCS-MP3, EOM     
  Riya Kayal             : Wick's Theorem for AUTO-CI, AUTO-CI UHF-CCSDT 
  Emily Kempfer          : AUTO-CI, RHF CISDT and CCSDT                  
  Christian Kollmar      : KDIIS, OOCD, Brueckner-CCSD(T), CCSD density, CASPT2, CASPT2-K, improved NEVPT2 
  Axel Koslowski         : Symmetry handling                             
  Simone Kossmann        : meta-GGA functionals, TD-DFT gradient, OOMP2, (MP2 Hessian; deprecated post 5.0) 
  Lucas Lang             : DCDCAS                                        
  Marvin Lechner         : AUTO-CI (C++ implementation), FIC-MRCC        
  Spencer Leger          : CASSCF response                               
  Dagmar Lenk            : GEPOL surface, SMD, ORCA-2-JSON               
  Dimitrios Liakos       : Extrapolation schemes; Compound Job, initial MDCI parallelization 
  Dimitrios Manganas     : Further ROCIS development; embedding schemes. LFT, Crystal Embedding 
  Dimitrios Pantazis     : SARC Basis sets                               
  Anastasios Papadopoulos: AUTO-CI, single reference methods and gradients 
  Taras Petrenko         : pre 6.0 DFT Hessian and TD-DFT gradient, (ASA, deprecated), ECA, 1-Electron XAS/XES, NRVS 
  Peter Pinski           : DLPNO-MP2, DLPNO-MP2 Gradient                 
  Christoph Reimann      : Effective Core Potentials                     
  Marius Retegan         : Local ZFS, SOC                                
  Christoph Riplinger    : Optimizer, TS searches, QM/MM, DLPNO-CCSD(T), (RO)-DLPNO pert. Triples 
  Michael Roemelt        : Original ROCIS implementation                 
  Masaaki Saitow         : Open-shell DLPNO-CCSD energy and density      
  Barbara Sandhoefer     : DKH picture change effects                    
  Kantharuban Sivalingam : CASSCF convergence/infrastructure, NEVPT2 and variants, FIC-MRCI 
  Bernardo de Souza      : ESD, SOC TD-DFT                               
  Georgi L. Stoychev     : AutoAux, RI-MP2 NMR, DLPNO-MP2 response, X2C  
  Van Anh Tran           : RI-MP2 g-tensors                              
  Willem Van den Heuvel  : Paramagnetic NMR                              
  Zikuan Wang            : NOTCH, Electric field optimization            
  Frank Wennmohs         : Technical directorship and infrastructure     
  Hang Xu                : AUTO-CI-Response properties                   
                                                                         
[FACCTs GmbH]                                                            
  Markus Bursch, Miquel Garcia-Rates, Christoph Riplinger, Bernardo de Souza, Georgi L. Stoychev 
                                                                 
  APM, Basis sets (HGBS, AHGBS, def-TZVP (Ac-Lr), def2-XVPD (La-Lu)), CI-OPT, improved COSX, DLPNO-Multilevel,           
  DOCKER, DRACO, updates on ESD, GOAT, IRC, LR-CPCM, MBIS, meta-GGA TD-DFT gradient, ML-optimized integration grids, 
  MM, NACMEs, nearIR, NEB, NEB-TS, NL-DFT gradient (VV10), 2- and 3-layer-ONIOM, interface openCOSMO-RS, QMMM,   
  Crystal-QMMM, SF, symmetry and pop. for TD-DFT, r2SCAN hybrids, SOLVATOR                                   
                                                                         
[Other institutions]                                                     
  V. Asgeirsson          : NEB                                           
  Christoph Bannwarth    : sTDA-DFT, sTD-DFT, PBEh-3c, B97-3c, D3        
  Sebastian Ehlert       : rSCAN, r2SCAN, r2SCAN-3c, D4, dhf basis sets  
  Marvin Friede          : D4 for Fr, Ra, Ac-Lr                          
  Lars Goerigk           : TD-DFT with DH, B97 family of functionals     
  Stefan Grimme          : VdW corrections, initial TS optimization, DFT functionals, gCP, sTDA/sTD-DF 
  Waldemar Hujo          : DFT-NL                                        
  H. Jonsson             : NEB                                           
  Holger Kruse           : gCP                                           
  Marcel Mueller         : wB97X-3c, vDZP basis set                      
  Hagen Neugebauer       : wr2SCAN                                       
  Tobias Risthaus        : range-separated hybrid DFT                    
  Lukas Wittmann         : regularized MP2, r2SCAN double-hybrids, wr2SCAN        
                                                                         
We gratefully acknowledge several colleagues who have allowed us to      
interface, adapt or use parts of their codes:                            
  Ed Valeev, F. Pavosevic, A. Kumar             : LibInt (2-el integral package), F12 methods 
  Garnet Chan, S. Sharma, J. Yang, R. Olivares  : DMRG                   
  Ulf Ekstrom                                   : XCFun DFT Library      
  Mihaly Kallay                                 : mrcc  (arbitrary order and MRCC methods)
  Frank Weinhold                                : gennbo (NPA and NBO analysis)           
  Simon Mueller                                 : openCOSMO-RS                            
  Christopher J. Cramer and Donald G. Truhlar   : smd solvation model                     
  S Lehtola, MJT Oliveira, MAL Marques          : LibXC Library                           
  Liviu Ungur et al                             : ANISO software                          


 Your calculation uses the libint2 library for the computation of 2-el integrals
 For citations please refer to: http://libint.valeyev.net

 Your ORCA version has been built with support for libXC version: 6.2.2
 For citations please refer to: https://libxc.gitlab.io

 This ORCA versions uses:
   CBLAS   interface :  Fast vector & matrix operations
   LAPACKE interface :  Fast linear algebra routines
   SCALAPACK package :  Parallel linear algebra routines
   Shared memory     :  Shared parallel matrices
   BLAS/LAPACK       :  OpenBLAS 0.3.27  USE64BITINT DYNAMIC_ARCH NO_AFFINITY Zen SINGLE_THREADED
        Core in use  :  Zen
   Copyright (c) 2011-2014, The OpenBLAS Project


Your calculation utilizes the geometrical counterpoise correction gCP
Please cite in your paper:
H.Kruse, S. Grimme J.Chem.Phys., 136, (2012), 154101 
   

Your calculation utilizes the atom-pairwise dispersion correction
based on EEQ partial charges (D4)


================================================================================

----- Orbital basis set information -----
Your calculation utilizes the basis: def2-SV(P)
   F. Weigend and R. Ahlrichs, Phys. Chem. Chem. Phys. 7, 3297 (2005).

----- AuxJ basis set information -----
Your calculation utilizes the auxiliary basis: def2/J
   F. Weigend, Phys. Chem. Chem. Phys. 8, 1057 (2006).

================================================================================
                                        WARNINGS
                       Please study these warnings very carefully!
================================================================================

WARNING: Old DensityContainer found on disk!
         Will remove this file - 
         If you want to keep old densities, please start your calculation with a different basename. 


================================================================================
                                       INPUT FILE
================================================================================
NAME = sp.inp
|  1> ! pbe def2-sv(p) def2/J RI DEFGRID1 loosescf d4 GCP(DFT/SV(P)) printgap
|  2> %output
|  3>     printlevel normal
|  4> end
|  5> * xyz 0 1
|  6> C 1.4596695068 -0.3504519347 0.4918580067
|  7> C 0.6770930059 0.4707307532 -0.5239595052
|  8> C -0.8123088225 0.3335254133 -0.4381697935
|  9> C -1.4893262428 -0.413110275 0.4133916972
| 10> H 1.1952753304 -0.0592582791 1.5056213939
| 11> H 2.5271840316 -0.1904428418 0.3570681131
| 12> H 1.2541902164 -1.4109944182 0.3675943847
| 13> H 0.9859757798 0.1877114106 -1.5358281739
| 14> H 0.9273808442 1.5302952342 -0.4053597606
| 15> H -1.3485879382 0.9264722615 -1.1700042129
| 16> H -2.565732513 -0.4470467835 0.3978680443
| 17> H -1.0109231459 -1.0216806409 1.1608661999
| 18> *
| 19> 
| 20>                          ****END OF INPUT****
================================================================================

                       ****************************
                       * Single Point Calculation *
                       ****************************

---------------------------------
CARTESIAN COORDINATES (ANGSTROEM)
---------------------------------
  C      1.459670   -0.350452    0.491858
  C      0.677093    0.470731   -0.523960
  C     -0.812309    0.333525   -0.438170
  C     -1.489326   -0.413110    0.413392
  H      1.195275   -0.059258    1.505621
  H      2.527184   -0.190443    0.357068
  H      1.254190   -1.410994    0.367594
  H      0.985976    0.187711   -1.535828
  H      0.927381    1.530295   -0.405360
  H     -1.348588    0.926472   -1.170004
  H     -2.565733   -0.447047    0.397868
  H     -1.010923   -1.021681    1.160866

----------------------------
CARTESIAN COORDINATES (A.U.)
----------------------------
  NO LB      ZA    FRAG     MASS         X           Y           Z
   0 C     6.0000    0    12.011    2.758376   -0.662258    0.929477
   1 C     6.0000    0    12.011    1.279520    0.889552   -0.990140
   2 C     6.0000    0    12.011   -1.535041    0.630272   -0.828021
   3 C     6.0000    0    12.011   -2.814419   -0.780665    0.781197
   4 H     1.0000    0     1.008    2.258743   -0.111982    2.845212
   5 H     1.0000    0     1.008    4.775686   -0.359885    0.674761
   6 H     1.0000    0     1.008    2.370076   -2.666393    0.694653
   7 H     1.0000    0     1.008    1.863224    0.354723   -2.902295
   8 H     1.0000    0     1.008    1.752496    2.891839   -0.766019
   9 H     1.0000    0     1.008   -2.548462    1.750779   -2.210988
  10 H     1.0000    0     1.008   -4.848532   -0.844796    0.751862
  11 H     1.0000    0     1.008   -1.910368   -1.930697    2.193719

--------------------------------
INTERNAL COORDINATES (ANGSTROEM)
--------------------------------
 C      0   0   0     0.000000000000     0.00000000     0.00000000
 C      1   0   0     1.522712121233     0.00000000     0.00000000
 C      2   1   0     1.498166541601   115.04558050     0.00000000
 C      3   2   1     1.319459893622   126.78973231     0.00000000
 H      1   2   3     1.087388721113   110.64415942   299.68364312
 H      1   2   3     1.087822819161   110.02050296   179.99781284
 H      1   2   3     1.087388406157   110.64786190    60.30943488
 H      2   1   3     1.095165156036   109.39344215   238.20909243
 H      2   1   3     1.095165188826   109.39387870   121.78911263
 H      3   2   1     1.083864784992   113.77358180   179.99406121
 H      4   3   2     1.077052983346   121.42093536   180.00290938
 H      4   3   2     1.076078782228   122.69795232     0.00000000

---------------------------
INTERNAL COORDINATES (A.U.)
---------------------------
 C      0   0   0     0.000000000000     0.00000000     0.00000000
 C      1   0   0     2.877508889933     0.00000000     0.00000000
 C      2   1   0     2.831124466629   115.04558050     0.00000000
 C      3   2   1     2.493417843638   126.78973231     0.00000000
 H      1   2   3     2.054866884018   110.64415942   299.68364312
 H      1   2   3     2.055687210444   110.02050296   179.99781284
 H      1   2   3     2.054866288837   110.64786190    60.30943488
 H      2   1   3     2.069562216321   109.39344215   238.20909243
 H      2   1   3     2.069562278286   109.39387870   121.78911263
 H      3   2   1     2.048207609836   113.77358180   179.99406121
 H      4   3   2     2.035335170247   121.42093536   180.00290938
 H      4   3   2     2.033494196935   122.69795232     0.00000000

---------------------
BASIS SET INFORMATION
---------------------
There are 2 groups of distinct atoms

 Group   1 Type C   : 7s4p1d contracted to 3s2p1d pattern {511/31/1}
 Group   2 Type H   : 4s contracted to 2s pattern {31}

Atom   0C    basis set group =>   1
Atom   1C    basis set group =>   1
Atom   2C    basis set group =>   1
Atom   3C    basis set group =>   1
Atom   4H    basis set group =>   2
Atom   5H    basis set group =>   2
Atom   6H    basis set group =>   2
Atom   7H    basis set group =>   2
Atom   8H    basis set group =>   2
Atom   9H    basis set group =>   2
Atom  10H    basis set group =>   2
Atom  11H    basis set group =>   2
---------------------------------
AUXILIARY/J BASIS SET INFORMATION
---------------------------------
There are 2 groups of distinct atoms

 Group   1 Type C   : 12s5p4d2f1g contracted to 6s4p3d1f1g pattern {711111/2111/211/2/1}
 Group   2 Type H   : 5s2p1d contracted to 3s1p1d pattern {311/2/1}

Atom   0C    basis set group =>   1
Atom   1C    basis set group =>   1
Atom   2C    basis set group =>   1
Atom   3C    basis set group =>   1
Atom   4H    basis set group =>   2
Atom   5H    basis set group =>   2
Atom   6H    basis set group =>   2
Atom   7H    basis set group =>   2
Atom   8H    basis set group =>   2
Atom   9H    basis set group =>   2
Atom  10H    basis set group =>   2
Atom  11H    basis set group =>   2

Checking for AutoStart:
The File: sp.gbw exists
Trying to determine its content:
     ... Fine, the file contains calculation information
     ... Fine, the calculation information was read
     ... Fine, the file contains a basis set
     ... Fine, the basis set was read
     ... Fine, the file contains a geometry
     ... Fine, the geometry was read
     ... Fine, the file contains a set of orbitals
     ... Fine, the orbitals can be read
     => possible old guess file was deleted
     => GBW file was renamed to GES file
     => GES file is set as startup file
     => Guess is set to MORead
     ... now leaving AutoStart

------------------------------------------------------------------------------
                             ORCA STARTUP CALCULATIONS
                           -- RI-GTO INTEGRALS CHOSEN --
------------------------------------------------------------------------------
------------------------------------------------------------------------------
                   ___                                                        
                  /   \      - P O W E R E D   B Y -                         
                 /     \                                                     
                 |  |  |   _    _      __       _____    __    __             
                 |  |  |  | |  | |    /  \     |  _  \  |  |  /  |          
                  \  \/   | |  | |   /    \    | | | |  |  | /  /          
                 / \  \   | |__| |  /  /\  \   | |_| |  |  |/  /          
                |  |  |   |  __  | /  /__\  \  |    /   |      \           
                |  |  |   | |  | | |   __   |  |    \   |  |\   \          
                \     /   | |  | | |  |  |  |  | |\  \  |  | \   \       
                 \___/    |_|  |_| |__|  |__|  |_| \__\ |__|  \__/        
                                                                              
                      - O R C A' S   B I G   F R I E N D -                    
                                      &                                       
                       - I N T E G R A L  F E E D E R -                       
                                                                              
 v1 FN, 2020, v2 2021, v3 2022-2024                                           
------------------------------------------------------------------------------


----------------------
SHARK INTEGRAL PACKAGE
----------------------

Number of atoms                             ...     12
Number of basis functions                   ...     72
Number of shells                            ...     40
Maximum angular momentum                    ...      2
Integral batch strategy                     ... SHARK/LIBINT Hybrid
RI-J (if used) integral strategy            ... SPLIT-RIJ (Revised 2003 algorithm where possible)
Printlevel                                  ...      1
Contraction scheme used                     ... SEGMENTED contraction
Prescreening option                         ... SCHWARTZ
   Thresh                                   ... 1.000e-09
   Tcut                                     ... 1.000e-10
   Tpresel                                  ... 1.000e-10 
Coulomb Range Separation                    ... NOT USED
Exchange Range Separation                   ... NOT USED
Multipole approximations                    ... NOT USED
Finite Nucleus Model                        ... NOT USED
CABS basis                                  ... NOT available
Auxiliary Coulomb fitting basis             ... AVAILABLE
   # of basis functions in Aux-J            ...    284
   # of shells in Aux-J                     ...    100
   Maximum angular momentum in Aux-J        ...      4
Auxiliary J/K fitting basis                 ... NOT available
Auxiliary Correlation fitting basis         ... NOT available
Auxiliary 'external' fitting basis          ... NOT available

Checking pre-screening integrals            ... done (  0.0 sec) Dimension = 40
Check shell pair data                       ... done (  0.0 sec)
Shell pair information
Shell pair cut-off parameter TPreSel        ...   1.0e-10
Total number of shell pairs                 ...       820
Shell pairs after pre-screening             ...       815
Total number of primitive shell pairs       ...      3316
Primitive shell pairs kept                  ...      2609
          la=0 lb=0:    401 shell pairs
          la=1 lb=0:    224 shell pairs
          la=1 lb=1:     36 shell pairs
          la=2 lb=0:    112 shell pairs
          la=2 lb=1:     32 shell pairs
          la=2 lb=2:     10 shell pairs

Calculating one electron integrals          ... done (  0.0 sec)
Calculating RI/J V-Matrix + Cholesky decomp.... done (  0.0 sec)
Calculating Nuclear repulsion               ... done (  0.0 sec) ENN=    119.377232746826 Eh

Diagonalization of the overlap matrix:
Smallest eigenvalue                        ... 1.659e-03
Time for diagonalization                   ...    0.000 sec
Threshold for overlap eigenvalues          ... 1.000e-07
Number of eigenvalues below threshold      ... 0
Time for construction of square roots      ...    0.000 sec
Total time needed                          ...    0.001 sec

-------------------
DFT GRID GENERATION
-------------------

General Integration Accuracy     IntAcc      ... 4.159
Radial Grid Type                 RadialGrid  ... OptM3 with GC (2021)
Angular Grid (max. ang.)         AngularGrid ... 3 (Lebedev-194)
Angular grid pruning method      GridPruning ... 4 (adaptive)
Weight generation scheme         WeightScheme... mBecke (2022)
Basis function cutoff            BFCut       ... 1.0000e-10
Integration weight cutoff        WCut        ... 1.0000e-14
Partially contracted basis set               ... off
Rotationally invariant grid construction     ... off
Angular grids for H and He will be reduced by one unit

Total number of grid points                  ...    24525
Total number of batches                      ...      389
Average number of points per batch           ...       63
Average number of grid points per atom       ...     2044
Initializing property integral containers    ... done (  0.0 sec)

SHARK setup successfully completed in   0.1 seconds

Maximum memory used throughout the entire STARTUP-calculation: 12.1 MB
-------------------------------------------------------------------------------
                                 ORCA GUESS
                   Start orbitals & Density for SCF / CASSCF
-------------------------------------------------------------------------------

------------
SCF SETTINGS
------------
Hamiltonian:
 Density Functional     Method          .... DFT(GTOs)
 Exchange Functional    Exchange        .... PBE
   PBE kappa parameter   XKappa         ....  0.804000
   PBE mue parameter    XMuePBE         ....  0.219520
 Correlation Functional Correlation     .... PBE
   PBE beta parameter  CBetaPBE         ....  0.066725
 LDA part of GGA corr.  LDAOpt          .... PW91-LDA
 Gradients option       PostSCFGGA      .... off
   NL short-range parameter             ....  6.400000
 RI-approximation to the Coulomb term is turned on
   Number of AuxJ basis functions       .... 284


General Settings:
 Integral files         IntName         .... sp
 Hartree-Fock type      HFTyp           .... RHF
 Total Charge           Charge          ....    0
 Multiplicity           Mult            ....    1
 Number of Electrons    NEL             ....   32
 Basis Dimension        Dim             ....   72
 Nuclear Repulsion      ENuc            ....    119.3772327468 Eh

Convergence Acceleration:
 AO-DIIS                CNVDIIS         .... on
   Start iteration      DIISMaxIt       ....    12
   Startup error        DIISStart       ....  0.200000
   # of expansion vecs  DIISMaxEq       ....     5
   Bias factor          DIISBfac        ....   1.050
   Max. coefficient     DIISMaxC        ....  10.000
 MO-DIIS                CNVKDIIS        .... off
 Trust-Rad. Augm. Hess. CNVTRAH         .... auto
   Auto Start mean grad. ratio tolernc. ....  1.125000
   Auto Start start iteration           ....     1
   Auto Start num. interpolation iter.  ....    10
   Max. Number of Micro iterations      ....    24
   Max. Number of Macro iterations      .... Maxiter - #DIIS iter
   Number of Davidson start vectors     ....     2
   Converg. threshold    (grad. norm)   ....   1.000e-04
   Grad. Scal. Fac. for Micro threshold ....   0.100
   Minimum threshold for Micro iter.    ....   1.000e-02
   NR start threshold (gradient norm)   ....   1.000e-04
   Initial trust radius                 ....   0.400
   Minimum AH scaling param. (alpha)    ....   1.000
   Maximum AH scaling param. (alpha)    .... 1000.000
   Quad. conv. algorithm                .... NR
   White noise on init. David. guess    .... on
   Maximum white noise                  ....   0.010
   Pseudo random numbers                .... off
   Inactive MOs                         .... canonical
   Orbital update algorithm             .... Taylor
   Preconditioner                       .... Diag
   Full preconditioner red. dimension   ....   250
 SOSCF                  CNVSOSCF        .... on
   Start iteration      SOSCFMaxIt      ....   150
   Startup grad/error   SOSCFStart      ....  0.003300
   Hessian update       SOSCFHessUp     .... L-BFGS
 Level Shifting         CNVShift        .... on
   Level shift para.    LevelShift      ....    0.2500
   Turn off err/grad.   ShiftErr        ....    0.0010
 Zerner damping         CNVZerner       .... off
 Static damping         CNVDamp         .... on
   Fraction old density DampFac         ....    0.7000
   Max. Damping (<1)    DampMax         ....    0.9800
   Min. Damping (>=0)   DampMin         ....    0.0000
   Turn off err/grad.   DampErr         ....    0.1000

SCF Procedure:
 Maximum # iterations   MaxIter         ....   125
 SCF integral mode      SCFMode         .... Direct
   Integral package                     .... SHARK and LIBINT hybrid scheme
 Reset frequency        DirectResetFreq ....    20
 Integral Threshold     Thresh          ....  1.000e-09 Eh
 Primitive CutOff       TCut            ....  1.000e-10 Eh

Convergence Tolerance:
 Convergence Check Mode ConvCheckMode   .... Total+1el-Energy
 Convergence forced     ConvForced      .... 0
 Energy Change          TolE            ....  1.000e-05 Eh
 1-El. energy change                    ....  1.000e-02 Eh
 Orbital Gradient       TolG            ....  1.000e-04
 Orbital Rotation angle TolX            ....  1.000e-04
 DIIS Error             TolErr          ....  5.000e-04

---------------------
INITIAL GUESS: MOREAD
---------------------
Guess MOs are being read from file: sp.ges
Input Geometry matches current geometry (good)
Input basis set matches current basis set (good)
Occupation numbers will be reassigned to an Aufbau configuration
MOs were renormalized
MOs were reorthogonalized (Cholesky)
                      ------------------
                      INITIAL GUESS DONE (   0.0 sec)
                      ------------------
             **** ENERGY FILE WAS UPDATED (sp.en.tmp) ****
Finished Guess after   0.0 sec
Maximum memory used throughout the entire GUESS-calculation: 6.9 MB

-------------------------------------------------------------------------------------------
                                      ORCA LEAN-SCF
                              memory conserving SCF solver
-------------------------------------------------------------------------------------------

----------------------------------------D-I-I-S--------------------------------------------
Iteration    Energy (Eh)           Delta-E    RMSDP     MaxDP     DIISErr   Damp  Time(sec)
-------------------------------------------------------------------------------------------
               ***  Starting incremental Fock matrix formation  ***
                              *** Initializing SOSCF ***
---------------------------------------S-O-S-C-F--------------------------------------
Iteration    Energy (Eh)           Delta-E    RMSDP     MaxDP     MaxGrad    Time(sec)
--------------------------------------------------------------------------------------
    1    -156.8521182681503490     0.00e+00  2.43e-05  2.73e-04  7.44e-05     0.1
               *** Restarting incremental Fock matrix formation ***
    2    -156.8521182722545007    -4.10e-09  3.54e-05  5.26e-04  1.47e-04     0.1
    3    -156.8521175453868466     7.27e-07  2.58e-05  3.84e-04  4.24e-04     0.1
                 **** Energy Check signals convergence ****

               *****************************************************
               *                     SUCCESS                       *
               *           SCF CONVERGED AFTER   3 CYCLES          *
               *****************************************************

             **** ENERGY FILE WAS UPDATED (sp.en.tmp) ****

----------------
TOTAL SCF ENERGY
----------------

Total Energy       :       -156.85211754538685 Eh           -4268.16311 eV

Components:
Nuclear Repulsion  :        119.37723274682551 Eh            3248.41965 eV
Electronic Energy  :       -276.22935029221236 Eh           -7516.58276 eV
One Electron Energy:       -445.75483038518126 Eh          -12129.60559 eV
Two Electron Energy:        169.52548009296891 Eh            4613.02283 eV

Virial components:
Potential Energy   :       -312.25172807189915 Eh           -8496.80149 eV
Kinetic Energy     :        155.39961052651230 Eh            4228.63838 eV
Virial Ratio       :          2.00934691543919

DFT components:
N(Alpha)           :       15.999948785217 electrons
N(Beta)            :       15.999948785217 electrons
N(Total)           :       31.999897570435 electrons
E(X)               :      -23.396893674804 Eh       
E(C)               :       -1.029557413887 Eh       
E(XC)              :      -24.426451088692 Eh       

---------------
SCF CONVERGENCE
---------------

  Last Energy change         ...   -7.2687e-07  Tolerance :   1.0000e-05
  Last MAX-Density change    ...    3.8391e-04  Tolerance :   1.0000e-03
  Last RMS-Density change    ...    2.5850e-05  Tolerance :   1.0000e-04
  Last DIIS Error            ...    1.9478e-04  Tolerance :   5.0000e-04
  Last Orbital Gradient      ...    4.2366e-04  Tolerance :   1.0000e-04
  Last Orbital Rotation      ...    5.4410e-04  Tolerance :   1.0000e-04


----------------
ORBITAL ENERGIES
----------------

  NO   OCC          E(Eh)            E(eV) 
   0   2.0000      -9.890211      -269.1263 
   1   2.0000      -9.887775      -269.0600 
   2   2.0000      -9.875642      -268.7299 
   3   2.0000      -9.874226      -268.6914 
   4   2.0000      -0.720134       -19.5958 
   5   2.0000      -0.646228       -17.5848 
   6   2.0000      -0.569862       -15.5067 
   7   2.0000      -0.475147       -12.9294 
   8   2.0000      -0.424517       -11.5517 
   9   2.0000      -0.402902       -10.9635 
  10   2.0000      -0.375746       -10.2246 
  11   2.0000      -0.342639        -9.3237 
  12   2.0000      -0.312818        -8.5122 
  13   2.0000      -0.305042        -8.3006 
  14   2.0000      -0.290066        -7.8931 
  15   2.0000      -0.225514        -6.1366 
  16   0.0000      -0.008826        -0.2402 
  17   0.0000       0.045027         1.2252 
  18   0.0000       0.068768         1.8713 
  19   0.0000       0.089308         2.4302 
  20   0.0000       0.098772         2.6877 
  21   0.0000       0.118652         3.2287 
  22   0.0000       0.130381         3.5478 
  23   0.0000       0.136442         3.7128 
  24   0.0000       0.145705         3.9648 
  25   0.0000       0.187601         5.1049 
  26   0.0000       0.237446         6.4612 
*Only the first 10 virtual orbitals were printed.

                    ********************************
                    * MULLIKEN POPULATION ANALYSIS *
                    ********************************

-----------------------
MULLIKEN ATOMIC CHARGES
-----------------------
   0 C :   -0.290794
   1 C :   -0.143386
   2 C :   -0.143141
   3 C :   -0.200559
   4 H :    0.110051
   5 H :    0.102285
   6 H :    0.110060
   7 H :    0.098778
   8 H :    0.098754
   9 H :    0.071012
  10 H :    0.094196
  11 H :    0.092745
Sum of atomic charges:   -0.0000000

--------------------------------
MULLIKEN REDUCED ORBITAL CHARGES
--------------------------------
  0 C s       :     3.088376  s :     3.088376
      pz      :     1.055417  p :     3.173281
      px      :     1.057237
      py      :     1.060628
      dz2     :     0.009987  d :     0.029137
      dxz     :     0.003176
      dyz     :     0.003420
      dx2y2   :     0.010087
      dxy     :     0.002466

  1 C s       :     2.990708  s :     2.990708
      pz      :     1.056390  p :     3.115345
      px      :     1.007109
      py      :     1.051847
      dz2     :     0.010423  d :     0.037334
      dxz     :     0.006950
      dyz     :     0.003225
      dx2y2   :     0.010720
      dxy     :     0.006016

  2 C s       :     3.172256  s :     3.172256
      pz      :     0.962893  p :     2.935015
      px      :     1.003907
      py      :     0.968214
      dz2     :     0.005672  d :     0.035871
      dxz     :     0.009653
      dyz     :     0.005245
      dx2y2   :     0.006917
      dxy     :     0.008383

  3 C s       :     3.156247  s :     3.156247
      pz      :     1.022858  p :     3.017302
      px      :     0.963725
      py      :     1.030719
      dz2     :     0.005325  d :     0.027010
      dxz     :     0.004874
      dyz     :     0.005511
      dx2y2   :     0.007439
      dxy     :     0.003861

  4 H s       :     0.889949  s :     0.889949

  5 H s       :     0.897715  s :     0.897715

  6 H s       :     0.889940  s :     0.889940

  7 H s       :     0.901222  s :     0.901222

  8 H s       :     0.901246  s :     0.901246

  9 H s       :     0.928988  s :     0.928988

 10 H s       :     0.905804  s :     0.905804

 11 H s       :     0.907255  s :     0.907255


------------------------
MULLIKEN OVERLAP CHARGES
------------------------
B(  0-C ,  1-C ) :   0.8589 B(  0-C ,  2-C ) :  -0.0804 B(  0-C ,  4-H ) :   0.7528 
B(  0-C ,  5-H ) :   0.7279 B(  0-C ,  6-H ) :   0.7529 B(  1-C ,  2-C ) :   0.6785 
B(  1-C ,  3-C ) :  -0.0939 B(  1-C ,  7-H ) :   0.6789 B(  1-C ,  8-H ) :   0.6789 
B(  1-C ,  9-H ) :  -0.1417 B(  1-C , 11-H ) :  -0.0876 B(  2-C ,  3-C ) :   1.4948 
B(  2-C ,  9-H ) :   0.7794 B(  3-C ,  9-H ) :  -0.0982 B(  3-C , 10-H ) :   0.7188 
B(  3-C , 11-H ) :   0.6908 B(  4-H ,  6-H ) :  -0.0623 B(  7-H ,  8-H ) :  -0.0597 
B( 10-H , 11-H ) :  -0.1151 


                     *******************************
                     * LOEWDIN POPULATION ANALYSIS *
                     *******************************

----------------------
LOEWDIN ATOMIC CHARGES
----------------------
   0 C :   -0.341581
   1 C :   -0.233396
   2 C :   -0.135256
   3 C :   -0.266959
   4 H :    0.120932
   5 H :    0.121087
   6 H :    0.120930
   7 H :    0.127905
   8 H :    0.127891
   9 H :    0.118045
  10 H :    0.121503
  11 H :    0.118898

-------------------------------
LOEWDIN REDUCED ORBITAL CHARGES
-------------------------------
  0 C s       :     2.942774  s :     2.942774
      pz      :     1.107987  p :     3.328378
      px      :     1.105053
      py      :     1.115337
      dz2     :     0.022786  d :     0.070429
      dxz     :     0.008483
      dyz     :     0.009209
      dx2y2   :     0.023635
      dxy     :     0.006317

  1 C s       :     2.899270  s :     2.899270
      pz      :     1.087793  p :     3.243795
      px      :     1.065810
      py      :     1.090192
      dz2     :     0.024237  d :     0.090331
      dxz     :     0.016538
      dyz     :     0.008744
      dx2y2   :     0.026968
      dxy     :     0.013844

  2 C s       :     2.909358  s :     2.909358
      pz      :     1.047423  p :     3.134013
      px      :     1.062579
      py      :     1.024011
      dz2     :     0.014228  d :     0.091885
      dxz     :     0.024312
      dyz     :     0.013261
      dx2y2   :     0.019630
      dxy     :     0.020454

  3 C s       :     2.951092  s :     2.951092
      pz      :     1.084642  p :     3.245934
      px      :     1.087947
      py      :     1.073345
      dz2     :     0.012753  d :     0.069932
      dxz     :     0.013980
      dyz     :     0.014031
      dx2y2   :     0.018221
      dxy     :     0.010946

  4 H s       :     0.879068  s :     0.879068

  5 H s       :     0.878913  s :     0.878913

  6 H s       :     0.879070  s :     0.879070

  7 H s       :     0.872095  s :     0.872095

  8 H s       :     0.872109  s :     0.872109

  9 H s       :     0.881955  s :     0.881955

 10 H s       :     0.878497  s :     0.878497

 11 H s       :     0.881102  s :     0.881102


---------------------------------
LOEWDIN BOND ORDERS (THRESH 0.050000)
---------------------------------
B(  0-C ,  1-C ) :   1.1292 B(  0-C ,  2-C ) :   0.0527 B(  0-C ,  4-H ) :   0.9393 
B(  0-C ,  5-H ) :   0.9385 B(  0-C ,  6-H ) :   0.9393 B(  1-C ,  2-C ) :   1.1170 
B(  1-C ,  3-C ) :   0.0850 B(  1-C ,  7-H ) :   0.8907 B(  1-C ,  8-H ) :   0.8907 
B(  2-C ,  3-C ) :   2.0792 B(  2-C ,  9-H ) :   0.8885 B(  2-C , 10-H ) :   0.0500 
B(  3-C , 10-H ) :   0.9217 B(  3-C , 11-H ) :   0.9175 

------------------------------------------
LOEWDIN REDUCED ORBITAL POPULATIONS PER MO
-------------------------------------------
THRESHOLD FOR PRINTING IS 0.1%%
                      0         1         2         3         4         5   
                  -9.89021  -9.88778  -9.87564  -9.87423  -0.72013  -0.64623
                   2.00000   2.00000   2.00000   2.00000   2.00000   2.00000
                  --------  --------  --------  --------  --------  --------
 0 C  s               0.0       0.0      99.7       0.0      11.1      18.2
 0 C  pz              0.0       0.0       0.0       0.0       1.0       0.2
 0 C  px              0.0       0.0       0.0       0.0       1.1       0.0
 0 C  py              0.0       0.0       0.0       0.0       0.6       0.2
 1 C  s              99.6       0.0       0.0       0.0      23.4       6.1
 1 C  pz              0.0       0.0       0.0       0.0       0.5       0.6
 1 C  px              0.0       0.1       0.0       0.0       0.9       6.1
 1 C  py              0.0       0.0       0.0       0.0       0.4       0.3
 2 C  s               0.0      99.5       0.0       0.1      22.1      10.3
 2 C  pz              0.0       0.0       0.0       0.1       0.4       1.5
 2 C  px              0.1       0.0       0.0       0.0       1.3       6.8
 2 C  py              0.0       0.0       0.0       0.1       0.2       1.3
 2 C  dyz             0.0       0.0       0.0       0.0       0.1       0.2
 2 C  dx2y2           0.0       0.0       0.0       0.0       0.1       0.0
 3 C  s               0.0       0.1       0.0      99.6      10.9      20.4
 3 C  pz              0.0       0.1       0.0       0.0       1.2       0.8
 3 C  px              0.0       0.0       0.0       0.0       1.3       0.1
 3 C  py              0.0       0.1       0.0       0.0       0.9       0.6
 3 C  dyz             0.0       0.0       0.0       0.0       0.1       0.2
 4 H  s               0.0       0.0       0.1       0.0       2.1       3.7
 5 H  s               0.0       0.0       0.1       0.0       1.9       4.6
 6 H  s               0.0       0.0       0.1       0.0       2.1       3.7
 7 H  s               0.1       0.0       0.0       0.0       4.2       1.5
 8 H  s               0.1       0.0       0.0       0.0       4.2       1.5
 9 H  s               0.0       0.1       0.0       0.0       3.7       2.3
10 H  s               0.0       0.0       0.0       0.1       1.6       4.6
11 H  s               0.0       0.0       0.0       0.1       2.1       3.4

                      6         7         8         9        10        11   
                  -0.56986  -0.47515  -0.42452  -0.40290  -0.37575  -0.34264
                   2.00000   2.00000   2.00000   2.00000   2.00000   2.00000
                  --------  --------  --------  --------  --------  --------
 0 C  s              15.1       2.1       0.2       0.0       0.1       0.2
 0 C  pz              2.3       3.2       0.6      10.7       8.6       0.0
 0 C  px              0.8       0.7      10.6       0.0       0.8      30.2
 0 C  py              1.5       2.1       0.6      15.1       6.3       0.0
 0 C  dz2             0.0       0.0       0.0       0.0       0.0       0.1
 0 C  dyz             0.1       0.1       0.0       0.0       0.1       0.0
 0 C  dx2y2           0.0       0.0       0.0       0.0       0.0       0.3
 1 C  s               9.7       4.8       0.1       0.0       0.1       0.7
 1 C  pz              4.7       0.8       4.2      14.9       1.9       5.0
 1 C  px              3.0       5.4       7.9       0.0       9.9       0.1
 1 C  py              3.1       0.7       3.4      20.9       1.0       3.5
 1 C  dx2y2           0.0       0.2       0.0       0.0       0.0       0.1
 2 C  s               2.2       9.8       0.2       0.0       0.2       0.4
 2 C  pz              4.1       3.5       5.7       2.1      11.1       0.0
 2 C  px              6.3       2.1      12.0       0.0       4.8       0.2
 2 C  py              3.3       2.3       3.5       3.0       8.4       0.0
 2 C  dz2             0.0       0.0       0.0       0.0       0.0       0.1
 2 C  dx2y2           0.1       0.0       0.0       0.0       0.0       0.2
 3 C  s               8.5       7.0       0.4       0.0       0.3       0.1
 3 C  pz              0.6       9.2       1.0       0.3      12.1       2.8
 3 C  px              0.2       1.6      21.9       0.0       3.6      17.4
 3 C  py              0.5       6.8       0.4       0.5       9.1       1.5
 3 C  dz2             0.0       0.0       0.0       0.0       0.0       0.1
 3 C  dxz             0.0       0.1       0.0       0.0       0.2       0.0
 3 C  dx2y2           0.0       0.1       0.0       0.0       0.0       0.2
 3 C  dxy             0.0       0.1       0.0       0.0       0.1       0.0
 4 H  s               5.8       1.7       0.3       6.6       3.1       0.8
 5 H  s               5.2       1.0       4.9       0.0       0.8      16.3
 6 H  s               5.8       1.7       0.3       6.6       3.1       0.8
 7 H  s               4.1       3.7       2.0       9.3       0.0       0.4
 8 H  s               4.1       3.7       2.0       9.3       0.0       0.4
 9 H  s               1.4      10.7       5.8       0.0       4.2       0.1
10 H  s               3.1       5.2       9.7       0.0       2.3       9.5
11 H  s               3.7       9.2       2.2       0.0       7.3       7.9

                     12        13        14        15        16        17   
                  -0.31282  -0.30504  -0.29007  -0.22551  -0.00883   0.04503
                   2.00000   2.00000   2.00000   2.00000   0.00000   0.00000
                  --------  --------  --------  --------  --------  --------
 0 C  s               0.0       0.3       0.1       0.0       0.0      11.3
 0 C  pz             12.6      14.4       1.7       0.0       0.0       0.4
 0 C  px              0.0       1.0       9.9       0.0       0.0       1.1
 0 C  py             17.9      10.4       0.9       0.0       0.1       0.2
 0 C  dz2             0.8       0.1       0.1       0.1       0.0       0.1
 0 C  dyz             0.0       0.1       0.0       0.0       0.0       0.1
 0 C  dx2y2           0.3       0.4       0.2       0.0       0.0       0.1
 1 C  s               0.0       0.1       0.2       0.0       0.0       8.5
 1 C  pz              6.4      13.5       0.5       1.4       0.0       2.4
 1 C  px              0.0       1.3      18.3       0.0       0.0       0.7
 1 C  py              9.1       9.9       0.2       2.0       0.0       1.8
 1 C  dz2             0.6       0.1       0.1       0.2       0.2       0.0
 1 C  dxz             0.0       0.3       0.1       0.2       0.5       0.2
 1 C  dyz             0.0       0.1       0.0       0.0       0.0       0.1
 1 C  dx2y2           0.2       0.5       0.2       0.1       0.1       0.1
 1 C  dxy             0.0       0.2       0.1       0.3       0.7       0.1
 2 C  s               0.0       0.4       0.3       0.0       0.0       1.5
 2 C  pz              2.6       2.8       3.2      15.2      18.6       0.9
 2 C  px              0.0       3.2      16.3       0.0       0.0       0.6
 2 C  py              3.7       2.2       1.7      21.4      26.2       0.6
 2 C  dz2             0.0       0.0       0.2       0.3       0.8       0.0
 2 C  dxz             0.0       0.3       0.4       0.1       0.1       0.3
 2 C  dyz             0.0       0.0       0.2       0.0       0.0       0.0
 2 C  dx2y2           0.0       0.0       0.4       0.1       0.3       0.0
 2 C  dxy             0.0       0.2       0.3       0.2       0.1       0.2
 3 C  s               0.0       0.2       0.1       0.0       0.0       2.9
 3 C  pz              0.4       3.1       1.7      20.9      18.5       0.1
 3 C  px              0.0       1.4       6.8       0.1       0.0       0.4
 3 C  py              0.6       2.3       1.0      29.4      26.1       0.1
 3 C  dz2             0.0       0.0       0.3       0.2       0.9       0.1
 3 C  dxz             0.0       0.0       0.2       0.0       0.2       0.0
 3 C  dyz             0.0       0.0       0.2       0.0       0.0       0.0
 3 C  dx2y2           0.0       0.0       0.5       0.1       0.4       0.3
 3 C  dxy             0.0       0.0       0.2       0.0       0.2       0.0
 4 H  s              14.3       5.1       0.0       0.3       0.1       5.9
 5 H  s               0.0       3.7       5.4       0.0       0.0      12.5
 6 H  s              14.4       5.1       0.0       0.3       0.1       5.9
 7 H  s               7.9       6.6       0.2       3.6       2.8      13.6
 8 H  s               7.9       6.6       0.2       3.6       2.8      13.6
 9 H  s               0.0       2.3      13.4       0.0       0.0       7.0
10 H  s               0.0       0.8       7.1       0.0       0.0       4.6
11 H  s               0.0       0.7       7.4       0.0       0.0       1.5

                     18        19        20        21        22        23   
                   0.06877   0.08931   0.09877   0.11865   0.13038   0.13644
                   0.00000   0.00000   0.00000   0.00000   0.00000   0.00000
                  --------  --------  --------  --------  --------  --------
 0 C  s               9.9       0.1       0.0       1.0       6.4       0.0
 0 C  pz              1.5       0.5       4.2       2.8       0.6       7.1
 0 C  px              0.4       1.3       0.0      17.9       2.0       0.0
 0 C  py              1.1       0.4       6.0       2.5       0.4      10.0
 0 C  dz2             0.0       0.0       1.0       0.2       0.1       0.1
 0 C  dxz             0.0       0.0       0.0       0.0       0.2       0.5
 0 C  dyz             0.0       0.2       0.0       0.4       0.0       0.0
 0 C  dx2y2           0.1       0.0       0.3       0.8       0.3       0.1
 0 C  dxy             0.0       0.0       0.0       0.0       0.2       0.6
 1 C  s               2.2       4.9       0.0       3.0       4.5       0.0
 1 C  pz              0.2       0.8       7.0       0.3       0.1       4.5
 1 C  px              0.2       1.3       0.0       0.1       0.8       0.0
 1 C  py              0.2       0.7       9.8       0.2       0.1       6.3
 1 C  dz2             0.1       0.0       1.0       0.1       0.0       0.0
 1 C  dxz             0.0       0.1       0.0       0.2       0.1       0.2
 1 C  dyz             0.3       0.0       0.0       0.3       0.1       0.0
 1 C  dx2y2           0.1       0.0       0.3       0.2       0.0       0.0
 1 C  dxy             0.0       0.1       0.0       0.1       0.0       0.3
 2 C  s               3.5       1.4       0.0       0.2       3.3       0.0
 2 C  pz              2.1       1.6       0.7       0.2       1.3       0.3
 2 C  px              1.3       0.5       0.0       0.4       1.6       0.0
 2 C  py              1.4       1.1       1.0       0.1       0.8       0.4
 2 C  dz2             0.1       0.0       0.1       0.0       0.0       0.0
 2 C  dxz             0.1       0.1       0.1       0.0       0.0       0.3
 2 C  dyz             0.5       0.1       0.0       0.1       0.3       0.0
 2 C  dx2y2           0.1       0.0       0.0       0.2       0.0       0.0
 2 C  dxy             0.1       0.1       0.2       0.0       0.0       0.5
 3 C  s               1.5      11.4       0.0       0.1       7.3       0.0
 3 C  pz              1.6       0.9       0.4       0.0       1.5       0.4
 3 C  px              2.7       6.4       0.0       0.3       0.1       0.0
 3 C  py              1.0       0.8       0.6       0.0       1.1       0.5
 3 C  dz2             0.1       0.1       0.0       0.0       0.1       0.1
 3 C  dyz             0.3       0.1       0.0       0.0       0.7       0.0
 3 C  dx2y2           0.2       0.4       0.0       0.0       0.0       0.0
 4 H  s              11.7       0.2      13.2       4.8       8.8      20.9
 5 H  s               1.8       0.9       0.0      51.2       0.9       0.0
 6 H  s              11.7       0.2      13.2       4.8       8.7      21.0
 7 H  s               2.7       8.0      20.4       3.1       5.2      13.0
 8 H  s               2.7       8.0      20.4       3.1       5.2      12.9
 9 H  s              19.8       7.8       0.0       0.3      17.2       0.0
10 H  s               1.5      33.1       0.0       0.4       6.9       0.0
11 H  s              15.2       6.4       0.0       0.2      13.3       0.0

                     24        25        26        27        28        29   
                   0.14571   0.18760   0.23745   0.32658   0.37590   0.39874
                   0.00000   0.00000   0.00000   0.00000   0.00000   0.00000
                  --------  --------  --------  --------  --------  --------
 0 C  s               1.3       1.8       0.1       0.1       1.0       0.0
 0 C  pz              0.1      13.6       0.9       3.7       7.6       9.5
 0 C  px              0.6       9.7       0.0       3.2       7.2       0.0
 0 C  py              0.1       8.8       0.6       2.8       4.8      13.5
 0 C  dz2             0.1       0.1       0.2       0.0       0.5       5.9
 0 C  dxz             0.0       3.1       0.2       0.1       0.9       0.4
 0 C  dyz             0.0       1.9       1.2       1.5       0.9       0.2
 0 C  dx2y2           0.4       0.0       0.2       0.5       0.7       2.1
 0 C  dxy             0.0       2.0       0.2       0.0       0.7       0.4
 1 C  s               0.9       5.8       2.0       0.0       2.3       0.0
 1 C  pz              0.3      14.4       0.4       0.7       7.6       2.7
 1 C  px              5.0       0.9      27.7       2.2       0.0       0.0
 1 C  py              0.2       9.9       0.6       0.4       5.5       3.7
 1 C  dz2             0.3       0.0       1.7       0.1       0.0       4.2
 1 C  dxz             0.0       1.6       0.7       0.0       1.4       0.0
 1 C  dyz             0.0       3.2       0.1       0.1       0.7       0.2
 1 C  dx2y2           0.7       0.2       5.3       0.1       0.4       1.4
 1 C  dxy             0.0       0.9       0.8       0.0       0.8       0.0
 2 C  s               6.5       0.8      10.4       6.1      12.9       0.0
 2 C  pz              1.7       0.5       0.5       3.6       4.0       0.8
 2 C  px              1.0       1.7      15.0       2.4       2.7       0.0
 2 C  py              1.2       0.4       0.2       2.7       3.1       1.2
 2 C  dz2             0.6       0.2       0.6       0.2       0.0       0.0
 2 C  dxz             0.2       1.2       0.1       0.1       2.0       0.1
 2 C  dyz             0.0       0.8       0.2       0.9       2.5       0.0
 2 C  dx2y2           1.7       0.3       2.3       0.2       0.0       0.0
 2 C  dxy             0.2       0.8       0.1       0.1       1.6       0.2
 3 C  s               0.3       1.0       0.2       9.2       9.3       0.0
 3 C  pz              4.1       0.6       0.8      14.2       1.5       2.5
 3 C  px              8.7       1.8       1.9      12.0       3.1       0.0
 3 C  py              2.5       0.5       0.5      11.0       1.2       3.6
 3 C  dz2             0.0       0.1       0.2       0.5       0.0       0.1
 3 C  dxz             0.2       0.1       1.2       4.9       0.0       0.0
 3 C  dyz             0.0       0.6       0.1       4.2       0.4       0.0
 3 C  dx2y2           0.1       0.1       0.4       0.5       0.0       0.0
 3 C  dxy             0.2       0.1       0.9       3.5       0.0       0.0
 4 H  s               0.7       1.4       0.9       1.8       0.2      14.3
 5 H  s               2.4       1.1       0.7       0.9       5.0       0.0
 6 H  s               0.7       1.4       0.9       1.8       0.2      14.3
 7 H  s               0.0       2.3       1.2       0.2       2.1       9.2
 8 H  s               0.0       2.3       1.2       0.2       2.1       9.2
 9 H  s              14.7       0.8       2.1       1.3       0.2       0.0
10 H  s              18.4       0.6       5.8       1.7       0.5       0.0
11 H  s              23.3       0.3       8.5       0.3       1.9       0.0

                     30        31        32        33        34        35   
                   0.40965   0.41442   0.47497   0.49196   0.52053   0.55741
                   0.00000   0.00000   0.00000   0.00000   0.00000   0.00000
                  --------  --------  --------  --------  --------  --------
 0 C  s               0.1       2.7       0.0       0.3       0.1       0.0
 0 C  pz              1.8       4.0       5.0       9.4       1.5       0.3
 0 C  px              2.1       4.6       0.0       2.6       6.2       0.0
 0 C  py              1.4       2.5       7.1       6.9       1.3       0.4
 0 C  dz2             0.6       0.0       0.5       0.2       0.2       0.0
 0 C  dxz             0.1       0.4       0.4       0.0       0.1       0.1
 0 C  dyz             0.1       0.7       0.0       0.5       0.8       0.0
 0 C  dx2y2           2.2       0.1       0.2       1.2       1.1       0.0
 0 C  dxy             0.0       0.2       0.5       0.0       0.1       0.1
 1 C  s               1.2       0.1       0.0       0.7       3.0       0.0
 1 C  pz              0.2       0.8       0.3       4.2       7.1       1.1
 1 C  px             10.9      11.4       0.0       0.7      21.8       0.0
 1 C  py              0.1       0.4       0.5       2.9       5.9       1.5
 1 C  dz2             0.7       0.2       0.0       0.1       0.0       0.4
 1 C  dxz             0.0       0.8       0.1       0.1       0.4       0.3
 1 C  dyz             0.0       0.4       0.0       2.8       2.3       0.0
 1 C  dx2y2           2.0       0.1       0.0       0.0       0.1       0.2
 1 C  dxy             0.0       0.6       0.1       0.1       0.4       0.4
 2 C  s               0.2      17.6       0.0       6.3       0.7       0.0
 2 C  pz              0.6       0.4      13.3       1.7       4.2      19.9
 2 C  px             15.7       0.7       0.0       2.5       1.8       0.1
 2 C  py              0.6       0.3      18.7       1.3       3.0      28.1
 2 C  dz2             0.9       0.2       0.4       0.2       0.4       0.0
 2 C  dxz             0.4       0.7       0.1       0.7       0.3       0.0
 2 C  dyz             1.8       1.9       0.0       5.0       0.6       0.0
 2 C  dx2y2           1.2       1.6       0.2       0.0       2.0       0.0
 2 C  dxy             0.4       0.3       0.1       0.6       0.1       0.0
 3 C  s               1.4      14.4       0.0      11.9       3.0       0.0
 3 C  pz              6.3       0.7      20.1       5.5       2.7      16.3
 3 C  px              1.7       1.7       0.1       2.4       0.1       0.0
 3 C  py              4.2       0.5      28.3       4.2       2.0      23.0
 3 C  dz2             0.7       0.3       0.3       0.0       0.2       0.0
 3 C  dxz             1.5       0.3       0.1       0.0       0.6       0.0
 3 C  dyz             0.0       1.9       0.0       3.8       1.0       0.0
 3 C  dx2y2           1.8       2.1       0.1       0.5       1.4       0.0
 3 C  dxy             1.3       0.1       0.1       0.0       0.3       0.0
 4 H  s               1.6       1.0       1.7       0.8       0.2       0.3
 5 H  s               6.3       0.1       0.0       2.5       3.0       0.0
 6 H  s               1.6       1.0       1.7       0.8       0.2       0.3
 7 H  s               1.7       0.4       0.0       0.0       0.4       3.5
 8 H  s               1.7       0.4       0.0       0.0       0.4       3.5
 9 H  s               9.6       7.9       0.0       6.4       3.2       0.0
10 H  s               8.6       8.0       0.0       2.0       7.7       0.0
11 H  s               4.7       5.7       0.0       8.0       8.1       0.0

                     36        37        38        39        40        41   
                   0.57733   0.62644   0.62973   0.63647   0.65862   0.66138
                   0.00000   0.00000   0.00000   0.00000   0.00000   0.00000
                  --------  --------  --------  --------  --------  --------
 0 C  s               9.1       0.0       5.1      15.4       1.0      16.0
 0 C  pz              9.2      15.2       0.4       5.2       0.1       4.2
 0 C  px              7.3       0.0       5.5       2.6       0.7       7.2
 0 C  py              5.9      21.4       0.4       3.9       0.0       2.6
 0 C  dz2             0.0       0.1       0.2       0.4       0.0       0.1
 0 C  dxz             0.0       1.7       0.0       0.0       0.4       0.1
 0 C  dyz             0.1       0.0       0.1       0.5       0.1       0.0
 0 C  dx2y2           0.0       0.0       0.4       1.7       0.0       0.4
 0 C  dxy             0.0       2.4       0.0       0.0       0.3       0.1
 1 C  s               6.9       0.0       6.3      12.1       8.0       1.0
 1 C  pz              6.4      11.9       3.1       4.5       0.5      16.4
 1 C  px              4.8       0.0       4.7       0.4      20.3       2.9
 1 C  py              4.2      16.8       1.9       3.2       0.4      11.2
 1 C  dz2             0.0       2.7       0.0       0.0       0.0       0.1
 1 C  dxz             0.1       1.0       0.1       0.0       0.0       0.0
 1 C  dyz             0.0       0.1       0.5       0.0       0.7       0.0
 1 C  dx2y2           0.0       1.1       0.0       0.1       0.1       0.3
 1 C  dxy             0.0       1.1       0.1       0.0       0.0       0.0
 2 C  s               2.2       0.0      14.9       0.6      24.4       0.2
 2 C  pz              1.0       4.2       2.4       0.8       5.7       0.4
 2 C  px             11.6       0.0       3.1       0.3       4.6       2.1
 2 C  py              0.7       6.0       1.9       0.5       4.4       0.2
 2 C  dz2             0.0       0.2       0.0       0.0       0.1       0.0
 2 C  dxz             0.4       1.2       0.4       0.2       0.9       0.2
 2 C  dyz             0.3       0.0       0.1       0.0       0.1       0.0
 2 C  dx2y2           0.0       0.0       0.1       0.0       0.3       0.1
 2 C  dxy             0.2       1.8       0.3       0.1       0.5       0.2
 3 C  s               0.1       0.0       3.3      13.6      18.6       0.8
 3 C  pz              0.6       0.8       0.1       2.8       0.9       5.1
 3 C  px              0.9       0.0       1.9       0.8       0.3       5.0
 3 C  py              0.4       1.2       0.1       1.9       0.7       3.2
 3 C  dz2             0.1       0.4       0.3       0.0       0.0       0.0
 3 C  dyz             0.5       0.0       0.1       0.0       0.0       0.2
 3 C  dx2y2           0.1       0.1       1.0       0.0       0.1       0.0
 4 H  s               2.8       1.1       0.3       6.1       0.0       0.4
 5 H  s               2.3       0.0      11.5       5.5       0.4       4.0
 6 H  s               2.8       1.1       0.3       6.1       0.0       0.4
 7 H  s               5.5       3.0       5.9       2.5       1.0       3.7
 8 H  s               5.5       3.0       5.9       2.5       1.0       3.8
 9 H  s               4.9       0.0       6.0       1.1       0.3       1.1
10 H  s               0.4       0.0      10.8       0.2       2.4       0.6
11 H  s               2.7       0.0       0.4       4.2       0.6       5.3

                     42        43        44        45        46        47   
                   0.66620   0.67442   0.67868   0.69179   0.71046   0.74314
                   0.00000   0.00000   0.00000   0.00000   0.00000   0.00000
                  --------  --------  --------  --------  --------  --------
 0 C  s               0.0       8.7       3.2       0.0       0.6      20.9
 0 C  pz              1.0       3.8       0.4      14.1       5.2       2.8
 0 C  px              0.0       1.0      12.5       0.0      10.5       6.9
 0 C  py              1.4       2.5       0.5      20.0       4.2       2.2
 0 C  dz2             0.7       0.0       0.0       1.1       0.1       0.1
 0 C  dxz             0.1       0.1       0.0       0.9       0.0       0.7
 0 C  dyz             0.0       0.0       0.0       0.0       0.2       0.4
 0 C  dx2y2           0.3       0.0       0.1       0.5       0.7       0.5
 0 C  dxy             0.2       0.0       0.0       1.1       0.0       0.7
 1 C  s               0.0       7.6       0.2       0.0       0.2       7.1
 1 C  pz             16.6       0.1       0.9      10.7       3.7       2.0
 1 C  px              0.0       5.4       6.2       0.0       0.3       1.6
 1 C  py             23.4       0.1       0.8      15.1       2.6       1.3
 1 C  dz2             1.4       0.0       0.0       0.6       0.0       0.1
 1 C  dxz             0.5       0.0       0.0       0.2       0.0       0.0
 1 C  dyz             0.0       0.0       0.0       0.0       1.0       1.8
 1 C  dx2y2           0.6       0.1       0.1       0.2       0.3       0.0
 1 C  dxy             0.6       0.0       0.0       0.2       0.0       0.0
 2 C  s               0.0       2.2       0.2       0.0       1.8       0.9
 2 C  pz              2.9       2.3       1.1       0.3       7.0       3.4
 2 C  px              0.0      11.8       2.9       0.0       7.9       0.7
 2 C  py              4.0       1.2       0.7       0.5       4.4       2.5
 2 C  dz2             0.0       0.0       0.0       0.1       0.0       0.0
 2 C  dxz             0.1       0.3       0.0       0.4       0.2       1.0
 2 C  dyz             0.0       0.3       0.0       0.0       0.1       0.0
 2 C  dxy             0.1       0.2       0.0       0.6       0.1       0.7
 3 C  s               0.0       2.9       6.9       0.0       3.1       4.1
 3 C  pz              0.9       3.2       1.1       0.0       1.6       1.7
 3 C  px              0.0       3.1      29.2       0.0       1.5       3.1
 3 C  py              1.3       2.1       0.4       0.1       1.0       1.4
 3 C  dz2             0.0       0.1       0.2       0.1       0.1       0.3
 3 C  dyz             0.0       0.4       0.0       0.0       0.4       0.6
 3 C  dx2y2           0.0       0.0       0.5       0.0       0.1       0.4
 3 C  dxy             0.1       0.0       0.0       0.0       0.1       0.0
 4 H  s               3.6       8.1       0.1      16.0       4.7       2.7
 5 H  s               0.0       6.8       6.2       0.0       6.9       6.7
 6 H  s               3.6       8.1       0.1      16.0       4.7       2.7
 7 H  s              18.2       1.6       0.2       0.5       0.3       3.9
 8 H  s              18.2       1.7       0.2       0.5       0.3       3.9
 9 H  s               0.0       8.4       2.3       0.0      12.5       0.4
10 H  s               0.0       0.3      22.3       0.0       0.3       0.3
11 H  s               0.0       5.4       0.5       0.0      11.0       9.3

                     48        49        50        51        52        53   
                   0.81432   0.90686   0.99906   1.13209   1.30269   1.43530
                   0.00000   0.00000   0.00000   0.00000   0.00000   0.00000
                  --------  --------  --------  --------  --------  --------
 0 C  s               0.5       4.9      18.5       7.8       0.0       0.0
 0 C  pz              0.0       0.7       0.4       0.1       0.4       0.0
 0 C  px              0.1      21.3       1.1       0.6       0.0       0.0
 0 C  py              0.0       0.6       0.2       0.0       0.6       0.0
 0 C  dz2             0.0       0.2       0.0       0.3       3.4       2.1
 0 C  dxz             0.1       0.3       0.2       0.0       5.6       1.6
 0 C  dyz             0.0       0.8       0.5       0.2       0.2       0.1
 0 C  dx2y2           0.0       0.9       0.0       0.5       0.7       0.5
 0 C  dxy             0.1       0.3       0.2       0.0       8.5       2.5
 1 C  s               1.2      17.2      19.7      18.8       0.0       0.0
 1 C  pz              0.1       1.2       0.7       0.0       0.1       0.0
 1 C  px              0.7       1.3       0.4       0.2       0.0       0.0
 1 C  py              0.1       1.0       0.6       0.0       0.1       0.1
 1 C  dz2             0.0       0.1       0.0       0.4       6.1       0.5
 1 C  dxz             0.0       0.1       0.2       1.9       9.6       1.9
 1 C  dyz             0.2       0.3       0.1       0.7       0.4       0.0
 1 C  dx2y2           0.0       0.1       0.0       0.8       1.2       0.1
 1 C  dxy             0.0       0.1       0.1       1.2      14.6       2.7
 2 C  s              10.6       1.3       1.7       2.4       0.0       0.0
 2 C  pz             14.0       2.5       5.2       3.9       0.0       0.4
 2 C  px             12.1       2.1      13.2      13.3       0.0       0.0
 2 C  py             10.9       1.6       3.1       2.3       0.0       0.5
 2 C  dz2             0.0       0.0       0.0       0.5       4.9      32.0
 2 C  dxz             0.8       0.5       0.5       0.5       9.9       1.4
 2 C  dyz             0.6       1.0       0.2       0.2       0.1       1.4
 2 C  dx2y2           0.0       0.3       0.0       0.9       2.6       9.8
 2 C  dxy             0.6       0.5       0.4       0.5      13.0       3.0
 3 C  s               9.8       0.8       0.1       0.8       0.0       0.0
 3 C  pz             15.3       0.1       1.7       3.1       0.2       0.2
 3 C  px              4.2      20.9       3.8      18.6       0.0       0.0
 3 C  py             11.4       0.0       1.0       1.7       0.3       0.3
 3 C  dz2             0.4       0.2       0.1       0.6      11.1       3.4
 3 C  dxz             1.7       0.0       0.3       0.3       0.7      14.1
 3 C  dyz             0.9       1.5       0.0       0.2       0.4       0.0
 3 C  dx2y2           0.7       0.2       0.2       1.2       4.0       2.1
 3 C  dxy             1.1       0.0       0.3       0.3       0.6      18.9
 4 H  s               0.0       3.5       3.7       0.9       0.3       0.1
 5 H  s               0.0       0.5       2.5       2.5       0.0       0.0
 6 H  s               0.0       3.5       3.7       0.9       0.3       0.1
 7 H  s               0.0       2.6       4.8       0.8       0.0       0.0
 8 H  s               0.0       2.6       4.8       0.8       0.0       0.0
 9 H  s               0.1       0.6       3.1       2.5       0.0       0.0
10 H  s               0.8       1.6       0.8       3.1       0.0       0.0
11 H  s               0.7       0.2       1.7       3.6       0.0       0.0

                     54        55        56        57        58        59   
                   1.52853   1.61820   1.68842   1.78234   1.81182   1.83440
                   0.00000   0.00000   0.00000   0.00000   0.00000   0.00000
                  --------  --------  --------  --------  --------  --------
 0 C  s               0.3       0.0       0.7       0.7       0.0       0.8
 0 C  pz              0.0       0.0       0.3       0.5       0.9       0.4
 0 C  px              0.3       0.0       1.3       0.2       0.0       0.3
 0 C  py              0.0       0.0       0.2       0.4       1.2       0.3
 0 C  dz2             4.4       1.9       0.0       0.8       4.0       0.0
 0 C  dxz            12.0       1.9       4.1       1.4      14.6       8.9
 0 C  dyz            23.6       0.1       0.3      11.3       0.3       2.7
 0 C  dx2y2           5.1       0.4       0.0       0.1       0.6       0.9
 0 C  dxy             8.5       3.0       2.8       0.8      21.7       5.6
 1 C  s               0.1       0.0       0.5       0.6       0.0       2.7
 1 C  pz              0.4       0.7       0.0       0.8       4.2       0.6
 1 C  px              2.1       0.0       3.4       0.3       0.0       0.2
 1 C  py              0.2       1.0       0.0       0.6       5.9       0.4
 1 C  dz2             2.3       0.7       2.9       0.2       2.1       0.3
 1 C  dxz             7.4       2.9      10.6       1.7       3.3       4.4
 1 C  dyz            13.4       0.1       0.7      12.9       0.0       9.4
 1 C  dx2y2           2.6       0.1       8.7       0.3       1.0       4.5
 1 C  dxy             5.2       4.3       9.2       0.9       4.2       2.2
 2 C  s               0.6       0.0       0.8       1.2       0.0       0.3
 2 C  pz              3.9       0.3       0.9       0.2       0.2       0.9
 2 C  px              0.8       0.0       1.5       0.2       0.0       0.9
 2 C  py              2.7       0.4       0.7       0.1       0.3       0.6
 2 C  dz2             0.2       1.1       6.2       0.5       2.9       2.4
 2 C  dxz             0.0       0.5       2.5       1.7       7.8       7.6
 2 C  dyz             0.2       0.0       0.4      23.8       0.2       2.9
 2 C  dx2y2           0.4       0.5      21.6       0.3       0.5       3.5
 2 C  dxy             0.0       0.6       0.8       0.7      11.6       5.9
 3 C  s               0.7       0.0       0.9       0.8       0.0       0.4
 3 C  pz              0.0       0.0       0.4       0.1       0.0       0.4
 3 C  px              0.2       0.0       0.8       1.1       0.0       0.6
 3 C  py              0.0       0.1       0.2       0.1       0.0       0.3
 3 C  dz2             0.0      32.0       0.3       3.1       0.5       4.7
 3 C  dxz             0.0      14.1       5.6       0.0       2.1       0.2
 3 C  dyz             0.0       1.7       2.9       6.9       0.0       3.3
 3 C  dx2y2           0.0       8.2       0.0      15.6       0.1       9.3
 3 C  dxy             0.0      22.9       3.8       0.3       3.1       0.4
 4 H  s               0.1       0.1       0.0       0.4       0.2       0.3
 5 H  s               0.2       0.0       0.3       0.1       0.0       0.0
 6 H  s               0.1       0.1       0.0       0.4       0.2       0.3
 7 H  s               0.1       0.1       0.1       0.6       3.1       1.1
 8 H  s               0.1       0.1       0.1       0.6       3.1       1.1
 9 H  s               1.8       0.0       0.6       3.1       0.0       4.0
10 H  s               0.0       0.0       0.2       3.6       0.0       2.4
11 H  s               0.0       0.0       2.6       0.0       0.0       1.4

                     60        61        62        63        64        65   
                   1.92027   1.96690   2.02245   2.11226   2.14589   2.17947
                   0.00000   0.00000   0.00000   0.00000   0.00000   0.00000
                  --------  --------  --------  --------  --------  --------
 0 C  s               0.3       0.0       0.1       0.1       0.0       0.0
 0 C  pz              0.5       1.2       0.0       0.2       0.3       0.0
 0 C  px              0.6       0.0       0.3       4.0       0.0       0.0
 0 C  py              0.4       1.7       0.0       0.2       0.4       0.0
 0 C  dz2             0.1       6.4       0.5       8.4      35.6       5.5
 0 C  dxz             1.2      10.8       2.0       4.8       1.5       1.1
 0 C  dyz            25.8       0.1       0.9       2.9       1.3       0.3
 0 C  dx2y2           1.1       3.2       0.6      29.0      12.6       1.5
 0 C  dxy             1.5      14.1       1.5       5.7       1.1       1.8
 1 C  s               0.9       0.0       0.3       0.8       0.0       0.0
 1 C  pz              1.1       0.1       0.3       0.2       0.0       0.3
 1 C  px              1.0       0.0       0.7       0.1       0.0       0.0
 1 C  py              0.8       0.2       0.2       0.1       0.1       0.4
 1 C  dz2             1.1       8.9       1.5       0.7       0.3      41.6
 1 C  dxz             1.7       5.0       0.8       0.3       5.9       5.3
 1 C  dyz            16.0       0.5       0.6       0.3       0.1       1.4
 1 C  dx2y2           0.3       2.2       5.3       2.8       0.0      15.5
 1 C  dxy             1.4       8.0       1.0       0.1       8.5       5.4
 2 C  s               2.0       0.0       2.9       0.5       0.0       0.0
 2 C  pz              1.3       0.5       0.7       0.2       0.4       0.0
 2 C  px              0.3       0.0       0.4       0.8       0.0       0.0
 2 C  py              0.9       0.6       0.5       0.2       0.5       0.0
 2 C  dz2             0.1       5.5       0.2       0.4       6.5       1.5
 2 C  dxz             2.5       5.3       1.9       4.1       0.2       2.7
 2 C  dyz             4.1       0.3      16.2       0.1       0.3       0.1
 2 C  dx2y2           1.3       1.2       0.3       2.1       2.0       0.3
 2 C  dxy             2.2       8.3       1.8       2.5       0.6       4.1
 3 C  s               1.0       0.0       1.5       0.6       0.0       0.0
 3 C  pz              0.4       0.1       1.2       0.1       0.2       0.0
 3 C  px              0.2       0.0       0.4       0.5       0.0       0.0
 3 C  py              0.3       0.1       0.9       0.1       0.2       0.0
 3 C  dz2             0.1       0.8       1.0       0.0       4.5       0.2
 3 C  dxz             0.0       3.4      24.4       0.3       3.1       0.4
 3 C  dyz            19.1       0.0       1.7      13.2       0.1       0.0
 3 C  dx2y2           4.2       0.5       6.6       1.3       1.9       0.0
 3 C  dxy             0.1       4.5      15.2       0.1       3.9       0.6
 4 H  s               0.6       2.9       0.0       1.4       3.8       0.2
 5 H  s               0.6       0.0       0.3       7.1       0.0       0.0
 6 H  s               0.6       2.9       0.0       1.4       3.8       0.2
 7 H  s               0.0       0.3       0.2       0.2       0.1       4.8
 8 H  s               0.0       0.3       0.2       0.2       0.1       4.8
 9 H  s               0.3       0.0       0.3       0.6       0.0       0.0
10 H  s               0.7       0.0       1.2       0.1       0.0       0.0
11 H  s               1.1       0.0       3.4       1.4       0.0       0.0

                     66        67        68        69        70        71   
                   2.23685   2.31239   2.38448   2.46723   2.70883   2.80667
                   0.00000   0.00000   0.00000   0.00000   0.00000   0.00000
                  --------  --------  --------  --------  --------  --------
 0 C  s               0.1       0.2       0.0       1.4       0.5       0.0
 0 C  pz              0.1       0.3       0.0       1.5       0.4       0.1
 0 C  px              0.0       0.2       0.0       0.9       0.4       0.0
 0 C  py              0.1       0.2       0.0       1.0       0.2       0.1
 0 C  dz2             7.4       0.0       3.6       0.6       0.2       0.6
 0 C  dxz             3.2       2.2       0.0       9.4       1.9       0.0
 0 C  dyz             0.1       4.6       0.1      10.3       1.4       1.3
 0 C  dx2y2          22.5       1.3       1.2       0.0       0.1       0.9
 0 C  dxy             1.2       1.2       0.0       6.1       1.3       0.0
 1 C  s               0.2       1.3       0.0       0.8       0.2       1.1
 1 C  pz              0.2       0.9       0.0       1.3       0.1       0.0
 1 C  px              0.0       0.9       0.0       1.3       2.7       0.9
 1 C  py              0.2       0.7       0.1       0.8       0.0       0.0
 1 C  dz2             4.8       2.5       1.4       1.4       2.8       2.3
 1 C  dxz             3.9       0.0       4.5      10.4       4.8       4.1
 1 C  dyz             5.2      12.3       0.1       7.8       2.4       0.0
 1 C  dx2y2          10.1      15.3       0.2       0.6       4.6       7.9
 1 C  dxy             2.2       0.4       6.7       7.2       3.9       2.1
 2 C  s               0.5       2.2       0.0       4.5       0.8       3.7
 2 C  pz              0.5       0.0       0.2       1.3       1.5       0.5
 2 C  px              2.0       2.1       0.0       0.1       3.8       0.2
 2 C  py              0.5       0.0       0.3       1.0       1.2       0.4
 2 C  dz2             0.7       0.6      16.3       0.1       7.6       3.5
 2 C  dxz             1.5       4.7      10.8       0.0       2.5      16.5
 2 C  dyz             0.0      12.6       0.4       6.9      11.1       0.4
 2 C  dx2y2           2.4       7.3       7.1       0.1      14.1       9.6
 2 C  dxy             0.8       2.1      13.3       0.0       1.3      13.9
 3 C  s               0.4       0.2       0.0       1.8       3.2       2.2
 3 C  pz              0.0       0.0       0.5       0.8       1.6       1.5
 3 C  px              1.0       1.2       0.0       0.5       1.4       0.5
 3 C  py              0.0       0.0       0.7       0.6       1.2       1.1
 3 C  dz2             3.3       4.0      18.2       0.4       0.8       4.3
 3 C  dxz             0.1       0.0       3.0       6.4       9.2       0.0
 3 C  dyz            16.3       0.0       0.6       3.3       0.4      11.3
 3 C  dx2y2           3.1      11.8       6.9       2.3       2.2       5.9
 3 C  dxy             0.1       0.1       3.2       5.5       7.3       0.0
 4 H  s               0.6       0.4       0.2       0.2       0.0       0.0
 5 H  s               1.7       0.1       0.0       0.2       0.1       0.0
 6 H  s               0.6       0.4       0.2       0.2       0.0       0.0
 7 H  s               0.1       0.8       0.0       0.2       0.0       0.2
 8 H  s               0.1       0.8       0.0       0.2       0.0       0.2
 9 H  s               0.1       1.8       0.0       0.2       0.2       1.1
10 H  s               0.8       2.4       0.0       0.3       0.2       0.8
11 H  s               1.4       0.1       0.0       0.1       0.7       0.7



                      *****************************
                      * MAYER POPULATION ANALYSIS *
                      *****************************

  NA   - Mulliken gross atomic population
  ZA   - Total nuclear charge
  QA   - Mulliken gross atomic charge
  VA   - Mayer's total valence
  BVA  - Mayer's bonded valence
  FA   - Mayer's free valence

  ATOM       NA         ZA         QA         VA         BVA        FA
  0 C      6.2908     6.0000    -0.2908     4.0706     4.0706    -0.0000
  1 C      6.1434     6.0000    -0.1434     4.0880     4.0880    -0.0000
  2 C      6.1431     6.0000    -0.1431     4.1569     4.1569    -0.0000
  3 C      6.2006     6.0000    -0.2006     3.9765     3.9765     0.0000
  4 H      0.8899     1.0000     0.1101     0.9518     0.9518    -0.0000
  5 H      0.8977     1.0000     0.1023     0.9504     0.9504    -0.0000
  6 H      0.8899     1.0000     0.1101     0.9518     0.9518    -0.0000
  7 H      0.9012     1.0000     0.0988     0.9420     0.9420    -0.0000
  8 H      0.9012     1.0000     0.0988     0.9420     0.9420    -0.0000
  9 H      0.9290     1.0000     0.0710     0.9486     0.9486     0.0000
 10 H      0.9058     1.0000     0.0942     0.9394     0.9394     0.0000
 11 H      0.9073     1.0000     0.0927     0.9547     0.9547     0.0000

  Mayer bond orders larger than 0.100000
B(  0-C ,  1-C ) :   1.1854 B(  0-C ,  4-H ) :   0.9481 B(  0-C ,  5-H ) :   0.9491 
B(  0-C ,  6-H ) :   0.9481 B(  1-C ,  2-C ) :   1.0833 B(  1-C ,  7-H ) :   0.9072 
B(  1-C ,  8-H ) :   0.9073 B(  2-C ,  3-C ) :   2.0871 B(  2-C ,  9-H ) :   0.9338 
B(  3-C , 10-H ) :   0.9210 B(  3-C , 11-H ) :   0.9040 

-------
TIMINGS
-------

Total SCF time: 0 days 0 hours 0 min 0 sec 

Total time                  ....       0.280 sec
Sum of individual times     ....       0.274 sec  ( 97.7%)

SCF preparation             ....       0.022 sec  (  7.7%)
Fock matrix formation       ....       0.234 sec  ( 83.5%)
  Startup                   ....       0.000 sec  (  0.2% of F)
  Split-RI-J                ....       0.078 sec  ( 33.4% of F)
  XC integration            ....       0.154 sec  ( 65.8% of F)
    Basis function eval.    ....       0.070 sec  ( 45.7% of XC)
    Density eval.           ....       0.027 sec  ( 17.7% of XC)
    XC-Functional eval.     ....       0.018 sec  ( 11.6% of XC)
    XC-Potential eval.      ....       0.029 sec  ( 19.1% of XC)
Diagonalization             ....       0.000 sec  (  0.0%)
Density matrix formation    ....       0.001 sec  (  0.2%)
Total Energy calculation    ....       0.000 sec  (  0.0%)
Population analysis         ....       0.015 sec  (  5.3%)
Orbital Transformation      ....       0.001 sec  (  0.2%)
Orbital Orthonormalization  ....       0.000 sec  (  0.0%)
DIIS solution               ....       0.001 sec  (  0.2%)
  MO trafo                  ....       0.000 sec  (  0.0 % of DIIS)
  Orb grad                  ....       0.000 sec  (  0.0 % of DIIS)
  Energy W gradient         ....       0.000 sec  (  0.0 % of DIIS)
  DIIS error                ....       0.000 sec  (  7.2 % of DIIS)
  DIIS work                 ....       0.001 sec  ( 89.2 % of DIIS)
  Form Q                    ....       0.000 sec  (  0.0 % of DIIS)
  Form QpQm                 ....       0.000 sec  (  0.0 % of DIIS)
  Exp/Cayley                ....       0.000 sec  (  0.0 % of DIIS)
  Orb update                ....       0.000 sec  (  0.0 % of DIIS)
  Wake-sleep                ....       0.000 sec  (  3.5 % of DIIS)
SOSCF solution              ....       0.001 sec  (  0.5%)
  MO trafo                  ....       0.001 sec  ( 59.6 % of SOSCF)
  Orb grad                  ....       0.000 sec  (  2.0 % of SOSCF)
  Rot update                ....       0.000 sec  (  6.3 % of SOSCF)
  Step                      ....       0.000 sec  ( 29.6 % of SOSCF)
Finished LeanSCF after   0.3 sec

Maximum memory used throughout the entire LEANSCF-calculation: 7.6 MB


-------------------------------------------------------------------------------
                          DFT DISPERSION CORRECTION                            
                                                                               
                                DFTD4 V3.4.0                                   
-------------------------------------------------------------------------------
The PBE functional is recognized
Active option DFTDOPT                   ...         5   

-------------------------   ----------------
Dispersion correction           -0.007128657
-------------------------   ----------------

------------------   -----------------
gCP correction             0.045561836
------------------   -----------------

-------------------------   --------------------
FINAL SINGLE POINT ENERGY      -156.813684366282
-------------------------   --------------------


------------------------------------------------------------------------------
                              ORCA PROPERTY CALCULATIONS
------------------------------------------------------------------------------

GBWName                                 ... sp.gbw
Number of atoms                         ...     12
Number of basis functions               ...     72
Max core memory                         ...   1024 MB

Electric properties:
Dipole moment                           ... YES
Quadrupole moment                       ...  NO
Static polarizability (Dipole/Dipole)   ...  NO
Static polarizability (Dipole/Quad.)    ...  NO
Static polarizability (Quad./Quad.)     ...  NO
Static polarizability (Velocity)        ...  NO

Atomic electric properties:
Dipole moment                           ...  NO
Quadrupole moment                       ...  NO
Static polarizability                   ...  NO

Choice of electric origin               ... Center of mass
Position of electric origin             ...     0.000007    -0.000002     0.000002

General magnetic properties:
Magnetizability                         ...  NO

EPR properties:
g-Tensor (aka g-matrix)                 ...  NO
Zero-Field splitting spin-orbit         ...  NO
Zero-field splitting spin-spin          ...  NO
Hyperfine couplings                     ...  NO (   0 nuclei)
Quadrupole couplings                    ...  NO (   0 nuclei)
Contact density                         ...  NO (   0 nuclei)

NMR properties:
Chemical shifts                         ...  NO (   0 nuclei)
Spin-rotation constants                 ...  NO (   0 nuclei)
Spin-spin couplings                     ...  NO (   0 nuclei,    0 pairs)

Choice of magnetic origin               ... GIAO
Position of magnetic origin             ...     0.000000     0.000000     0.000000

Properties with geometric perturbations:
SCF Hessian                             ...  NO
IR spectrum                             ...  NO
VCD spectrum                            ...  NO
X-ray spectroscopy properties:
SCF XES/XAS/RIXS spectra                ...  NO


-------------
DIPOLE MOMENT
-------------

Method             : SCF
Type of density    : Electron Density
Multiplicity       :   1
Irrep              :   0
Energy             :  -156.8521175453868466 Eh
Relativity type    : 
Basis              : AO
                                X                 Y                 Z
Electronic contribution:     -1.699600063       0.529956366      -0.717369771
Nuclear contribution   :      1.843267658      -0.454956591       0.635911290
                        -----------------------------------------
Total Dipole Moment    :      0.143667595       0.074999775      -0.081458482
                        -----------------------------------------
Magnitude (a.u.)       :      0.181385855
Magnitude (Debye)      :      0.461046204



--------------------
Rotational spectrum 
--------------------
 
Rotational constants in cm-1:             0.518000             0.187940             0.145348 
Rotational constants in MHz :         15529.243771          5634.312494          4357.429519 

Dipole components along the rotational axes: 
x,y,z [a.u.] :     0.143468     0.110985     0.000104 
x,y,z [Debye]:     0.364667     0.282102     0.000265 

 

Dipole moment calculation done in   0.0 sec 

Maximum memory used throughout the entire PROP-calculation: 5.1 MB

--------------------------------
SUGGESTED CITATIONS FOR THIS RUN
--------------------------------

Below you find a list of papers that are relevant to this ORCA run
We neither can nor want to force you to cite these papers, but we appreciate if you do
You receive ORCA, which is the product of decades of hard work by many enthusiastic individuals, for free
The only thing we kindly ask in return is that you cite our papers,
We deeply appreciate it, if you show your appreciation for ORCA by not just citing the generic ORCA reference.

Please note that relegating all ORCA citations to the supporting information does *not* help us.
SI sections are not indexed - citations you put there will not count into any citation statistics
But we need these citations in order to attract the funding resources that allow us to do what we are doing

Therefore, if you are a happy ORCA user, please consider citing a few of the papers listed below in the main body of your paper

In addition to the list printed below, the program has created the file sp.bibtex that contains the list in bibtex format
You can import this file easily into all common literature databanks and citation aid programs


List of essential papers. We consider these as the minimum necessary citations

  1. Neese,F.
     Software update: the ORCA program system, version 5.0
     WIRES Comput. Molec. Sci., 2022 12(1)e1606
     doi.org/10.1002/wcms.1606

List of papers to cite with high priority. The work reported in these papers was absolutely
necessary for this run to complete.
Our perspective: the developers of density functionals and basis sets usually get cited in chemistry papers
Good! But without the algorithms to do something with them, the functionals or basis sets would not do anything.
Hence, in our opinion, the algorithm design and method developments papers are equally worthy of getting cited

  1. Neese,F.
     An improvement of the resolution of the identity approximation for the formation of the Coulomb matrix
     J. Comp. Chem., 2003 24(14)1740-1747
     doi.org/10.1002/jcc.10318
  2. Neese,F.
     The SHARK Integral Generation and Digestion System
     J. Comp. Chem., 2022  1-16
     doi.org/10.1002/jcc.26942
  3. Caldeweyher,E.; Bannwarth,C.; Grimme,S.
     Extension of the D3 dispersion coefficient model
     J. Chem. Phys., 2017 147 034112
     doi.org/10.1063/1.4993215
  4. Caldeweyher,E.; Ehlert,S.; Hansen,A.; Neugebauer,H.; Spicher,S.; Bannwarth,C.; Grimme,S.
     A generally applicable atomic-charge dependent London dispersion correction
     J. Chem. Phys., 2019 150 154122
     doi.org/10.1063/1.5090222
  5. Caldeweyher,E.; Mewes,J.; Ehlert,S.; Grimme,S.
     Extension and evaluation of the D4 London-dispersion model for periodic systems
     Phys. Chem. Chem. Phys., 2020 22(16)8499-8512
     doi.org/10.1039/D0CP00502A
  6. Wittmann,L.; Gordiy,I.; Friede,M.; Helmich-Paris,B.; Grimme,S.; Hansen,A.; Bursch,M.
     Extension of the D3 and D4 London Dispersion Corrections to the full Actinides Series
     Phys. Chem. Chem. Phys., 2024 26(32)21379-21394
     doi.org/https://doi.org/10.1039/D4CP01514B 

List of suggested additional citations. These are papers that are important in the 'surrounding' of 
of this run, or papers that preceded the highly important papers. If you like your results we are grateful for a citation.

  1. Neese,F.
     The ORCA program system
     WIRES Comput. Molec. Sci., 2012 2(1)73-78
     doi.org/10.1002/wcms.81
  2. Neese,F.
     Software update: the ORCA program system, version 4.0
     WIRES Comput. Molec. Sci., 2018 8(1)1-6
     doi.org/10.1002/wcms.1327
  3. Neese,F.; Wennmohs,F.; Becker,U.; Riplinger,C.
     The ORCA quantum chemistry program package
     J. Chem. Phys., 2020 152 Art. No. L224108
     doi.org/10.1063/5.0004608

List of optional additional citations

  1. Neese,F.
     Approximate second-order SCF convergence for spin unrestricted wavefunctions
     Chem. Phys. Lett., 2000 325(1-3)93-98
     doi.org/10.1016/s0009-2614(00)00662-x

Timings for individual modules:

Sum of individual times          ...        0.479 sec (=   0.008 min)
Startup calculation              ...        0.123 sec (=   0.002 min)  25.6 %
SCF iterations                   ...        0.327 sec (=   0.005 min)  68.3 %
Property calculations            ...        0.029 sec (=   0.000 min)   6.1 %
                             ****ORCA TERMINATED NORMALLY****
TOTAL RUN TIME: 0 days 0 hours 0 minutes 0 seconds 542 msec
