      -----------------------------------------------------------      
     |                   =====================                   |     
     |                           x T B                           |     
     |                   =====================                   |     
     |                         S. Grimme                         |     
     |          Mulliken Center for Theoretical Chemistry        |     
     |                    University of Bonn                     |     
      -----------------------------------------------------------      

   * xtb version 6.7.1 (41059b4) compiled by 'michael@archlinux' on 2025-03-24

   xtb is free software: you can redistribute it and/or modify it under
   the terms of the GNU Lesser General Public License as published by
   the Free Software Foundation, either version 3 of the License, or
   (at your option) any later version.
   
   xtb is distributed in the hope that it will be useful,
   but WITHOUT ANY WARRANTY; without even the implied warranty of
   MERCHANTABILITY or FITNESS FOR A PARTICULAR PURPOSE.  See the
   GNU Lesser General Public License for more details.
   
   Cite this work as:
   * C. Bannwarth, E. Caldeweyher, S. Ehlert, A. Hansen, P. Pracht,
     J. Seibert, S. Spicher, S. Grimme, WIREs Comput. Mol. Sci., 2020, 11,
     e01493. DOI: 10.1002/wcms.1493
   
   for GFN2-xTB:
   * C. Bannwarth, S. Ehlert and S. Grimme., J. Chem. Theory Comput., 2019,
     15, 1652-1671. DOI: 10.1021/acs.jctc.8b01176
   for GFN1-xTB:
   * S. Grimme, C. Bannwarth, P. Shushkov, J. Chem. Theory Comput., 2017,
     13, 1989-2009. DOI: 10.1021/acs.jctc.7b00118
   for GFN0-xTB:
   * P. Pracht, E. Caldeweyher, S. Ehlert, S. Grimme, ChemRxiv, 2019, preprint.
     DOI: 10.26434/chemrxiv.8326202.v1
   for GFN-FF:
   * S. Spicher and S. Grimme, Angew. Chem. Int. Ed., 2020, 59, 15665-15673.
     DOI: 10.1002/anie.202004239
   
   for ALPB and GBSA implicit solvation:
   * S. Ehlert, M. Stahn, S. Spicher, S. Grimme, J. Chem. Theory Comput.,
     2021, 17, 4250-4261. DOI: 10.1021/acs.jctc.1c00471
   
   for ddCOSMO and CPCM-X implicit solvation:
   * M. Stahn, S. Ehlert, S. Grimme, J. Phys. Chem. A,
     2023, XX, XXXX-XXXX. DOI: 10.1021/acs.jpca.3c04382
   
   for DFT-D4:
   * E. Caldeweyher, C. Bannwarth and S. Grimme, J. Chem. Phys., 2017,
     147, 034112. DOI: 10.1063/1.4993215
   * E. Caldeweyher, S. Ehlert, A. Hansen, H. Neugebauer, S. Spicher,
     C. Bannwarth and S. Grimme, J. Chem. Phys., 2019, 150, 154122.
     DOI: 10.1063/1.5090222
   * E. Caldeweyher, J.-M. Mewes, S. Ehlert and S. Grimme, Phys. Chem. Chem. Phys.
     2020, 22, 8499-8512. DOI: 10.1039/D0CP00502A
   
   for sTDA-xTB:
   * S. Grimme and C. Bannwarth, J. Chem. Phys., 2016, 145, 054103.
     DOI: 10.1063/1.4959605
   
   in the mass-spec context:
   * V. Asgeirsson, C. Bauer and S. Grimme, Chem. Sci., 2017, 8, 4879.
     DOI: 10.1039/c7sc00601b
   * J. Koopman and S. Grimme, ACS Omega 2019, 4, 12, 15120-15133.
     DOI: 10.1021/acsomega.9b02011
   
   for metadynamics refer to:
   * S. Grimme, J. Chem. Theory Comput., 2019, 155, 2847-2862
     DOI: 10.1021/acs.jctc.9b00143
   
   for SPH calculations refer to:
   * S. Spicher and S. Grimme, J. Chem. Theory Comput., 2021, 17, 1701-1714
     DOI: 10.1021/acs.jctc.0c01306
   
   for ONIOM refer to:
   * C. Plett, A. Katbashev, S. Ehlert, S. Grimme, M. Bursch,
     Phys. Chem. Chem. Phys., 2023, 25, 17860-17868. DOI: 10.1039/D3CP02178E
   
   for DIPRO refer to:
   * J. Kohn, N. Gildemeister, S. Grimme, D. Fazzi, A. Hansen,
     J. Chem. Phys., 2023, just accepted.
   
   for PTB refer to:
   * S. Grimme, M. Mueller, A. Hansen, J. Chem. Phys., 2023, 158, 124111.
     DOI: 10.1063/5.0137838
   
   with help from (in alphabetical order)
   P. Atkinson, C. Bannwarth, F. Bohle, G. Brandenburg, E. Caldeweyher
   M. Checinski, S. Dohm, S. Ehlert, S. Ehrlich, I. Gerasimov, C. Hölzer
   A. Katbashev, J. Kohn, J. Koopman, C. Lavigne, S. Lehtola, F. März, M. Müller,
   F. Musil, H. Neugebauer, J. Pisarek, C. Plett, P. Pracht, F. Pultar,
   J. Seibert, P. Shushkov, S. Spicher, M. Stahn, M. Steiner, T. Strunk,
   J. Stückrath, T. Rose, and J. Unsleber
   
 * started run on 2025/04/09 at 02:50:21.760     
   ID    Z sym.   atoms
    1    6 C      1, 2, 4-6
    2    8 O      3
    3    1 H      7-14

           -------------------------------------------------
          |                Calculation Setup                |
           -------------------------------------------------

          program call               : /usr/bin/xtb xtb_rrho.coord --gfn2 --ohess vtight --chrg 0 --enso --norestart -I rrho-xcontrol-inp --parallel 1
          coordinate file            : xtb_rrho.coord
          omp threads                :                     1


           -------------------------------------------------
          |                 G F N 2 - x T B                 |
           -------------------------------------------------

        Reference                      10.1021/acs.jctc.8b01176
      * Hamiltonian:
        H0-scaling (s, p, d)           1.850000    2.230000    2.230000
        zeta-weighting                 0.500000
      * Dispersion:
        s8                             2.700000
        a1                             0.520000
        a2                             5.000000
        s9                             5.000000
      * Repulsion:
        kExp                           1.500000    1.000000
        rExp                           1.000000
      * Coulomb:
        alpha                          2.000000
        third order                    shell-resolved
        anisotropic                    true
        a3                             3.000000
        a5                             4.000000
        cn-shift                       1.200000
        cn-exp                         4.000000
        max-rad                        5.000000


          ...................................................
          :                      SETUP                      :
          :.................................................:
          :  # basis functions                  32          :
          :  # atomic orbitals                  32          :
          :  # shells                           20          :
          :  # electrons                        34          :
          :  max. iterations                   250          :
          :  Hamiltonian                  GFN2-xTB          :
          :  restarted?                      false          :
          :  GBSA solvation                  false          :
          :  PC potential                    false          :
          :  electronic temp.          300.0000000     K    :
          :  accuracy                    1.0000000          :
          :  -> integral cutoff          0.2500000E+02      :
          :  -> integral neglect         0.1000000E-07      :
          :  -> SCF convergence          0.1000000E-05 Eh   :
          :  -> wf. convergence          0.1000000E-03 e    :
          :  Broyden damping             0.4000000          :
          :  net charge                          0          :
          :  unpaired electrons                  0          :
          ...................................................

 iter      E             dE          RMSdq      gap      omega  full diag
   1    -19.0122513 -0.190123E+02  0.404E+00    4.62       0.0  T
   2    -19.0562328 -0.439815E-01  0.202E+00    3.63       1.0  T
   3    -19.0605730 -0.434018E-02  0.134E+00    4.12       1.0  T
   4    -19.0643605 -0.378750E-02  0.177E-01    3.90       1.0  T
   5    -19.0645282 -0.167653E-03  0.835E-02    3.93       1.0  T
   6    -19.0645481 -0.198816E-04  0.390E-02    3.92       1.0  T
   7    -19.0645501 -0.203965E-05  0.135E-02    3.92       2.0  T
   8    -19.0645505 -0.390712E-06  0.253E-03    3.92      10.6  T
   9    -19.0645505  0.779691E-08  0.128E-03    3.92      20.8  T
  10    -19.0645505 -0.129769E-07  0.179E-04    3.92     149.6  T
  11    -19.0645505 -0.745715E-11  0.503E-05    3.92     531.0  T

   *** convergence criteria satisfied after 11 iterations ***

         #    Occupation            Energy/Eh            Energy/eV
      -------------------------------------------------------------
         1        2.0000           -0.7000733             -19.0500
       ...           ...                  ...                  ...
        11        2.0000           -0.4847556             -13.1909
        12        2.0000           -0.4726625             -12.8618
        13        2.0000           -0.4693451             -12.7715
        14        2.0000           -0.4555503             -12.3962
        15        2.0000           -0.4408712             -11.9967
        16        2.0000           -0.4307715             -11.7219
        17        2.0000           -0.3926564             -10.6847 (HOMO)
        18                         -0.2486351              -6.7657 (LUMO)
        19                         -0.0556644              -1.5147
        20                          0.0590639               1.6072
        21                          0.1024453               2.7877
        22                          0.1156870               3.1480
       ...                                ...                  ...
        32                          0.5992525              16.3065
      -------------------------------------------------------------
                  HL-Gap            0.1440212 Eh            3.9190 eV
             Fermi-level           -0.3206457 Eh           -8.7252 eV

 SCC (total)                   0 d,  0 h,  0 min,  0.004 sec
 SCC setup                      ...        0 min,  0.000 sec (  1.417%)
 Dispersion                     ...        0 min,  0.000 sec (  1.185%)
 classical contributions        ...        0 min,  0.000 sec (  0.324%)
 integral evaluation            ...        0 min,  0.001 sec ( 14.027%)
 iterations                     ...        0 min,  0.002 sec ( 47.734%)
 molecular gradient             ...        0 min,  0.002 sec ( 33.775%)
 printout                       ...        0 min,  0.000 sec (  1.375%)

         :::::::::::::::::::::::::::::::::::::::::::::::::::::
         ::                     SUMMARY                     ::
         :::::::::::::::::::::::::::::::::::::::::::::::::::::
         :: total energy             -18.814190597822 Eh    ::
         :: gradient norm              0.020984719936 Eh/a0 ::
         :: HOMO-LUMO gap              3.919017577185 eV    ::
         ::.................................................::
         :: SCC energy               -19.064538623470 Eh    ::
         :: -> isotropic ES            0.029022803610 Eh    ::
         :: -> anisotropic ES          0.002856378529 Eh    ::
         :: -> anisotropic XC          0.009030667999 Eh    ::
         :: -> dispersion             -0.007399259166 Eh    ::
         :: repulsion energy           0.250348025647 Eh    ::
         :: add. restraining           0.000000000000 Eh    ::
         :: total charge               0.000000000000 e     ::
         :::::::::::::::::::::::::::::::::::::::::::::::::::::

      ----------------------------------------------------------- 
     |                   =====================                   |
     |                        A N C O P T                        |
     |                   =====================                   |
     |               Approximate Normal Coordinate               |
     |                Rational Function Optimizer                |
      ----------------------------------------------------------- 

          ...................................................
          :                      SETUP                      :
          :.................................................:
          :   optimization level         verytight          :
          :   max. optcycles                   280          :
          :   ANC micro-cycles                  20          :
          :   degrees of freedom                36          :
          :.................................................:
          :   RF solver                   davidson          :
          :   write xtbopt.log                true          :
          :   linear?                        false          :
          :   energy convergence         0.1000000E-06 Eh   :
          :   grad. convergence          0.2000000E-03 Eh/α :
          :   maximum RF displ.          1.0000000          :
          :   Hlow (freq-cutoff)         0.1000000E-01      :
          :   Hmax (freq-cutoff)         5.0000000          :
          :   S6 in model hess.         20.0000000          :
          ...................................................

generating ANC from exact Hessian ...
Using Lindh-Hessian (1995)
 Shifting diagonal of input Hessian by    6.1233959151513421E-003
 Lowest  eigenvalues of input Hessian
    0.000000    0.000000    0.000000    0.000000    0.000000    0.000000
    0.010000    0.012320    0.018888    0.023674    0.028608    0.044386
    0.047190    0.049908    0.057348    0.057831    0.067175    0.090788
 Highest eigenvalues
    1.153927    1.247144    1.354111    1.421710    1.786347    2.114524


........................................................................
.............................. CYCLE    1 ..............................
........................................................................

 iter      E             dE          RMSdq      gap      omega  full diag
   1    -19.0645505 -0.190646E+02  0.152E-05    3.92       0.0  T
   2    -19.0645505 -0.682121E-12  0.685E-06    3.92    3899.7  T
   3    -19.0645505 -0.238032E-12  0.456E-06    3.92    5863.6  T
     SCC iter.                  ...        0 min,  0.001 sec
     gradient                   ...        0 min,  0.002 sec
 * total energy  :   -18.8141906 Eh     change       -0.2227551E-10 Eh
   gradient norm :     0.0209834 Eh/α   predicted     0.0000000E+00 (-100.00%)
   displ. norm   :     0.1074083 α      lambda       -0.9620363E-03
   maximum displ.:     0.0799635 α      in ANC's #3, #5, #23, ...

........................................................................
.............................. CYCLE    2 ..............................
........................................................................

 iter      E             dE          RMSdq      gap      omega  full diag
   1    -19.0736099 -0.190736E+02  0.950E-02    3.96       0.0  T
   2    -19.0736260 -0.161196E-04  0.560E-02    3.96       1.0  T
   3    -19.0736254  0.606743E-06  0.235E-02    3.96       1.1  T
   4    -19.0736276 -0.220867E-05  0.558E-03    3.96       4.8  T
   5    -19.0736278 -0.172673E-06  0.142E-03    3.96      18.8  T
   6    -19.0736278 -0.274185E-08  0.420E-04    3.96      63.6  T
   7    -19.0736278 -0.293436E-09  0.158E-04    3.96     169.6  T
     SCC iter.                  ...        0 min,  0.001 sec
     gradient                   ...        0 min,  0.001 sec
 * total energy  :   -18.8148107 Eh     change       -0.6201226E-03 Eh
   gradient norm :     0.0071976 Eh/α   predicted    -0.4865694E-03 ( -21.54%)
   displ. norm   :     0.0779860 α      lambda       -0.1805486E-03
   maximum displ.:     0.0689427 α      in ANC's #3, #5, #12, ...

........................................................................
.............................. CYCLE    3 ..............................
........................................................................

 iter      E             dE          RMSdq      gap      omega  full diag
   1    -19.0763882 -0.190764E+02  0.501E-02    3.97       0.0  T
   2    -19.0763922 -0.401403E-05  0.283E-02    3.97       1.0  T
   3    -19.0763922 -0.318658E-07  0.100E-02    3.97       2.7  T
   4    -19.0763924 -0.129809E-06  0.228E-03    3.97      11.7  T
   5    -19.0763924 -0.376859E-07  0.795E-04    3.97      33.6  T
   6    -19.0763924 -0.165842E-08  0.292E-04    3.97      91.4  T
     SCC iter.                  ...        0 min,  0.001 sec
     gradient                   ...        0 min,  0.001 sec
 * total energy  :   -18.8149159 Eh     change       -0.1051712E-03 Eh
   gradient norm :     0.0028398 Eh/α   predicted    -0.9082369E-04 ( -13.64%)
   displ. norm   :     0.0306832 α      lambda       -0.1985576E-04
   maximum displ.:     0.0295773 α      in ANC's #3, #12, #6, ...

........................................................................
.............................. CYCLE    4 ..............................
........................................................................

 iter      E             dE          RMSdq      gap      omega  full diag
   1    -19.0761911 -0.190762E+02  0.167E-02    3.96       0.0  T
   2    -19.0761915 -0.322801E-06  0.956E-03    3.96       2.8  T
   3    -19.0761915 -0.674554E-10  0.365E-03    3.96       7.3  T
   4    -19.0761915 -0.288784E-07  0.940E-04    3.96      28.4  T
   5    -19.0761915 -0.560064E-08  0.286E-04    3.96      93.4  T
     SCC iter.                  ...        0 min,  0.001 sec
     gradient                   ...        0 min,  0.001 sec
 * total energy  :   -18.8149286 Eh     change       -0.1273600E-04 Eh
   gradient norm :     0.0010182 Eh/α   predicted    -0.9938635E-05 ( -21.96%)
   displ. norm   :     0.0213264 α      lambda       -0.3906897E-05
   maximum displ.:     0.0189213 α      in ANC's #3, #5, #10, ...

........................................................................
.............................. CYCLE    5 ..............................
........................................................................

 iter      E             dE          RMSdq      gap      omega  full diag
   1    -19.0757026 -0.190757E+02  0.115E-02    3.96       0.0  T
   2    -19.0757027 -0.111810E-06  0.701E-03    3.96       3.8  T
   3    -19.0757027  0.150753E-07  0.283E-03    3.96       9.5  T
   4    -19.0757027 -0.409117E-07  0.560E-04    3.96      47.7  T
   5    -19.0757027 -0.160216E-08  0.156E-04    3.96     171.5  T
     SCC iter.                  ...        0 min,  0.001 sec
     gradient                   ...        0 min,  0.001 sec
 * total energy  :   -18.8149306 Eh     change       -0.2013800E-05 Eh
   gradient norm :     0.0005667 Eh/α   predicted    -0.1955518E-05 (  -2.89%)
   displ. norm   :     0.0050361 α      lambda       -0.4754718E-06
   maximum displ.:     0.0045699 α      in ANC's #3, #11, #12, ...

........................................................................
.............................. CYCLE    6 ..............................
........................................................................

 iter      E             dE          RMSdq      gap      omega  full diag
   1    -19.0758190 -0.190758E+02  0.318E-03    3.96       0.0  T
   2    -19.0758190 -0.117850E-07  0.190E-03    3.96      14.1  T
   3    -19.0758190  0.217181E-09  0.795E-04    3.96      33.6  T
   4    -19.0758190 -0.211281E-08  0.193E-04    3.96     138.1  T
     SCC iter.                  ...        0 min,  0.001 sec
     gradient                   ...        0 min,  0.001 sec
 * total energy  :   -18.8149310 Eh     change       -0.3619570E-06 Eh
   gradient norm :     0.0000983 Eh/α   predicted    -0.2369409E-06 ( -34.54%)
   displ. norm   :     0.0011371 α      lambda       -0.3039424E-07
   maximum displ.:     0.0006482 α      in ANC's #3, #2, #4, ...

........................................................................
.............................. CYCLE    7 ..............................
........................................................................

 iter      E             dE          RMSdq      gap      omega  full diag
   1    -19.0758480 -0.190758E+02  0.903E-04    3.96       0.0  T
   2    -19.0758480 -0.380176E-09  0.556E-04    3.96      48.0  T
   3    -19.0758480  0.228471E-09  0.203E-04    3.96     131.4  T
     SCC iter.                  ...        0 min,  0.001 sec
     gradient                   ...        0 min,  0.001 sec
 * total energy  :   -18.8149310 Eh     change       -0.1176641E-07 Eh
   gradient norm :     0.0000652 Eh/α   predicted    -0.1415354E-07 (  20.29%)
   displ. norm   :     0.0009192 α      lambda       -0.1493348E-07
   maximum displ.:     0.0006421 α      in ANC's #3, #1, #2, ...

   *** GEOMETRY OPTIMIZATION CONVERGED AFTER 7 ITERATIONS ***

------------------------------------------------------------------------
 total energy gain   :        -0.0007404 Eh       -0.4646 kcal/mol
 total RMSD          :         0.0582583 a0        0.0308 Å
 total power (kW/mol):        -0.2777093 (step)  -83.1461 (real)
------------------------------------------------------------------------

 ANCopt (total)                0 d,  0 h,  0 min,  0.023 sec
 optimizer setup                ...        0 min,  0.000 sec (  0.174%)
 model hessian                  ...        0 min,  0.001 sec (  4.179%)
 ANC generation                 ...        0 min,  0.000 sec (  0.599%)
 coordinate transformation      ...        0 min,  0.000 sec (  0.072%)
 single point calculation       ...        0 min,  0.021 sec ( 90.412%)
 optimization log               ...        0 min,  0.000 sec (  0.951%)
 hessian update                 ...        0 min,  0.000 sec (  0.094%)
 rational function              ...        0 min,  0.000 sec (  1.357%)

================
 final structure:
================
$coord
        3.84351726299617        1.43856858888432        0.00014885122054      C
        1.47586949926549       -0.16058340165116       -0.00046819042136      C
        1.56941151186124       -2.44468129560258        0.00049024268202      O
       -0.95566727781354        1.23166095878767       -0.00095034513385      C
       -3.15123554499517        0.04527008945907       -1.39982661855876      C
       -3.15065481691302        0.04758411901514        1.40090175901133      C
        4.96370197956288        0.96523030899465        1.65889430172112      H
        4.96966526285334        0.95804354959849       -1.65242667804472      H
        3.43618452462727        3.44807826890556       -0.00475282740442      H
       -0.82518502799471        3.27084295682454       -0.00256983119832      H
       -4.41612072158813        1.29273652964745       -2.40121889857867      H
       -2.76581212545035       -1.71931775859984       -2.34750569144821      H
       -4.41513487487839        1.29672303633916        2.40073379001526      H
       -2.76495268096805       -1.71545595286447        2.35133695638471      H
$end

 Bond Distances (Angstroems)
 ---------------------------
C1-C2=1.5119         C1-H7=1.0884         C1-H8=1.0884         C1-H9=1.0850         C2-C1=1.5119         C2-O3=1.2097         
C2-C4=1.4827         O3-C2=1.2097         C4-C2=1.4827         C4-C5=1.5139         C4-C6=1.5140         C4-H10=1.0813        
C5-C4=1.5139         C5-C6=1.4821         C5-H11=1.0792        C5-H12=1.0794        C6-C4=1.5140         C6-C5=1.4821         
C6-H13=1.0792        C6-H14=1.0794        H7-C1=1.0884         H8-C1=1.0884         H9-C1=1.0850         H10-C4=1.0813        
H11-C5=1.0792        H12-C5=1.0794        H13-C6=1.0792        H14-C6=1.0794        
 C  H  Rav=1.0825 sigma=0.0039  Rmin=1.0792  Rmax=1.0884     8
 C  C  Rav=1.5009 sigma=0.0151  Rmin=1.4821  Rmax=1.5140     5
 O  C  Rav=1.2097 sigma=0.0000  Rmin=1.2097  Rmax=1.2097     1

 selected bond angles (degree)
 --------------------
H7-C1-C2=108.83                H8-C1-C2=108.83                H8-C1-H7=107.22                H9-C1-C2=112.58                
H9-C1-H7=109.61                H9-C1-H8=109.62                O3-C2-C1=121.69                C4-C2-C1=116.17                
C4-C2-O3=122.14                C5-C4-C2=117.39                C6-C4-C2=117.39                C6-C4-C5= 58.61                
H10-C4-C2=116.13               H10-C4-C5=117.55               H10-C4-C6=117.54               C6-C5-C4= 60.69                
H11-C5-C4=117.54               H11-C5-C6=119.38               H12-C5-C4=116.16               H12-C5-C6=117.73               
H12-C5-H11=114.72              C5-C6-C4= 60.69                H13-C6-C4=117.54               H13-C6-C5=119.38               
H14-C6-C4=116.17               H14-C6-C5=117.73               H14-C6-H13=114.72              

 selected dihedral angles (degree)
 ---------------------------------
O3-C2-C1-H7=301.61            O3-C2-C1-H8= 58.14            O3-C2-C1-H9=179.88            C4-C2-C1-H7=121.58            
C4-C2-C1-H8=238.11            C4-C2-C1-H9=359.85            C5-C4-C2-C1=146.60            C5-C4-C2-O3=326.57            
C6-C4-C2-C1=213.51            C6-C4-C2-O3= 33.48            H10-C4-C2-C1=  0.05           H10-C4-C2-O3=180.02           
C6-C5-C4-C2=106.91            C6-C5-C4-H10=252.98           H11-C5-C4-C2=216.90           H11-C5-C4-C6=109.99           
H11-C5-C4-H10=  2.97          H12-C5-C4-C2=358.32           H12-C5-C4-C6=251.41           H12-C5-C4-H10=144.39          
C5-C6-C4-C2=253.09            C5-C6-C4-H10=107.03           H13-C6-C4-C2=143.11           H13-C6-C4-C5=250.01           
H13-C6-C4-H10=357.04          H14-C6-C4-C2=  1.68           H14-C6-C4-C5=108.59           H14-C6-C4-H10=215.61          
C4-C6-C5-H11=252.99           C4-C6-C5-H12=106.03           H13-C6-C5-C4=107.01           H13-C6-C5-H11=  0.00          
H13-C6-C5-H12=213.04          H14-C6-C5-C4=253.96           H14-C6-C5-H11=146.96          H14-C6-C5-H12=  0.00          
           -------------------------------------------------
          |                Final Singlepoint                |
           -------------------------------------------------

          ...................................................
          :                      SETUP                      :
          :.................................................:
          :  # basis functions                  32          :
          :  # atomic orbitals                  32          :
          :  # shells                           20          :
          :  # electrons                        34          :
          :  max. iterations                   250          :
          :  Hamiltonian                  GFN2-xTB          :
          :  restarted?                      false          :
          :  GBSA solvation                  false          :
          :  PC potential                    false          :
          :  electronic temp.          300.0000000     K    :
          :  accuracy                    1.0000000          :
          :  -> integral cutoff          0.2500000E+02      :
          :  -> integral neglect         0.1000000E-07      :
          :  -> SCF convergence          0.1000000E-05 Eh   :
          :  -> wf. convergence          0.1000000E-03 e    :
          :  Broyden damping             0.4000000          :
          :  net charge                          0          :
          :  unpaired electrons                  0          :
          ...................................................

 iter      E             dE          RMSdq      gap      omega  full diag
   1    -19.0758480 -0.190758E+02  0.214E-05    3.96       0.0  T
   2    -19.0758480 -0.112621E-11  0.126E-05    3.96    2124.4  T
   3    -19.0758480 -0.166978E-12  0.709E-06    3.96    3768.0  T

   *** convergence criteria satisfied after 3 iterations ***

         #    Occupation            Energy/Eh            Energy/eV
      -------------------------------------------------------------
         1        2.0000           -0.7028844             -19.1265
       ...           ...                  ...                  ...
        11        2.0000           -0.4841943             -13.1756
        12        2.0000           -0.4740236             -12.8988
        13        2.0000           -0.4703893             -12.7999
        14        2.0000           -0.4551625             -12.3856
        15        2.0000           -0.4400530             -11.9745
        16        2.0000           -0.4331104             -11.7855
        17        2.0000           -0.3921754             -10.6716 (HOMO)
        18                         -0.2465721              -6.7096 (LUMO)
        19                         -0.0510256              -1.3885
        20                          0.0666774               1.8144
        21                          0.1028709               2.7993
        22                          0.1226286               3.3369
       ...                                ...                  ...
        32                          0.6318222              17.1928
      -------------------------------------------------------------
                  HL-Gap            0.1456033 Eh            3.9621 eV
             Fermi-level           -0.3193737 Eh           -8.6906 eV

 SCC (total)                   0 d,  0 h,  0 min,  0.003 sec
 SCC setup                      ...        0 min,  0.000 sec (  1.346%)
 Dispersion                     ...        0 min,  0.000 sec (  0.736%)
 classical contributions        ...        0 min,  0.000 sec (  0.325%)
 integral evaluation            ...        0 min,  0.001 sec ( 21.443%)
 iterations                     ...        0 min,  0.001 sec ( 24.054%)
 molecular gradient             ...        0 min,  0.001 sec ( 50.883%)
 printout                       ...        0 min,  0.000 sec (  0.970%)

         :::::::::::::::::::::::::::::::::::::::::::::::::::::
         ::                     SUMMARY                     ::
         :::::::::::::::::::::::::::::::::::::::::::::::::::::
         :: total energy             -18.814931015434 Eh    ::
         :: gradient norm              0.000064706345 Eh/a0 ::
         :: HOMO-LUMO gap              3.962067073829 eV    ::
         ::.................................................::
         :: SCC energy               -19.075836152215 Eh    ::
         :: -> isotropic ES            0.028470887369 Eh    ::
         :: -> anisotropic ES          0.002900029022 Eh    ::
         :: -> anisotropic XC          0.008534843042 Eh    ::
         :: -> dispersion             -0.007422835137 Eh    ::
         :: repulsion energy           0.260905136781 Eh    ::
         :: add. restraining           0.000000000000 Eh    ::
         :: total charge               0.000000000000 e     ::
         :::::::::::::::::::::::::::::::::::::::::::::::::::::

           ------------------------------------------------- 
          |                Numerical Hessian                |
           ------------------------------------------------- 
step length          :   0.00500
SCC accuracy         :   0.30000
Hessian scale factor :   1.00000
frozen atoms in %    :   0.00000    0
RMS gradient         :   0.00006
estimated CPU  time      0.00 min
estimated wall time      0.00 min

writing file <hessian>, containing the non-mass-weighted Hessian matrix in atomic units (Eₕ/Bohr²).

 projected vibrational frequencies (cm⁻¹)
eigval :       -0.00    -0.00    -0.00    -0.00     0.00     0.00
eigval :     -126.86    57.31   226.87   236.02   391.16   578.39
eigval :      589.60   773.83   815.20   855.24   921.28   989.70
eigval :     1000.95  1006.24  1067.93  1072.64  1076.25  1084.62
eigval :     1155.69  1159.41  1255.72  1360.29  1370.91  1416.32
eigval :     1452.46  1464.71  1470.68  1737.29  3024.48  3035.22
eigval :     3058.17  3067.53  3088.73  3090.26  3100.17  3118.36
           -------------------------------------------------
          |                Property Printout                |
           -------------------------------------------------

    * Orbital Energies and Occupations

         #    Occupation            Energy/Eh            Energy/eV
      -------------------------------------------------------------
         1        2.0000           -0.7028843             -19.1265
       ...           ...                  ...                  ...
         5        2.0000           -0.5784999             -15.7418
         6        2.0000           -0.5639996             -15.3472
         7        2.0000           -0.5474961             -14.8981
         8        2.0000           -0.5330514             -14.5051
         9        2.0000           -0.5245018             -14.2724
        10        2.0000           -0.5071543             -13.8004
        11        2.0000           -0.4841943             -13.1756
        12        2.0000           -0.4740236             -12.8988
        13        2.0000           -0.4703893             -12.7999
        14        2.0000           -0.4551625             -12.3856
        15        2.0000           -0.4400530             -11.9745
        16        2.0000           -0.4331104             -11.7855
        17        2.0000           -0.3921754             -10.6716 (HOMO)
        18                         -0.2465721              -6.7096 (LUMO)
        19                         -0.0510256              -1.3885
        20                          0.0666775               1.8144
        21                          0.1028709               2.7993
        22                          0.1226286               3.3369
        23                          0.1605837               4.3697
        24                          0.1687918               4.5931
        25                          0.1784010               4.8545
        26                          0.2090854               5.6895
        27                          0.2110708               5.7435
        28                          0.2406080               6.5473
       ...                                ...                  ...
        32                          0.6318222              17.1928
      -------------------------------------------------------------
                  HL-Gap            0.1456033 Eh            3.9621 eV
             Fermi-level           -0.3193737 Eh           -8.6906 eV

     #   Z          covCN         q      C6AA      α(0)
     1   6          3.753    -0.139    23.229     6.873
     2   6          2.812     0.237    23.056     7.867
     3   8          0.857    -0.377    21.220     6.176
     4   6          3.858    -0.046    21.363     6.573
     5   6          3.807    -0.052    21.495     6.600
     6   6          3.807    -0.052    21.495     6.600
     7   1          0.925     0.072     2.062     2.246
     8   1          0.925     0.072     2.062     2.246
     9   1          0.925     0.045     2.384     2.415
    10   1          0.925     0.036     2.508     2.477
    11   1          0.926     0.042     2.417     2.431
    12   1          0.926     0.059     2.206     2.323
    13   1          0.926     0.042     2.417     2.431
    14   1          0.926     0.059     2.206     2.323

 Mol. C6AA /au·bohr⁶  :       1608.873777
 Mol. C8AA /au·bohr⁸  :      35633.512590
 Mol. α(0) /au        :         59.579654


Wiberg/Mayer (AO) data.
largest (>0.10) Wiberg bond orders for each atom

 ---------------------------------------------------------------------------
     #   Z sym  total        # sym  WBO       # sym  WBO       # sym  WBO
 ---------------------------------------------------------------------------
     1   6      3.995 --     2      0.998     9      0.987     8      0.962
                             7      0.962
     2   6      3.929 --     3      1.823     4      1.038     1      0.998
     3   8      2.057 --     2      1.823
     4   6      3.943 --     2      1.038    10      0.973     5      0.921
                             6      0.921
     5   6      3.947 --     6      1.014    11      0.980    12      0.977
                             4      0.921
     6   6      3.947 --     5      1.014    13      0.980    14      0.977
                             4      0.921
     7   1      0.995 --     1      0.962
     8   1      0.995 --     1      0.962
     9   1      0.998 --     1      0.987
    10   1      0.999 --     4      0.973
    11   1      0.998 --     5      0.980
    12   1      0.996 --     5      0.977
    13   1      0.998 --     6      0.980
    14   1      0.996 --     6      0.977
 ---------------------------------------------------------------------------

Topologies differ in total number of bonds
Writing topology from bond orders to xtbtopo.mol

molecular dipole:
                 x           y           z       tot (Debye)
 q only:       -0.266       0.937       0.000
   full:       -0.241       1.174       0.000       3.047
molecular quadrupole (traceless):
                xx          xy          yy          xz          yz          zz
 q only:        3.009       2.845      -3.303       0.001       0.002       0.295
  q+dip:        2.782       1.914      -2.856       0.002       0.001       0.074
   full:        2.685       2.420      -3.641       0.001       0.002       0.956

           -------------------------------------------------
          |                Geometry Summary                 |
           -------------------------------------------------

      molecular mass/u    :       84.1166104
   center of mass at/Å    :       -0.0000081       0.0000207       0.0000504
  moments of inertia/u·Å² :        0.6955626E+02   0.1917878E+03   0.2191265E+03
rotational constants/cm⁻¹ :        0.2423597E+00   0.8789731E-01   0.7693104E-01

 * 13 selected distances

     #   Z          #   Z                                           value/Å
     2   6          3   8                                         1.2097060
     2   6          4   6                                         1.4827086
     4   6          5   6                                         1.5139370
     4   6          6   6                                         1.5139647 (max)
     5   6          6   6                                         1.4820823
     1   6          7   1                                         1.0883955
     1   6          8   1                                         1.0883723
     1   6          9   1                                         1.0850164
     4   6         10   1                                         1.0812959
     5   6         11   1                                         1.0791705 (min)
     5   6         12   1                                         1.0793682
     6   6         13   1                                         1.0791742
     6   6         14   1                                         1.0793664

 * 3 distinct bonds (by element types)

   Z      Z             #   av. dist./Å        max./Å        min./Å
   1 H    6 C           8     1.0825199     1.0883955     1.0791705
   6 C    6 C           4     1.4981732     1.5139647     1.4820823
   6 C    8 O           1     1.2097060     1.2097060     1.2097060

           -------------------------------------------------
          |               Frequency Printout                |
           -------------------------------------------------
 projected vibrational frequencies (cm⁻¹)
eigval :       -0.00    -0.00    -0.00    -0.00     0.00     0.00
eigval :     -126.86    57.31   226.87   236.02   391.16   578.39
eigval :      589.60   773.83   815.20   855.24   921.28   989.70
eigval :     1000.95  1006.24  1067.93  1072.64  1076.25  1084.62
Molecule has the following symmetry elements: (sigma) 
It seems to be the Cs point group
eigval :     1155.69  1159.41  1255.72  1360.29  1370.91  1416.32
eigval :     1452.46  1464.71  1470.68  1737.29  3024.48  3035.22
eigval :     3058.17  3067.53  3088.73  3090.26  3100.17  3118.36
 reduced masses (amu)
    1:      3.98    2:      4.32    3:      3.72    4:      5.16    5:      5.28    6:      5.07
    7:      1.04    8:      2.88    9:      3.77   10:      2.75   11:      3.21   12:      3.79
   13:      2.63   14:      1.57   15:      1.24   16:      1.10   17:      4.12   18:      3.66
   19:      1.92   20:      1.68   21:      1.30   22:      1.35   23:      1.74   24:      1.10
   25:      1.39   26:      2.05   27:      1.64   28:      1.99   29:      1.20   30:      1.10
   31:      1.06   32:      1.08   33:      1.71   34:     11.96   35:      1.09   36:      1.05
   37:      1.08   38:      1.08   39:      1.05   40:      1.05   41:      1.10   42:      1.11
 IR intensities (km·mol⁻¹)
    1:      1.95    2:      0.51    3:      2.88    4:      0.13    5:      1.55    6:      0.33
    7:      1.75    8:      3.14    9:      4.23   10:      0.93   11:      3.12   12:      8.55
   13:      3.14   14:      0.61   15:      1.78   16:      0.00   17:      3.40   18:      3.68
   19:     18.74   20:     20.61   21:     29.00   22:      0.57   23:     48.59   24:      1.21
   25:      0.00   26:    154.43   27:     16.48   28:     78.90   29:     26.57   30:      0.11
   31:      4.30   32:      6.20   33:      9.85   34:    266.60   35:      6.06   36:      4.08
   37:      4.61   38:     38.87   39:     13.04   40:     24.88   41:      0.46   42:     39.58
 Raman intensities (Ä⁴*amu⁻¹)
    1:      0.00    2:      0.00    3:      0.00    4:      0.00    5:      0.00    6:      0.00
    7:      0.00    8:      0.00    9:      0.00   10:      0.00   11:      0.00   12:      0.00
   13:      0.00   14:      0.00   15:      0.00   16:      0.00   17:      0.00   18:      0.00
   19:      0.00   20:      0.00   21:      0.00   22:      0.00   23:      0.00   24:      0.00
   25:      0.00   26:      0.00   27:      0.00   28:      0.00   29:      0.00   30:      0.00
   31:      0.00   32:      0.00   33:      0.00   34:      0.00   35:      0.00   36:      0.00
   37:      0.00   38:      0.00   39:      0.00   40:      0.00   41:      0.00   42:      0.00
 output can be read by thermo (or use thermo option).
 writing <g98.out> molden fake output.
 recommended (thermochemical) frequency scaling factor: 1.0
           -------------------------------------------------
          |             Thermodynamic Functions             |
           -------------------------------------------------

cs  symmetry found (for desy threshold:  0.10E+00) used in thermo

          ...................................................
          :                      SETUP                      :
          :.................................................:
          :  # frequencies                          35      :
          :  # imaginary freq.                       1      :
          :  linear?                             false      :
          :  only rotor calc.                    false      :
          :  symmetry                               cs      :
          :  rotational number                       1      :
          :  scaling factor                  1.0000000      :
          :  rotor cutoff                    0.0000000 cm⁻¹ :
          :  imag. cutoff                 -100.0000000 cm⁻¹ :
          :.................................................:

    mode    ω/cm⁻¹     T·S(HO)/kcal·mol⁻¹    T·S(FR)/kcal·mol⁻¹   T·S(vib)
   ------------------------------------------------------------------------
       1     57.31    -1.35594 (100.00%)    -1.01560 (  0.00%)    -1.35594
       2    226.87    -0.56756 (100.00%)    -0.60840 (  0.00%)    -0.56756
       3    236.02    -0.54642 (100.00%)    -0.59668 (  0.00%)    -0.54642
   ------------------------------------------------------------------------

   temp. (K)  partition function   enthalpy   heat capacity  entropy
                                   cal/mol     cal/K/mol   cal/K/mol   J/K/mol
 298.15  VIB   14.0                 1941.048     15.147     11.749
         ROT  0.131E+06              888.727      2.981     26.390
         INT  0.182E+07             2829.776     18.128     38.139
         TR   0.236E+26             1481.212      4.968     39.202
         TOT                        4310.9881    23.0959    77.3416   323.5973

       T/K    H(0)-H(T)+PV         H(T)/Eh          T*S/Eh         G(T)/Eh
   ------------------------------------------------------------------------
    298.15    0.687000E-02    0.123443E+00    0.367475E-01    0.866955E-01
   ------------------------------------------------------------------------

         :::::::::::::::::::::::::::::::::::::::::::::::::::::
         ::                  THERMODYNAMIC                  ::
         :::::::::::::::::::::::::::::::::::::::::::::::::::::
         :: total free energy         -18.728235556162 Eh   ::
         ::.................................................::
         :: total energy              -18.814931015435 Eh   ::
         :: zero point energy           0.116572952472 Eh   ::
         :: G(RRHO) w/o ZPVE           -0.029877493200 Eh   ::
         :: G(RRHO) contrib.            0.086695459272 Eh   ::
         :::::::::::::::::::::::::::::::::::::::::::::::::::::
imag cut-off (cm-1) :    5.00
 found            1  significant imaginary frequency
 writing imag mode distorted coords to xtbhess.coord
 for further optimization.

optimized geometry written to: xtbopt.coord


           -------------------------------------------------
          | TOTAL ENERGY              -18.814931015435 Eh   |
          | TOTAL ENTHALPY            -18.691488066192 Eh   |
          | TOTAL FREE ENERGY         -18.728235556162 Eh   |
          | GRADIENT NORM               0.000064741790 Eh/α |
          | HOMO-LUMO GAP               3.962068465857 eV   |
           -------------------------------------------------

------------------------------------------------------------------------
 * finished run on 2025/04/09 at 02:50:22.067     
------------------------------------------------------------------------
 total:
 * wall-time:     0 d,  0 h,  0 min,  0.306 sec
 *  cpu-time:     0 d,  0 h,  0 min,  0.305 sec
 * ratio c/w:     0.995 speedup
 SCF:
 * wall-time:     0 d,  0 h,  0 min,  0.004 sec
 *  cpu-time:     0 d,  0 h,  0 min,  0.004 sec
 * ratio c/w:     0.996 speedup
 ANC optimizer:
 * wall-time:     0 d,  0 h,  0 min,  0.027 sec
 *  cpu-time:     0 d,  0 h,  0 min,  0.026 sec
 * ratio c/w:     0.993 speedup
 analytical hessian:
 * wall-time:     0 d,  0 h,  0 min,  0.271 sec
 *  cpu-time:     0 d,  0 h,  0 min,  0.269 sec
 * ratio c/w:     0.995 speedup

