14
 energy: -18.814190597844 gnorm: 0.020983434144 xtb: 6.7.1 (41059b4)
C            2.04832368017166        0.75823106887161        0.00022062530496
C            0.77184899680965       -0.05857728779924       -0.00033389121914
O            0.81469244218893       -1.27688561835081        0.00010013172559
C           -0.52177942945346        0.67195704108712       -0.00078091367289
C           -1.67972448878654        0.01456157988231       -0.74057633932588
C           -1.67931330707052        0.01606364028323        0.74115178381393
H            2.63759375555308        0.48471180576349        0.88063851664503
H            2.64028974550079        0.48184558858432       -0.87745960974808
H            1.87514263677824        1.83592573317457       -0.00167522051491
H           -0.48382916378154        1.75557579055233       -0.00179693819073
H           -2.35701463682173        0.67864836102389       -1.26539726636500
H           -1.43381790469750       -0.91818640401601       -1.23610488542253
H           -2.35626365211884        0.68124180186918        1.26503067310863
H           -1.43314862307386       -0.91566714254101        1.23845805562645
14
 energy: -18.814810720407 gnorm: 0.007197569920 xtb: 6.7.1 (41059b4)
C            2.03881546860122        0.75875268054100        0.00019788835488
C            0.77462522938394       -0.06871723428128       -0.00012944294547
O            0.81752409753067       -1.27996032867375        0.00012483324128
C           -0.51115415062861        0.66528713500093       -0.00070372102962
C           -1.67018998740610        0.01982616751752       -0.74054411550928
C           -1.66982325576539        0.02128441687656        0.74106852729590
H            2.62786314199126        0.49479357162200        0.87825858733151
H            2.63047305624037        0.49189434749491       -0.87520647717239
H            1.84642784985483        1.82818747815603       -0.00176672887132
H           -0.45821247049847        1.74565422056076       -0.00170358655461
H           -2.34662929427103        0.67631952321863       -1.26654773720099
H           -1.44569608332684       -0.91260059249790       -1.23694479340049
H           -2.34593169079321        0.67886555374214        1.26613671960395
H           -1.44509185971428       -0.91014098089258        1.23923476862206
14
 energy: -18.814915891560 gnorm: 0.002839769221 xtb: 6.7.1 (41059b4)
C            2.03343654053053        0.75974673156106        0.00018177497014
C            0.77729248627193       -0.07964251285655       -0.00022808627986
O            0.82277396991450       -1.28856142054253        0.00015726686750
C           -0.50644229931076        0.65788271351688       -0.00065548554410
C           -1.66645930839821        0.02320924717910       -0.74081454752621
C           -1.66609099787895        0.02463187269474        0.74136702496542
H            2.62459995895429        0.50438063613680        0.87733329222206
H            2.62735317799238        0.50135737420669       -0.87419722707859
H            1.82553623947066        1.82460996918441       -0.00190301688616
H           -0.44253451956323        1.73696800715461       -0.00164539948426
H           -2.33943940965741        0.67903625969574       -1.26974470805101
H           -1.45440760608091       -0.90902857615383       -1.24071294753187
H           -2.33878429503499        0.68150050985042        1.26937278720744
H           -1.45383388601146       -0.90664485324256        1.24296399391493
14
 energy: -18.814928627560 gnorm: 0.001018219061 xtb: 6.7.1 (41059b4)
C            2.03332453135582        0.76045210296238        0.00014719759214
C            0.77937125354278       -0.08360009423538       -0.00007919229855
O            0.82688966571648       -1.29228945534074        0.00019326008851
C           -0.50563757946582        0.65430961891688       -0.00059618723018
C           -1.66657576366876        0.02406277309855       -0.74080401958202
C           -1.66624939008847        0.02543173656421        0.74132202909888
H            2.62581462967218        0.50863924041154        0.87750051269727
H            2.62855011233612        0.50547769300189       -0.87441827330432
H            1.81931249167403        1.82404343320529       -0.00202570354911
H           -0.43770374994720        1.73326815497845       -0.00155092572869
H           -2.33775473598591        0.68168524897545       -1.27071122795086
H           -1.45985415985556       -0.90921020385490       -1.24179547426235
H           -2.33714939165079        0.68407757320809        1.27031258423788
H           -1.45933786243655       -0.90690186350673        1.24398014195682
14
 energy: -18.814930641360 gnorm: 0.000566683827 xtb: 6.7.1 (41059b4)
C            2.03402968581144        0.76127850011091        0.00011796173636
C            0.78123186541211       -0.08563639654655       -0.00023539866246
O            0.83081859332901       -1.29434533385446        0.00022906213138
C           -0.50578128486881        0.65137508967192       -0.00055328065624
C           -1.66765360260526        0.02408447138572       -0.74073258333570
C           -1.66732988299564        0.02539139974068        0.74129407031689
H            2.62715603078459        0.51130960327804        0.87785740759680
H            2.63012676583351        0.50785299453566       -0.87458605789895
H            1.81734009913332        1.82443971780688       -0.00225316222580
H           -0.43586515601694        1.73041827430770       -0.00146844628627
H           -2.33685321334670        0.68432636677187       -1.27106836166644
H           -1.46420463787023       -0.90990806856681       -1.24241459985218
H           -2.33629573442794        0.68658223291047        1.27074865448739
H           -1.46371947697411       -0.90772289316704        1.24453945608065
14
 energy: -18.814931003317 gnorm: 0.000098348096 xtb: 6.7.1 (41059b4)
C            2.03396959784367        0.76123799832705        0.00008583085142
C            0.78096792119682       -0.08492598141727        0.00000481247273
O            0.83036474016092       -1.29363148443797        0.00025457831203
C           -0.50579652895259        0.65187415526389       -0.00050814060249
C           -1.66757111934831        0.02394354278137       -0.74077288818843
C           -1.66729363422582        0.02520041402837        0.74127547918966
H            2.62685536327495        0.51060639086472        0.87774292228567
H            2.62973770049376        0.50703704733946       -0.87456849617328
H            1.81846701160107        1.82463916625481       -0.00234467668459
H           -0.43668572900718        1.73095654313264       -0.00138416189258
H           -2.33702278287301        0.68395575647523       -1.27076778086595
H           -1.46347007009370       -0.90986948315951       -1.24220944798416
H           -2.33649322926857        0.68616367134675        1.27040426417161
H           -1.46302918960365       -0.90774177841456        1.24426242687378
14
 energy: -18.814931015084 gnorm: 0.000065182159 xtb: 6.7.1 (41059b4)
C            2.03390174529558        0.76125771356061        0.00007876867373
C            0.78099650528032       -0.08497707660332       -0.00024775570135
O            0.83049680660814       -1.29366962955735        0.00025942525514
C           -0.50571734462606        0.65176691095121       -0.00050290098733
C           -1.66756203660364        0.02395589967735       -0.74075634575879
C           -1.66725472853684        0.02518043138378        0.74132528558481
H            2.62667796930619        0.51077788279427        0.87784905977014
H            2.62983360292567        0.50697481350157       -0.87442654071188
H            1.81835054289544        1.82464444131984       -0.00251508794978
H           -0.43666911159439        1.73085555319901       -0.00135989610602
H           -2.33691044646754        0.68408671119319       -1.27067031952102
H           -1.46360474643164       -0.90982377615443       -1.24224651438298
H           -2.33638875885530        0.68619627968556        1.27041361112445
H           -1.46314994799757       -0.90778019656633        1.24427393247632
