
                                 *****************
                                 * O   R   C   A *
                                 *****************

                                            #,                                       
                                            ###                                      
                                            ####                                     
                                            #####                                    
                                            ######                                   
                                           ########,                                 
                                     ,,################,,,,,                         
                               ,,#################################,,                 
                          ,,##########################################,,             
                       ,#########################################, ''#####,          
                    ,#############################################,,   '####,        
                  ,##################################################,,,,####,       
                ,###########''''           ''''###############################       
              ,#####''   ,,,,##########,,,,          '''####'''          '####       
            ,##' ,,,,###########################,,,                        '##       
           ' ,,###''''                  '''############,,,                           
         ,,##''                                '''############,,,,        ,,,,,,###''
      ,#''                                            '''#######################'''  
     '                                                          ''''####''''         
             ,#######,   #######,   ,#######,      ##                                
            ,#'     '#,  ##    ##  ,#'     '#,    #''#        ,####,   ,####,        
            ##       ##  ##   ,#'  ##            #'  '#       #'       #'  '#        
            ##       ##  #######   ##           ,######,      #####,   #    #        
            '#,     ,#'  ##    ##  '#,     ,#' ,#      #,     #,   #   #,  ,#        
             '#######'   ##     ##  '#######'  #'      '#     '####' # '####'        



                #########################################################
                #                        -***-                          #
                #          Department of theory and spectroscopy        #
                #                                                       #
                #                      Frank Neese                      #
                #                                                       #
                #     Directorship, Architecture, Infrastructure        #
                #                    SHARK, DRIVERS                     #
                #        Core code/Algorithms in most modules           #
                #                                                       #
                #        Max Planck Institute fuer Kohlenforschung      #
                #                Kaiser Wilhelm Platz 1                 #
                #                 D-45470 Muelheim/Ruhr                 #
                #                      Germany                          #
                #                                                       #
                #                  All rights reserved                  #
                #                        -***-                          #
                #########################################################


                         Program Version 6.0.1  -  RELEASE   -


 With contributions from (in alphabetic order):
[Max-Planck-Institut fuer Kohlenforschung]                               
  Daniel Aravena         : Magnetic Suceptibility                        
  Michael Atanasov       : Ab Initio Ligand Field Theory (pilot matlab implementation)
  Alexander A. Auer      : GIAO ZORA, VPT2 properties, NMR spectrum      
  Ute Becker             : All parallelization in ORCA, NUMFREQ, NUMCALC 
  Giovanni Bistoni       : ED, misc. LED, open-shell LED, HFLD           
  Martin Brehm           : Molecular dynamics                            
  Dmytro Bykov           : pre 5.0 version of the SCF Hessian            
  Marcos Casanova-Páez   : Triplet and SCS-CIS(D). UHF-(DLPNO)-IP/EA/STEOM-CCSD. UHF-CVS-IP/STEOM-CCSD   
  Vijay G. Chilkuri      : MRCI spin determinant printing, contributions to CSF-ICE 
  Pauline Colinet        : FMM embedding                                 
  Dipayan Datta          : RHF DLPNO-CCSD density                        
  Achintya Kumar Dutta   : EOM-CC, STEOM-CC                              
  Nicolas Foglia         : Exact transition moments, OPA infrastructure, MCD improvements    
  Dmitry Ganyushin       : Spin-Orbit,Spin-Spin,Magnetic field MRCI      
  Miquel Garcia-Rates    : C-PCM and meta-GGA Hessian, CCSD/C-PCM, Gaussian charge scheme 
  Tiago L. C. Gouveia    : GS-ROHF, GS-ROCIS                             
  Yang Guo               : DLPNO-NEVPT2, F12-NEVPT2, CIM, IAO-localization        
  Andreas Hansen         : Spin unrestricted coupled pair/coupled cluster methods 
  Ingolf Harden          : AUTO-CI MPn and infrastructure                
  Benjamin Helmich-Paris : MC-RPA, TRAH-(SCF,CASSCF), AVAS, COSX integrals, SCF dyn. polar. 
  Lee Huntington         : MR-EOM, pCC                                   
  Robert Izsak           : Overlap fitted RIJCOSX, COSX-SCS-MP3, EOM     
  Riya Kayal             : Wick's Theorem for AUTO-CI, AUTO-CI UHF-CCSDT 
  Emily Kempfer          : AUTO-CI, RHF CISDT and CCSDT                  
  Christian Kollmar      : KDIIS, OOCD, Brueckner-CCSD(T), CCSD density, CASPT2, CASPT2-K, improved NEVPT2 
  Axel Koslowski         : Symmetry handling                             
  Simone Kossmann        : meta-GGA functionals, TD-DFT gradient, OOMP2, (MP2 Hessian; deprecated post 5.0) 
  Lucas Lang             : DCDCAS                                        
  Marvin Lechner         : AUTO-CI (C++ implementation), FIC-MRCC        
  Spencer Leger          : CASSCF response                               
  Dagmar Lenk            : GEPOL surface, SMD, ORCA-2-JSON               
  Dimitrios Liakos       : Extrapolation schemes; Compound Job, initial MDCI parallelization 
  Dimitrios Manganas     : Further ROCIS development; embedding schemes. LFT, Crystal Embedding 
  Dimitrios Pantazis     : SARC Basis sets                               
  Anastasios Papadopoulos: AUTO-CI, single reference methods and gradients 
  Taras Petrenko         : pre 6.0 DFT Hessian and TD-DFT gradient, (ASA, deprecated), ECA, 1-Electron XAS/XES, NRVS 
  Peter Pinski           : DLPNO-MP2, DLPNO-MP2 Gradient                 
  Christoph Reimann      : Effective Core Potentials                     
  Marius Retegan         : Local ZFS, SOC                                
  Christoph Riplinger    : Optimizer, TS searches, QM/MM, DLPNO-CCSD(T), (RO)-DLPNO pert. Triples 
  Michael Roemelt        : Original ROCIS implementation                 
  Masaaki Saitow         : Open-shell DLPNO-CCSD energy and density      
  Barbara Sandhoefer     : DKH picture change effects                    
  Kantharuban Sivalingam : CASSCF convergence/infrastructure, NEVPT2 and variants, FIC-MRCI 
  Bernardo de Souza      : ESD, SOC TD-DFT                               
  Georgi L. Stoychev     : AutoAux, RI-MP2 NMR, DLPNO-MP2 response, X2C  
  Van Anh Tran           : RI-MP2 g-tensors                              
  Willem Van den Heuvel  : Paramagnetic NMR                              
  Zikuan Wang            : NOTCH, Electric field optimization            
  Frank Wennmohs         : Technical directorship and infrastructure     
  Hang Xu                : AUTO-CI-Response properties                   
                                                                         
[FACCTs GmbH]                                                            
  Markus Bursch, Miquel Garcia-Rates, Christoph Riplinger, Bernardo de Souza, Georgi L. Stoychev 
                                                                 
  APM, Basis sets (HGBS, AHGBS, def-TZVP (Ac-Lr), def2-XVPD (La-Lu)), CI-OPT, improved COSX, DLPNO-Multilevel,           
  DOCKER, DRACO, updates on ESD, GOAT, IRC, LR-CPCM, MBIS, meta-GGA TD-DFT gradient, ML-optimized integration grids, 
  MM, NACMEs, nearIR, NEB, NEB-TS, NL-DFT gradient (VV10), 2- and 3-layer-ONIOM, interface openCOSMO-RS, QMMM,   
  Crystal-QMMM, SF, symmetry and pop. for TD-DFT, r2SCAN hybrids, SOLVATOR                                   
                                                                         
[Other institutions]                                                     
  V. Asgeirsson          : NEB                                           
  Christoph Bannwarth    : sTDA-DFT, sTD-DFT, PBEh-3c, B97-3c, D3        
  Sebastian Ehlert       : rSCAN, r2SCAN, r2SCAN-3c, D4, dhf basis sets  
  Marvin Friede          : D4 for Fr, Ra, Ac-Lr                          
  Lars Goerigk           : TD-DFT with DH, B97 family of functionals     
  Stefan Grimme          : VdW corrections, initial TS optimization, DFT functionals, gCP, sTDA/sTD-DF 
  Waldemar Hujo          : DFT-NL                                        
  H. Jonsson             : NEB                                           
  Holger Kruse           : gCP                                           
  Marcel Mueller         : wB97X-3c, vDZP basis set                      
  Hagen Neugebauer       : wr2SCAN                                       
  Tobias Risthaus        : range-separated hybrid DFT                    
  Lukas Wittmann         : regularized MP2, r2SCAN double-hybrids, wr2SCAN        
                                                                         
We gratefully acknowledge several colleagues who have allowed us to      
interface, adapt or use parts of their codes:                            
  Ed Valeev, F. Pavosevic, A. Kumar             : LibInt (2-el integral package), F12 methods 
  Garnet Chan, S. Sharma, J. Yang, R. Olivares  : DMRG                   
  Ulf Ekstrom                                   : XCFun DFT Library      
  Mihaly Kallay                                 : mrcc  (arbitrary order and MRCC methods)
  Frank Weinhold                                : gennbo (NPA and NBO analysis)           
  Simon Mueller                                 : openCOSMO-RS                            
  Christopher J. Cramer and Donald G. Truhlar   : smd solvation model                     
  S Lehtola, MJT Oliveira, MAL Marques          : LibXC Library                           
  Liviu Ungur et al                             : ANISO software                          


 Your calculation uses the libint2 library for the computation of 2-el integrals
 For citations please refer to: http://libint.valeyev.net

 Your ORCA version has been built with support for libXC version: 6.2.2
 For citations please refer to: https://libxc.gitlab.io

 This ORCA versions uses:
   CBLAS   interface :  Fast vector & matrix operations
   LAPACKE interface :  Fast linear algebra routines
   SCALAPACK package :  Parallel linear algebra routines
   Shared memory     :  Shared parallel matrices
   BLAS/LAPACK       :  OpenBLAS 0.3.27  USE64BITINT DYNAMIC_ARCH NO_AFFINITY Zen SINGLE_THREADED
        Core in use  :  Zen
   Copyright (c) 2011-2014, The OpenBLAS Project


Your calculation utilizes the geometrical counterpoise correction gCP
Please cite in your paper:
H.Kruse, S. Grimme J.Chem.Phys., 136, (2012), 154101 
   

Your calculation utilizes the atom-pairwise dispersion correction
based on EEQ partial charges (D4)


================================================================================

----- Orbital basis set information -----
Your calculation utilizes the basis: def2-mTZVPP
   Stefan Grimme, Andreas Hansen, Sebastian Ehlert, and Jan-Michael Mewes 
   J. Chem. Phys. 154, 064103 (2021). DOI: 10.1063/5.0040021

----- AuxJ basis set information -----
Your calculation utilizes the auxiliary basis: def2/J
   F. Weigend, Phys. Chem. Chem. Phys. 8, 1057 (2006).

================================================================================
                                        WARNINGS
                       Please study these warnings very carefully!
================================================================================

WARNING: Old DensityContainer found on disk!
         Will remove this file - 
         If you want to keep old densities, please start your calculation with a different basename. 



WARNING: SCAN, rSCAN, or r2SCAN functional requested.
  ===> : libXC variant has now been activated.



================================================================================
                                       INPUT FILE
================================================================================
NAME = sp.inp
|  1> ! r2scan-3c def2/J RI DEFGRID2 scfconv6 printgap
|  2> %output
|  3>     printlevel normal
|  4> end
|  5> * xyz 0 1
|  6> C 0.5893744745 1.7091074833 -0.071425863
|  7> C 1.3860654668 0.4090971448 -0.2429640532
|  8> H 1.6455263931 0.2666471139 -1.2979136288
|  9> C 0.5293542665 -0.7784641716 0.2192900679
| 10> H 0.3194614243 -0.6867286015 1.2984059573
| 11> C -0.8021131292 -0.7501442431 -0.5350360387
| 12> H -0.5889085899 -0.8045234082 -1.6162881143
| 13> C -1.4801899279 0.6022114778 -0.2631734109
| 14> H -2.3994627184 0.6711928788 -0.8595946525
| 15> O -0.664548389 1.6554583615 -0.7224701602
| 16> O -1.7407128914 0.7108281238 1.0996080556
| 17> O -1.6544977269 -1.7889170384 -0.1540829144
| 18> O 1.1724058093 -2.0065841734 -0.0384441275
| 19> O 2.614868732 0.4374851263 0.4435494522
| 20> H 1.1205405854 2.5504290444 -0.5186008283
| 21> H 0.4471042938 1.8988044576 1.0034678416
| 22> H -2.3296165049 1.4585646184 1.2525461798
| 23> H -1.1087145477 -2.5809584798 -0.0644866344
| 24> H 2.1185037089 -1.8744762782 0.1036922864
| 25> H 2.4495879362 0.6411581769 1.3727967744
| 26> *
| 27> 
| 28>                          ****END OF INPUT****
================================================================================

                       ****************************
                       * Single Point Calculation *
                       ****************************

---------------------------------
CARTESIAN COORDINATES (ANGSTROEM)
---------------------------------
  C      0.589374    1.709107   -0.071426
  C      1.386065    0.409097   -0.242964
  H      1.645526    0.266647   -1.297914
  C      0.529354   -0.778464    0.219290
  H      0.319461   -0.686729    1.298406
  C     -0.802113   -0.750144   -0.535036
  H     -0.588909   -0.804523   -1.616288
  C     -1.480190    0.602211   -0.263173
  H     -2.399463    0.671193   -0.859595
  O     -0.664548    1.655458   -0.722470
  O     -1.740713    0.710828    1.099608
  O     -1.654498   -1.788917   -0.154083
  O      1.172406   -2.006584   -0.038444
  O      2.614869    0.437485    0.443549
  H      1.120541    2.550429   -0.518601
  H      0.447104    1.898804    1.003468
  H     -2.329617    1.458565    1.252546
  H     -1.108715   -2.580958   -0.064487
  H      2.118504   -1.874476    0.103692
  H      2.449588    0.641158    1.372797

----------------------------
CARTESIAN COORDINATES (A.U.)
----------------------------
  NO LB      ZA    FRAG     MASS         X           Y           Z
   0 C     6.0000    0    12.011    1.113756    3.229745   -0.134975
   1 C     6.0000    0    12.011    2.619284    0.773082   -0.459136
   2 H     1.0000    0     1.008    3.109594    0.503890   -2.452701
   3 C     6.0000    0    12.011    1.000335   -1.471084    0.414398
   4 H     1.0000    0     1.008    0.603695   -1.297729    2.453632
   5 C     6.0000    0    12.011   -1.515774   -1.417567   -1.011072
   6 H     1.0000    0     1.008   -1.112876   -1.520329   -3.054342
   7 C     6.0000    0    12.011   -2.797154    1.138015   -0.497326
   8 H     1.0000    0     1.008   -4.534327    1.268371   -1.624398
   9 O     8.0000    0    15.999   -1.255814    3.128363   -1.365271
  10 O     8.0000    0    15.999   -3.289471    1.343270    2.077958
  11 O     8.0000    0    15.999   -3.126548   -3.380563   -0.291175
  12 O     8.0000    0    15.999    2.215526   -3.791895   -0.072649
  13 O     8.0000    0    15.999    4.941386    0.826727    0.838187
  14 H     1.0000    0     1.008    2.117515    4.819612   -0.980014
  15 H     1.0000    0     1.008    0.844905    3.588220    1.896279
  16 H     1.0000    0     1.008   -4.402337    2.756288    2.366969
  17 H     1.0000    0     1.008   -2.095167   -4.877305   -0.121862
  18 H     1.0000    0     1.008    4.003392   -3.542247    0.195950
  19 H     1.0000    0     1.008    4.629050    1.211613    2.594210

--------------------------------
INTERNAL COORDINATES (ANGSTROEM)
--------------------------------
 C      0   0   0     0.000000000000     0.00000000     0.00000000
 C      1   0   0     1.534330071437     0.00000000     0.00000000
 H      2   1   0     1.095687268630   109.92295036     0.00000000
 C      2   1   3     1.535556847988   109.38517770   240.66274566
 H      4   2   1     1.103159790232   109.65237885   296.05819496
 C      4   2   1     1.530560459198   108.82451852    54.42930192
 H      6   4   2     1.103412579303   108.29710019    58.76661194
 C      6   4   2     1.537063248269   108.23265150   302.42436631
 H      8   6   4     1.097970488888   109.18089286   175.59722680
 O      8   6   4     1.409096739731   110.15941317    60.65850541
 O      8   6   4     1.391705110911   108.93193659   297.85856909
 O      6   4   2     1.396686688404   112.50214488   181.06563796
 O      4   2   1     1.410042886226   111.35419355   174.39101235
 O      2   1   3     1.407857995380   112.43303172   117.07025283
 H      1   2   3     1.090836768784   110.78169371   307.13466554
 H      1   2   3     1.100737126913   108.80236873   186.97265026
 H     11   8   6     0.964005913459   109.28365324   192.14388187
 H     12   6   4     0.966041622800   106.87487302   318.62867475
 H     13   4   2     0.965793193058   107.50034587    36.11834970
 H     14   2   1     0.965557372100   108.91346633    55.21187215

---------------------------
INTERNAL COORDINATES (A.U.)
---------------------------
 C      0   0   0     0.000000000000     0.00000000     0.00000000
 C      1   0   0     2.899463634056     0.00000000     0.00000000
 H      2   1   0     2.070548866135   109.92295036     0.00000000
 C      2   1   3     2.901781905765   109.38517770   240.66274566
 H      4   2   1     2.084669885492   109.65237885   296.05819496
 C      4   2   1     2.892340099293   108.82451852    54.42930192
 H      6   4   2     2.085147587607   108.29710019    58.76661194
 C      6   4   2     2.904628589745   108.23265150   302.42436631
 H      8   6   4     2.074863527126   109.18089286   175.59722680
 O      8   6   4     2.662806934293   110.15941317    60.65850541
 O      8   6   4     2.629941518800   108.93193659   297.85856909
 O      6   4   2     2.639355335977   112.50214488   181.06563796
 O      4   2   1     2.664594892051   111.35419355   174.39101235
 O      2   1   3     2.660466046720   112.43303172   117.07025283
 H      1   2   3     2.061382749814   110.78169371   307.13466554
 H      1   2   3     2.080091715304   108.80236873   186.97265026
 H     11   8   6     1.821707167918   109.28365324   192.14388187
 H     12   6   4     1.825554101061   106.87487302   318.62867475
 H     13   4   2     1.825084636886   107.50034587    36.11834970
 H     14   2   1     1.824638999858   108.91346633    55.21187215

---------------------
BASIS SET INFORMATION
---------------------
There are 3 groups of distinct atoms

 Group   1 Type C   : 11s6p1d contracted to 5s3p1d pattern {62111/411/1}
 Group   2 Type H   : 4s1p contracted to 2s1p pattern {31/1}
 Group   3 Type O   : 11s6p2d contracted to 5s3p2d pattern {62111/411/11}

Atom   0C    basis set group =>   1
Atom   1C    basis set group =>   1
Atom   2H    basis set group =>   2
Atom   3C    basis set group =>   1
Atom   4H    basis set group =>   2
Atom   5C    basis set group =>   1
Atom   6H    basis set group =>   2
Atom   7C    basis set group =>   1
Atom   8H    basis set group =>   2
Atom   9O    basis set group =>   3
Atom  10O    basis set group =>   3
Atom  11O    basis set group =>   3
Atom  12O    basis set group =>   3
Atom  13O    basis set group =>   3
Atom  14H    basis set group =>   2
Atom  15H    basis set group =>   2
Atom  16H    basis set group =>   2
Atom  17H    basis set group =>   2
Atom  18H    basis set group =>   2
Atom  19H    basis set group =>   2
---------------------------------
AUXILIARY/J BASIS SET INFORMATION
---------------------------------
There are 3 groups of distinct atoms

 Group   1 Type C   : 12s5p4d2f1g contracted to 6s4p3d1f1g pattern {711111/2111/211/2/1}
 Group   2 Type H   : 5s2p1d contracted to 3s1p1d pattern {311/2/1}
 Group   3 Type O   : 12s5p4d2f1g contracted to 6s4p3d1f1g pattern {711111/2111/211/2/1}

Atom   0C    basis set group =>   1
Atom   1C    basis set group =>   1
Atom   2H    basis set group =>   2
Atom   3C    basis set group =>   1
Atom   4H    basis set group =>   2
Atom   5C    basis set group =>   1
Atom   6H    basis set group =>   2
Atom   7C    basis set group =>   1
Atom   8H    basis set group =>   2
Atom   9O    basis set group =>   3
Atom  10O    basis set group =>   3
Atom  11O    basis set group =>   3
Atom  12O    basis set group =>   3
Atom  13O    basis set group =>   3
Atom  14H    basis set group =>   2
Atom  15H    basis set group =>   2
Atom  16H    basis set group =>   2
Atom  17H    basis set group =>   2
Atom  18H    basis set group =>   2
Atom  19H    basis set group =>   2

Checking for AutoStart:
The File: sp.gbw exists
Trying to determine its content:
     ... Fine, the file contains calculation information
     ... Fine, the calculation information was read
     ... Fine, the file contains a basis set
     ... Fine, the basis set was read
     ... Fine, the file contains a geometry
     ... Fine, the geometry was read
     ... Fine, the file contains a set of orbitals
     ... Fine, the orbitals can be read
     => possible old guess file was deleted
     => GBW file was renamed to GES file
     => GES file is set as startup file
     => Guess is set to MORead
     ... now leaving AutoStart

------------------------------------------------------------------------------
                             ORCA STARTUP CALCULATIONS
                           -- RI-GTO INTEGRALS CHOSEN --
------------------------------------------------------------------------------
------------------------------------------------------------------------------
                   ___                                                        
                  /   \      - P O W E R E D   B Y -                         
                 /     \                                                     
                 |  |  |   _    _      __       _____    __    __             
                 |  |  |  | |  | |    /  \     |  _  \  |  |  /  |          
                  \  \/   | |  | |   /    \    | | | |  |  | /  /          
                 / \  \   | |__| |  /  /\  \   | |_| |  |  |/  /          
                |  |  |   |  __  | /  /__\  \  |    /   |      \           
                |  |  |   | |  | | |   __   |  |    \   |  |\   \          
                \     /   | |  | | |  |  |  |  | |\  \  |  | \   \       
                 \___/    |_|  |_| |__|  |__|  |_| \__\ |__|  \__/        
                                                                              
                      - O R C A' S   B I G   F R I E N D -                    
                                      &                                       
                       - I N T E G R A L  F E E D E R -                       
                                                                              
 v1 FN, 2020, v2 2021, v3 2022-2024                                           
------------------------------------------------------------------------------


----------------------
SHARK INTEGRAL PACKAGE
----------------------

Number of atoms                             ...     20
Number of basis functions                   ...    265
Number of shells                            ...    125
Maximum angular momentum                    ...      2
Integral batch strategy                     ... SHARK/LIBINT Hybrid
RI-J (if used) integral strategy            ... SPLIT-RIJ (Revised 2003 algorithm where possible)
Printlevel                                  ...      1
Contraction scheme used                     ... SEGMENTED contraction
Prescreening option                         ... SCHWARTZ
   Thresh                                   ... 1.000e-10
   Tcut                                     ... 1.000e-11
   Tpresel                                  ... 1.000e-11 
Coulomb Range Separation                    ... NOT USED
Exchange Range Separation                   ... NOT USED
Multipole approximations                    ... NOT USED
Finite Nucleus Model                        ... NOT USED
CABS basis                                  ... NOT available
Auxiliary Coulomb fitting basis             ... AVAILABLE
   # of basis functions in Aux-J            ...    600
   # of shells in Aux-J                     ...    200
   Maximum angular momentum in Aux-J        ...      4
Auxiliary J/K fitting basis                 ... NOT available
Auxiliary Correlation fitting basis         ... NOT available
Auxiliary 'external' fitting basis          ... NOT available

Checking pre-screening integrals            ... done (  0.0 sec) Dimension = 125
Check shell pair data                       ... done (  0.0 sec)
Shell pair information
Shell pair cut-off parameter TPreSel        ...   1.0e-11
Total number of shell pairs                 ...      7875
Shell pairs after pre-screening             ...      7073
Total number of primitive shell pairs       ...     27980
Primitive shell pairs kept                  ...     17663
          la=0 lb=0:   2141 shell pairs
          la=1 lb=0:   2522 shell pairs
          la=1 lb=1:    766 shell pairs
          la=2 lb=0:    962 shell pairs
          la=2 lb=1:    566 shell pairs
          la=2 lb=2:    116 shell pairs

Calculating one electron integrals          ... done (  0.0 sec)
Calculating RI/J V-Matrix + Cholesky decomp.... done (  0.0 sec)
Calculating Nuclear repulsion               ... done (  0.0 sec) ENN=    625.514450659648 Eh

Diagonalization of the overlap matrix:
Smallest eigenvalue                        ... 4.551e-05
Time for diagonalization                   ...    0.008 sec
Threshold for overlap eigenvalues          ... 1.000e-07
Number of eigenvalues below threshold      ... 0
Time for construction of square roots      ...    0.003 sec
Total time needed                          ...    0.012 sec

-------------------
DFT GRID GENERATION
-------------------

General Integration Accuracy     IntAcc      ... 4.388
Radial Grid Type                 RadialGrid  ... OptM3 with GC (2021)
Angular Grid (max. ang.)         AngularGrid ... 4 (Lebedev-302)
Angular grid pruning method      GridPruning ... 4 (adaptive)
Weight generation scheme         WeightScheme... mBecke (2022)
Basis function cutoff            BFCut       ... 1.0000e-10
Integration weight cutoff        WCut        ... 1.0000e-14
Partially contracted basis set               ... off
Rotationally invariant grid construction     ... off
Angular grids for H and He will be reduced by one unit
Diffuse basis detected: some atoms will have their outermost
                        angular grid increased by 1.

Total number of grid points                  ...    93504
Total number of batches                      ...     1472
Average number of points per batch           ...       63
Average number of grid points per atom       ...     4675
Initializing property integral containers    ... done (  0.0 sec)

SHARK setup successfully completed in   1.1 seconds

Maximum memory used throughout the entire STARTUP-calculation: 45.9 MB
-------------------------------------------------------------------------------
                                 ORCA GUESS
                   Start orbitals & Density for SCF / CASSCF
-------------------------------------------------------------------------------

------------
SCF SETTINGS
------------
Hamiltonian:
 Density Functional     Method          .... DFT(GTOs)
  Functional kind                       .... Exchange
  Functional name                       .... Re-regularized SCAN exchange by Furness et al
  Functional family                     .... MGGA
  Functional refs                              
    [ 0] J. W. Furness, A. D. Kaplan, J. Ning, J. P. Perdew, and J. Sun.,  J. Phys. Chem. Lett. 11, 8208-8215 (2020), doi: 10.1021/acs.jpclett.0c02405
    [ 1] J. W. Furness, A. D. Kaplan, J. Ning, J. P. Perdew, and J. Sun.,  J. Phys. Chem. Lett. 11, 9248-9248 (2020), doi: 10.1021/acs.jpclett.0c03077
  Functional external parameters        .... 6
    Parameter  0 _c1        =  6.670000e-01 : c1 parameter        
    Parameter  1 _c2        =  8.000000e-01 : c2 parameter        
    Parameter  2 _d         =  1.240000e+00 : d parameter         
    Parameter  3 _k1        =  6.500000e-02 : k1 parameter        
    Parameter  4 _eta       =  1.000000e-03 : eta parameter       
    Parameter  5 _dp2       =  3.610000e-01 : dp2 parameter       
  Functional kind                       .... Correlation
  Functional name                       .... Re-regularized SCAN correlation by Furness et al
  Functional family                     .... MGGA
  Functional refs                              
    [ 0] J. W. Furness, A. D. Kaplan, J. Ning, J. P. Perdew, and J. Sun.,  J. Phys. Chem. Lett. 11, 8208-8215 (2020), doi: 10.1021/acs.jpclett.0c02405
    [ 1] J. W. Furness, A. D. Kaplan, J. Ning, J. P. Perdew, and J. Sun.,  J. Phys. Chem. Lett. 11, 9248-9248 (2020), doi: 10.1021/acs.jpclett.0c03077
  Functional external parameters        .... 1
    Parameter  0 _eta       =  1.000000e-03 : Regularization parameter
 Gradients option       PostSCFGGA      .... off
 RI-approximation to the Coulomb term is turned on
   Number of AuxJ basis functions       .... 600


General Settings:
 Integral files         IntName         .... sp
 Hartree-Fock type      HFTyp           .... RHF
 Total Charge           Charge          ....    0
 Multiplicity           Mult            ....    1
 Number of Electrons    NEL             ....   80
 Basis Dimension        Dim             ....  265
 Nuclear Repulsion      ENuc            ....    625.5144506596 Eh

Convergence Acceleration:
 AO-DIIS                CNVDIIS         .... on
   Start iteration      DIISMaxIt       ....    12
   Startup error        DIISStart       ....  0.200000
   # of expansion vecs  DIISMaxEq       ....     5
   Bias factor          DIISBfac        ....   1.050
   Max. coefficient     DIISMaxC        ....  10.000
 MO-DIIS                CNVKDIIS        .... off
 Trust-Rad. Augm. Hess. CNVTRAH         .... auto
   Auto Start mean grad. ratio tolernc. ....  1.125000
   Auto Start start iteration           ....     1
   Auto Start num. interpolation iter.  ....    10
   Max. Number of Micro iterations      ....    24
   Max. Number of Macro iterations      .... Maxiter - #DIIS iter
   Number of Davidson start vectors     ....     2
   Converg. threshold    (grad. norm)   ....   3.330e-04
   Grad. Scal. Fac. for Micro threshold ....   0.100
   Minimum threshold for Micro iter.    ....   1.000e-02
   NR start threshold (gradient norm)   ....   1.000e-04
   Initial trust radius                 ....   0.400
   Minimum AH scaling param. (alpha)    ....   1.000
   Maximum AH scaling param. (alpha)    .... 1000.000
   Quad. conv. algorithm                .... NR
   White noise on init. David. guess    .... on
   Maximum white noise                  ....   0.010
   Pseudo random numbers                .... off
   Inactive MOs                         .... canonical
   Orbital update algorithm             .... Taylor
   Preconditioner                       .... Diag
   Full preconditioner red. dimension   ....   250
   COSX micro iterations for RIJONX calc.... off
 SOSCF                  CNVSOSCF        .... on
   Start iteration      SOSCFMaxIt      ....   150
   Startup grad/error   SOSCFStart      ....  0.003300
   Hessian update       SOSCFHessUp     .... L-BFGS
 Level Shifting         CNVShift        .... on
   Level shift para.    LevelShift      ....    0.2500
   Turn off err/grad.   ShiftErr        ....    0.0010
 Zerner damping         CNVZerner       .... off
 Static damping         CNVDamp         .... on
   Fraction old density DampFac         ....    0.7000
   Max. Damping (<1)    DampMax         ....    0.9800
   Min. Damping (>=0)   DampMin         ....    0.0000
   Turn off err/grad.   DampErr         ....    0.1000

SCF Procedure:
 Maximum # iterations   MaxIter         ....   125
 SCF integral mode      SCFMode         .... Direct
   Integral package                     .... SHARK and LIBINT hybrid scheme
 Reset frequency        DirectResetFreq ....    20
 Integral Threshold     Thresh          ....  1.000e-10 Eh
 Primitive CutOff       TCut            ....  1.000e-11 Eh

Convergence Tolerance:
 Convergence Check Mode ConvCheckMode   .... Total+1el-Energy
 Convergence forced     ConvForced      .... 0
 Energy Change          TolE            ....  1.000e-06 Eh
 1-El. energy change                    ....  1.000e-03 Eh
 Orbital Gradient       TolG            ....  3.330e-04
 Orbital Rotation angle TolX            ....  3.330e-04
 DIIS Error             TolErr          ....  1.000e-06

---------------------
INITIAL GUESS: MOREAD
---------------------
Guess MOs are being read from file: sp.ges
Input Geometry matches current geometry (good)
Atom 0: N(Shells)= 9 and 6 - projection required
Input basis set needs projection
NBasis(read)= 160
NBasis(calc)= 265
Basis set overlap was calculated
Using GuessMode=FMatrix for the initial guess
C*T matrix was formed
Effective Fockian was calculated
Effective Fockian was diagonalized
Initial density was built
                      ------------------
                      INITIAL GUESS DONE (   0.0 sec)
                      ------------------
             **** ENERGY FILE WAS UPDATED (sp.en.tmp) ****
Finished Guess after   0.1 sec
Maximum memory used throughout the entire GUESS-calculation: 21.6 MB

-------------------------------------------------------------------------------------------
                                      ORCA LEAN-SCF
                              memory conserving SCF solver
-------------------------------------------------------------------------------------------

----------------------------------------D-I-I-S--------------------------------------------
Iteration    Energy (Eh)           Delta-E    RMSDP     MaxDP     DIISErr   Damp  Time(sec)
-------------------------------------------------------------------------------------------
               ***  Starting incremental Fock matrix formation  ***
    1    -572.2386637086863175     0.00e+00  6.63e-03  4.20e-01  6.28e-01  0.700   3.3
    2    -572.3372452027022064    -9.86e-02  5.04e-03  2.75e-01  4.41e-01  0.700   2.4
    3    -572.4070800800832330    -6.98e-02  3.63e-03  1.83e-01  3.09e-01  0.700   2.7
    4    -572.4561353284507277    -4.91e-02  2.58e-03  1.25e-01  2.17e-01  0.700   2.4
                               ***Turning on AO-DIIS***
    5    -572.4905604705445512    -3.44e-02  1.84e-03  8.67e-02  1.52e-01  0.700   2.7
    6    -572.5147022502696927    -2.41e-02  1.30e-03  5.97e-02  1.06e-01  0.700   2.2
    7    -572.5316333133675926    -1.69e-02  9.12e-04  4.12e-02  7.42e-02  0.700   2.3
    8    -572.5435006358272858    -1.19e-02  2.14e-03  9.51e-02  5.20e-02  0.000   2.2
                              *** Initializing SOSCF ***
---------------------------------------S-O-S-C-F--------------------------------------
Iteration    Energy (Eh)           Delta-E    RMSDP     MaxDP     MaxGrad    Time(sec)
--------------------------------------------------------------------------------------
    9    -572.5712405870892781    -2.77e-02  1.35e-05  4.87e-04  1.60e-04     2.5
               *** Restarting incremental Fock matrix formation ***
   10    -572.5712407391913530    -1.52e-07  1.27e-05  7.83e-04  2.46e-05     2.7
                  *** Gradient check signals convergence ***

               *****************************************************
               *                     SUCCESS                       *
               *           SCF CONVERGED AFTER  10 CYCLES          *
               *****************************************************

             **** ENERGY FILE WAS UPDATED (sp.en.tmp) ****

----------------
TOTAL SCF ENERGY
----------------

Total Energy       :       -572.57124073919135 Eh          -15580.45556 eV

Components:
Nuclear Repulsion  :        625.51445065964776 Eh           17021.11354 eV
Electronic Energy  :      -1198.08569139883912 Eh          -32601.56909 eV
One Electron Energy:      -2026.12196325744208 Eh          -55133.58156 eV
Two Electron Energy:        828.03627185860296 Eh           22532.01246 eV

Virial components:
Potential Energy   :      -1142.95636996621215 Eh          -31101.42399 eV
Kinetic Energy     :        570.38512922702091 Eh           15520.96844 eV
Virial Ratio       :          2.00383269373648

DFT components:
N(Alpha)           :       39.999931551676 electrons
N(Beta)            :       39.999931551676 electrons
N(Total)           :       79.999863103351 electrons
E(X)               :      -71.072976337088 Eh       
E(C)               :       -2.661032943764 Eh       
E(XC)              :      -73.734009280851 Eh       

---------------
SCF CONVERGENCE
---------------

  Last Energy change         ...    1.5210e-07  Tolerance :   1.0000e-06
  Last MAX-Density change    ...    7.8307e-04  Tolerance :   1.0000e-05
  Last RMS-Density change    ...    1.2667e-05  Tolerance :   1.0000e-06
  Last DIIS Error            ...    1.5953e-04  Tolerance :   1.0000e-06
  Last Orbital Gradient      ...    2.4551e-05  Tolerance :   3.3300e-04
  Last Orbital Rotation      ...    3.8623e-05  Tolerance :   3.3300e-04


----------------
ORBITAL ENERGIES
----------------

  NO   OCC          E(Eh)            E(eV) 
   0   2.0000     -18.974875      -516.3326 
   1   2.0000     -18.970869      -516.2236 
   2   2.0000     -18.968864      -516.1690 
   3   2.0000     -18.960547      -515.9427 
   4   2.0000     -18.951342      -515.6922 
   5   2.0000     -10.138783      -275.8903 
   6   2.0000     -10.096165      -274.7306 
   7   2.0000     -10.089054      -274.5371 
   8   2.0000     -10.088624      -274.5254 
   9   2.0000     -10.088596      -274.5247 
  10   2.0000      -1.052162       -28.6308 
  11   2.0000      -1.020617       -27.7724 
  12   2.0000      -1.003562       -27.3083 
  13   2.0000      -0.985865       -26.8268 
  14   2.0000      -0.981107       -26.6973 
  15   2.0000      -0.750645       -20.4261 
  16   2.0000      -0.726976       -19.7820 
  17   2.0000      -0.622425       -16.9371 
  18   2.0000      -0.617502       -16.8031 
  19   2.0000      -0.564720       -15.3668 
  20   2.0000      -0.521776       -14.1982 
  21   2.0000      -0.513272       -13.9668 
  22   2.0000      -0.495657       -13.4875 
  23   2.0000      -0.472170       -12.8484 
  24   2.0000      -0.447234       -12.1699 
  25   2.0000      -0.446055       -12.1378 
  26   2.0000      -0.418519       -11.3885 
  27   2.0000      -0.404210       -10.9991 
  28   2.0000      -0.396917       -10.8007 
  29   2.0000      -0.377509       -10.2725 
  30   2.0000      -0.355545        -9.6749 
  31   2.0000      -0.338499        -9.2110 
  32   2.0000      -0.332201        -9.0396 
  33   2.0000      -0.322015        -8.7625 
  34   2.0000      -0.288474        -7.8498 
  35   2.0000      -0.278539        -7.5794 
  36   2.0000      -0.267295        -7.2735 
  37   2.0000      -0.255150        -6.9430 
  38   2.0000      -0.237345        -6.4585 
  39   2.0000      -0.233497        -6.3538 
  40   0.0000       0.027992         0.7617 
  41   0.0000       0.048180         1.3110 
  42   0.0000       0.062780         1.7083 
  43   0.0000       0.089805         2.4437 
  44   0.0000       0.095716         2.6046 
  45   0.0000       0.108571         2.9544 
  46   0.0000       0.118422         3.2224 
  47   0.0000       0.130009         3.5377 
  48   0.0000       0.137713         3.7474 
  49   0.0000       0.147550         4.0150 
  50   0.0000       0.156049         4.2463 
*Only the first 10 virtual orbitals were printed.

                    ********************************
                    * MULLIKEN POPULATION ANALYSIS *
                    ********************************

-----------------------
MULLIKEN ATOMIC CHARGES
-----------------------
   0 C :   -0.247680
   1 C :   -0.106352
   2 H :    0.167904
   3 C :    0.030792
   4 H :    0.178855
   5 C :   -0.054232
   6 H :    0.166527
   7 C :    0.026927
   8 H :    0.133657
   9 O :   -0.198163
  10 O :   -0.387289
  11 O :   -0.414440
  12 O :   -0.437921
  13 O :   -0.413332
  14 H :    0.158242
  15 H :    0.157881
  16 H :    0.303391
  17 H :    0.319911
  18 H :    0.311445
  19 H :    0.303880
Sum of atomic charges:    0.0000000

--------------------------------
MULLIKEN REDUCED ORBITAL CHARGES
--------------------------------
  0 C s       :     3.314626  s :     3.314626
      pz      :     1.029912  p :     2.876595
      px      :     0.807195
      py      :     1.039487
      dz2     :     0.013889  d :     0.056460
      dxz     :     0.011584
      dyz     :     0.005192
      dx2y2   :     0.011157
      dxy     :     0.014639

  1 C s       :     3.234585  s :     3.234585
      pz      :     1.035080  p :     2.804728
      px      :     0.794586
      py      :     0.975062
      dz2     :     0.014377  d :     0.067040
      dxz     :     0.013373
      dyz     :     0.006626
      dx2y2   :     0.012646
      dxy     :     0.020017

  2 H s       :     0.815101  s :     0.815101
      pz      :     0.010965  p :     0.016995
      px      :     0.002645
      py      :     0.003385

  3 C s       :     3.126343  s :     3.126343
      pz      :     1.057137  p :     2.775998
      px      :     0.930329
      py      :     0.788531
      dz2     :     0.014206  d :     0.066868
      dxz     :     0.009988
      dyz     :     0.011742
      dx2y2   :     0.015104
      dxy     :     0.015829

  4 H s       :     0.804248  s :     0.804248
      pz      :     0.010996  p :     0.016898
      px      :     0.003489
      py      :     0.002412

  5 C s       :     3.239117  s :     3.239117
      pz      :     1.029799  p :     2.746576
      px      :     0.885117
      py      :     0.831659
      dz2     :     0.015435  d :     0.068538
      dxz     :     0.012106
      dyz     :     0.009510
      dx2y2   :     0.014954
      dxy     :     0.016533

  6 H s       :     0.816771  s :     0.816771
      pz      :     0.011135  p :     0.016703
      px      :     0.003132
      py      :     0.002435

  7 C s       :     3.192788  s :     3.192788
      pz      :     0.799522  p :     2.687413
      px      :     1.008850
      py      :     0.879041
      dz2     :     0.023894  d :     0.092872
      dxz     :     0.021796
      dyz     :     0.016996
      dx2y2   :     0.014855
      dxy     :     0.015332

  8 H s       :     0.849669  s :     0.849669
      pz      :     0.005115  p :     0.016674
      px      :     0.009035
      py      :     0.002525

  9 O s       :     3.730377  s :     3.730377
      pz      :     1.688097  p :     4.449054
      px      :     1.213272
      py      :     1.547685
      dz2     :     0.002533  d :     0.018733
      dxz     :     0.002608
      dyz     :     0.005505
      dx2y2   :     0.004370
      dxy     :     0.003718

 10 O s       :     3.746073  s :     3.746073
      pz      :     1.349211  p :     4.623182
      px      :     1.686680
      py      :     1.587291
      dz2     :     0.006486  d :     0.018034
      dxz     :    -0.001668
      dyz     :     0.001703
      dx2y2   :     0.004053
      dxy     :     0.007461

 11 O s       :     3.760275  s :     3.760275
      pz      :     1.855049  p :     4.638831
      px      :     1.561793
      py      :     1.221990
      dz2     :     0.004787  d :     0.015334
      dxz     :     0.002896
      dyz     :     0.000158
      dx2y2   :     0.001745
      dxy     :     0.005748

 12 O s       :     3.766481  s :     3.766481
      pz      :     1.876232  p :     4.655278
      px      :     1.304759
      py      :     1.474287
      dz2     :     0.004028  d :     0.016162
      dxz     :     0.004502
      dyz     :    -0.000820
      dx2y2   :     0.003183
      dxy     :     0.005269

 13 O s       :     3.747601  s :     3.747601
      pz      :     1.292190  p :     4.647913
      px      :     1.472915
      py      :     1.882808
      dz2     :     0.001675  d :     0.017818
      dxz     :     0.004577
      dyz     :     0.002408
      dx2y2   :     0.003806
      dxy     :     0.005351

 14 H s       :     0.824327  s :     0.824327
      pz      :     0.004411  p :     0.017431
      px      :     0.004578
      py      :     0.008441

 15 H s       :     0.824844  s :     0.824844
      pz      :     0.011035  p :     0.017275
      px      :     0.002672
      py      :     0.003568

 16 H s       :     0.653291  s :     0.653291
      pz      :     0.008474  p :     0.043318
      px      :     0.016081
      py      :     0.018762

 17 H s       :     0.636326  s :     0.636326
      pz      :     0.012587  p :     0.043763
      px      :     0.013383
      py      :     0.017793

 18 H s       :     0.644624  s :     0.644624
      pz      :     0.012763  p :     0.043931
      px      :     0.022317
      py      :     0.008851

 19 H s       :     0.653013  s :     0.653013
      pz      :     0.021250  p :     0.043107
      px      :     0.008807
      py      :     0.013050


------------------------
MULLIKEN OVERLAP CHARGES
------------------------
B(  0-C ,  1-C ) :  -0.2598 B(  0-C ,  3-C ) :  -0.4289 B(  0-C ,  5-C ) :   0.4044 
B(  0-C ,  7-C ) :  -0.6732 B(  0-C ,  9-O ) :   0.4703 B(  0-C , 13-O ) :  -0.0885 
B(  0-C , 14-H ) :   0.6951 B(  0-C , 15-H ) :   0.9504 B(  1-C ,  2-H ) :   0.7926 
B(  1-C ,  3-C ) :   0.1464 B(  1-C ,  4-H ) :  -0.0871 B(  1-C ,  5-C ) :  -0.2144 
B(  1-C ,  6-H ) :   0.0821 B(  1-C ,  7-C ) :   0.1974 B(  1-C ,  9-O ) :  -0.2055 
B(  1-C , 12-O ) :  -0.0916 B(  1-C , 13-O ) :   0.4040 B(  1-C , 15-H ) :  -0.1644 
B(  1-C , 19-H ) :  -0.1442 B(  2-H ,  3-C ) :  -0.1049 B(  2-H , 13-O ) :  -0.0909 
B(  3-C ,  4-H ) :   0.7974 B(  3-C ,  5-C ) :  -0.3060 B(  3-C ,  6-H ) :  -0.1955 
B(  3-C ,  7-C ) :   0.1987 B(  3-C , 10-O ) :   0.0741 B(  3-C , 12-O ) :   0.3844 
B(  3-C , 13-O ) :  -0.1405 B(  3-C , 18-H ) :  -0.1166 B(  4-H , 12-O ) :  -0.1156 
B(  5-C ,  6-H ) :   0.9075 B(  5-C ,  7-C ) :  -0.2859 B(  5-C ,  9-O ) :  -0.0584 
B(  5-C , 10-O ) :  -0.1589 B(  5-C , 11-O ) :   0.2613 B(  5-C , 12-O ) :  -0.0905 
B(  5-C , 17-H ) :  -0.1323 B(  6-H ,  7-C ) :  -0.0555 B(  6-H , 11-O ) :  -0.1097 
B(  7-C ,  8-H ) :   0.8290 B(  7-C ,  9-O ) :   0.4070 B(  7-C , 10-O ) :   0.4165 
B(  7-C , 15-H ) :  -0.0589 B(  7-C , 16-H ) :  -0.0888 B(  8-H ,  9-O ) :  -0.1312 
B(  8-H , 10-O ) :  -0.0846 B(  9-O , 10-O ) :  -0.2421 B(  9-O , 14-H ) :  -0.0758 
B(  9-O , 15-H ) :  -0.0951 B( 10-O , 16-H ) :   0.6091 B( 11-O , 17-H ) :   0.6126 
B( 12-O , 18-H ) :   0.6014 B( 13-O , 19-H ) :   0.5959 


                     *******************************
                     * LOEWDIN POPULATION ANALYSIS *
                     *******************************

----------------------
LOEWDIN ATOMIC CHARGES
----------------------
   0 C :    0.040176
   1 C :    0.091417
   2 H :    0.196130
   3 C :    0.096230
   4 H :    0.189257
   5 C :    0.125286
   6 H :    0.185453
   7 C :    0.291822
   8 H :    0.199115
   9 O :   -0.676831
  10 O :   -0.509142
  11 O :   -0.543483
  12 O :   -0.582367
  13 O :   -0.579877
  14 H :    0.190000
  15 H :    0.176038
  16 H :    0.275625
  17 H :    0.282698
  18 H :    0.281341
  19 H :    0.271112

-------------------------------
LOEWDIN REDUCED ORBITAL CHARGES
-------------------------------
  0 C s       :     2.859250  s :     2.859250
      pz      :     1.045778  p :     2.972576
      px      :     0.885059
      py      :     1.041738
      dz2     :     0.033484  d :     0.127998
      dxz     :     0.026217
      dyz     :     0.010019
      dx2y2   :     0.024490
      dxy     :     0.033788

  1 C s       :     2.833567  s :     2.833567
      pz      :     1.018422  p :     2.930103
      px      :     0.897053
      py      :     1.014628
      dz2     :     0.033157  d :     0.144913
      dxz     :     0.028563
      dyz     :     0.011176
      dx2y2   :     0.027020
      dxy     :     0.044998

  2 H s       :     0.764117  s :     0.764117
      pz      :     0.024981  p :     0.039754
      px      :     0.006954
      py      :     0.007818

  3 C s       :     2.831534  s :     2.831534
      pz      :     1.063418  p :     2.928178
      px      :     0.964241
      py      :     0.900519
      dz2     :     0.032216  d :     0.144057
      dxz     :     0.020896
      dyz     :     0.023663
      dx2y2   :     0.033097
      dxy     :     0.034184

  4 H s       :     0.769584  s :     0.769584
      pz      :     0.027091  p :     0.041159
      px      :     0.008038
      py      :     0.006030

  5 C s       :     2.823080  s :     2.823080
      pz      :     1.041036  p :     2.904973
      px      :     0.961391
      py      :     0.902546
      dz2     :     0.035174  d :     0.146661
      dxz     :     0.025805
      dyz     :     0.017490
      dx2y2   :     0.031170
      dxy     :     0.037023

  6 H s       :     0.774256  s :     0.774256
      pz      :     0.026725  p :     0.040290
      px      :     0.007444
      py      :     0.006121

  7 C s       :     2.764573  s :     2.764573
      pz      :     0.865136  p :     2.741684
      px      :     0.966978
      py      :     0.909569
      dz2     :     0.055252  d :     0.201922
      dxz     :     0.047912
      dyz     :     0.032849
      dx2y2   :     0.031319
      dxy     :     0.034591

  8 H s       :     0.763441  s :     0.763441
      pz      :     0.012009  p :     0.037444
      px      :     0.019699
      py      :     0.005735

  9 O s       :     3.490925  s :     3.490925
      pz      :     1.703309  p :     4.708242
      px      :     1.395765
      py      :     1.609168
      dz2     :     0.090304  d :     0.477664
      dxz     :     0.092557
      dyz     :     0.047667
      dx2y2   :     0.118232
      dxy     :     0.128904

 10 O s       :     3.493492  s :     3.493492
      pz      :     1.466917  p :     4.736181
      px      :     1.680109
      py      :     1.589154
      dz2     :     0.087815  d :     0.279469
      dxz     :     0.071176
      dyz     :     0.058933
      dx2y2   :     0.020406
      dxy     :     0.041140

 11 O s       :     3.497111  s :     3.497111
      pz      :     1.839413  p :     4.774124
      px      :     1.598595
      py      :     1.336116
      dz2     :     0.040935  d :     0.272248
      dxz     :     0.034417
      dyz     :     0.044119
      dx2y2   :     0.071972
      dxy     :     0.080805

 12 O s       :     3.501498  s :     3.501498
      pz      :     1.860549  p :     4.798459
      px      :     1.381016
      py      :     1.556894
      dz2     :     0.037115  d :     0.282410
      dxz     :     0.026554
      dyz     :     0.051924
      dx2y2   :     0.094291
      dxy     :     0.072525

 13 O s       :     3.509516  s :     3.509516
      pz      :     1.394343  p :     4.781514
      px      :     1.557812
      py      :     1.829358
      dz2     :     0.087494  d :     0.288848
      dxz     :     0.062867
      dyz     :     0.021414
      dx2y2   :     0.054331
      dxy     :     0.062742

 14 H s       :     0.770005  s :     0.770005
      pz      :     0.010876  p :     0.039996
      px      :     0.009292
      py      :     0.019827

 15 H s       :     0.782401  s :     0.782401
      pz      :     0.026402  p :     0.041561
      px      :     0.006767
      py      :     0.008392

 16 H s       :     0.601375  s :     0.601375
      pz      :     0.022612  p :     0.123000
      px      :     0.045519
      py      :     0.054869

 17 H s       :     0.593893  s :     0.593893
      pz      :     0.032399  p :     0.123409
      px      :     0.039889
      py      :     0.051121

 18 H s       :     0.594253  s :     0.594253
      pz      :     0.033364  p :     0.124406
      px      :     0.067178
      py      :     0.023864

 19 H s       :     0.605808  s :     0.605808
      pz      :     0.063978  p :     0.123080
      px      :     0.024592
      py      :     0.034510


---------------------------------
LOEWDIN BOND ORDERS (THRESH 0.050000)
---------------------------------
B(  0-C ,  1-C ) :   0.9194 B(  0-C ,  3-C ) :   0.0659 B(  0-C ,  7-C ) :   0.0713 
B(  0-C ,  9-O ) :   1.3806 B(  0-C , 13-O ) :   0.1623 B(  0-C , 14-H ) :   0.8192 
B(  0-C , 15-H ) :   0.8079 B(  1-C ,  2-H ) :   0.7794 B(  1-C ,  3-C ) :   0.8933 
B(  1-C ,  5-C ) :   0.0727 B(  1-C ,  9-O ) :   0.1489 B(  1-C , 12-O ) :   0.1508 
B(  1-C , 13-O ) :   1.4278 B(  2-H , 13-O ) :   0.0930 B(  3-C ,  4-H ) :   0.7708 
B(  3-C ,  5-C ) :   0.8873 B(  3-C ,  7-C ) :   0.0605 B(  3-C , 11-O ) :   0.1507 
B(  3-C , 12-O ) :   1.3991 B(  3-C , 13-O ) :   0.1606 B(  4-H , 12-O ) :   0.0947 
B(  5-C ,  6-H ) :   0.7716 B(  5-C ,  7-C ) :   0.8386 B(  5-C ,  9-O ) :   0.1452 
B(  5-C , 10-O ) :   0.1437 B(  5-C , 11-O ) :   1.4149 B(  5-C , 12-O ) :   0.1573 
B(  6-H , 11-O ) :   0.0998 B(  7-C ,  8-H ) :   0.7388 B(  7-C ,  9-O ) :   1.3014 
B(  7-C , 10-O ) :   1.3481 B(  7-C , 11-O ) :   0.1452 B(  7-C , 16-H ) :   0.0501 
B(  8-H ,  9-O ) :   0.0884 B(  8-H , 10-O ) :   0.0924 B(  9-O , 10-O ) :   0.3061 
B(  9-O , 14-H ) :   0.0964 B(  9-O , 15-H ) :   0.0988 B( 10-O , 11-O ) :   0.0599 
B( 10-O , 16-H ) :   0.9564 B( 11-O , 12-O ) :   0.0609 B( 11-O , 17-H ) :   0.9445 
B( 12-O , 13-O ) :   0.0632 B( 12-O , 18-H ) :   0.9451 B( 13-O , 19-H ) :   0.9632 


------------------------------------------
LOEWDIN REDUCED ORBITAL POPULATIONS PER MO
-------------------------------------------
THRESHOLD FOR PRINTING IS 0.1%%
                      0         1         2         3         4         5   
                 -18.97487 -18.97087 -18.96886 -18.96055 -18.95134 -10.13878
                   2.00000   2.00000   2.00000   2.00000   2.00000   2.00000
                  --------  --------  --------  --------  --------  --------
 7 C  s               0.0       0.0       0.0       0.0       0.0      99.0
 9 O  s               0.0      99.9       0.0       0.0       0.0       0.0
 9 O  dxy             0.0       0.0       0.0       0.0       0.0       0.2
10 O  s               0.0       0.0      99.9       0.0       0.0       0.0
10 O  pz              0.0       0.0       0.0       0.0       0.0       0.1
10 O  dz2             0.0       0.0       0.0       0.0       0.0       0.2
11 O  s               0.0       0.0       0.0       0.0      99.9       0.0
12 O  s               0.0       0.0       0.0      99.9       0.0       0.0
13 O  s              99.9       0.0       0.0       0.0       0.0       0.0

                      6         7         8         9        10        11   
                 -10.09616 -10.08905 -10.08862 -10.08860  -1.05216  -1.02062
                   2.00000   2.00000   2.00000   2.00000   2.00000   2.00000
                  --------  --------  --------  --------  --------  --------
 0 C  s               0.0       0.0       0.2      99.2       4.3       0.2
 0 C  pz              0.0       0.0       0.0       0.0       0.5       0.0
 0 C  px              0.0       0.0       0.0       0.0       3.3       1.2
 0 C  py              0.1       0.0       0.0       0.0       0.3       0.6
 0 C  dxz             0.0       0.0       0.0       0.0       0.2       0.0
 0 C  dx2y2           0.0       0.0       0.0       0.0       0.2       0.0
 1 C  s              99.3       0.0       0.0       0.0       1.1       7.8
 1 C  pz              0.0       0.0       0.0       0.0       0.0       2.1
 1 C  px              0.0       0.0       0.0       0.0       0.4       3.4
 1 C  py              0.0       0.0       0.1       0.1       0.1       0.4
 1 C  dxz             0.0       0.0       0.0       0.0       0.0       0.3
 1 C  dx2y2           0.0       0.0       0.0       0.0       0.0       0.2
 2 H  s               0.0       0.0       0.0       0.0       0.1       0.5
 3 C  s               0.0       2.5      96.7       0.2       0.9       4.8
 3 C  pz              0.0       0.0       0.0       0.0       0.1       0.2
 3 C  px              0.0       0.1       0.0       0.0       0.2       2.0
 3 C  py              0.0       0.0       0.0       0.0       0.2       0.6
 4 H  s               0.0       0.0       0.0       0.0       0.1       0.3
 5 C  s               0.0      96.8       2.5       0.0       2.4       0.6
 5 C  pz              0.0       0.0       0.0       0.0       0.3       0.1
 5 C  px              0.0       0.0       0.1       0.0       0.2       0.5
 5 C  py              0.0       0.0       0.0       0.0       1.1       0.5
 6 H  s               0.0       0.0       0.0       0.0       0.1       0.0
 7 C  s               0.0       0.0       0.0       0.0      13.5       0.4
 7 C  pz              0.0       0.0       0.0       0.0       1.3       0.2
 7 C  px              0.0       0.0       0.0       0.0       1.0       0.1
 7 C  py              0.0       0.1       0.0       0.0       1.8       0.3
 7 C  dxz             0.0       0.0       0.0       0.0       0.2       0.0
 7 C  dxy             0.0       0.0       0.0       0.0       0.2       0.0
 8 H  s               0.0       0.0       0.0       0.0       0.9       0.0
 9 O  s               0.0       0.0       0.0       0.0      27.6       0.7
 9 O  pz              0.0       0.0       0.0       0.0       1.1       0.0
 9 O  py              0.0       0.0       0.0       0.0       1.1       0.0
 9 O  dxz             0.0       0.0       0.0       0.1       0.0       0.0
 9 O  dyz             0.0       0.0       0.0       0.0       0.3       0.0
 9 O  dx2y2           0.0       0.0       0.0       0.1       0.0       0.0
 9 O  dxy             0.0       0.0       0.0       0.0       0.3       0.1
10 O  s               0.0       0.0       0.0       0.0      21.9       2.3
10 O  pz              0.0       0.0       0.0       0.0       1.9       0.1
10 O  py              0.0       0.0       0.0       0.0       0.2       0.0
10 O  dz2             0.0       0.0       0.0       0.0       0.5       0.0
10 O  dxz             0.0       0.0       0.0       0.0       0.3       0.0
11 O  s               0.0       0.0       0.0       0.0       1.5       1.3
11 O  px              0.0       0.0       0.0       0.0       0.1       0.1
11 O  py              0.0       0.1       0.0       0.0       0.1       0.0
11 O  dxy             0.0       0.2       0.0       0.0       0.0       0.0
12 O  s               0.0       0.0       0.0       0.0       0.6      14.8
12 O  py              0.0       0.0       0.1       0.0       0.1       0.9
12 O  dz2             0.0       0.0       0.1       0.0       0.0       0.2
12 O  dxy             0.0       0.0       0.1       0.0       0.0       0.0
13 O  s               0.0       0.0       0.0       0.0       0.9      37.5
13 O  px              0.1       0.0       0.0       0.0       0.1       1.8
13 O  dxz             0.2       0.0       0.0       0.0       0.0       0.1
13 O  dx2y2           0.1       0.0       0.0       0.0       0.0       0.1
14 H  s               0.0       0.0       0.0       0.0       0.2       0.0
15 H  s               0.0       0.0       0.0       0.0       0.3       0.0
16 H  s               0.0       0.0       0.0       0.0       3.6       0.4
16 H  px              0.0       0.0       0.0       0.0       0.3       0.0
16 H  py              0.0       0.0       0.0       0.0       0.4       0.0
17 H  s               0.0       0.0       0.0       0.0       0.3       0.3
18 H  s               0.0       0.0       0.0       0.0       0.1       2.7
18 H  px              0.0       0.0       0.0       0.0       0.0       0.5
19 H  s               0.0       0.0       0.0       0.0       0.2       6.4
19 H  pz              0.0       0.0       0.0       0.0       0.0       1.3

                     12        13        14        15        16        17   
                  -1.00356  -0.98587  -0.98111  -0.75065  -0.72698  -0.62243
                   2.00000   2.00000   2.00000   2.00000   2.00000   2.00000
                  --------  --------  --------  --------  --------  --------
 0 C  s               0.8       0.9       2.5       2.9      14.9       6.4
 0 C  pz              0.1       0.3       0.7       0.1       0.1       0.3
 0 C  px              0.1       1.2       1.6       1.6       0.4       2.6
 0 C  py              0.1       0.0       0.0       2.4       0.1       0.1
 0 C  dxz             0.0       0.1       0.1       0.0       0.0       0.1
 0 C  dx2y2           0.0       0.1       0.1       0.1       0.0       0.0
 1 C  s               1.3       0.2       0.1      11.4       4.1       0.4
 1 C  pz              0.5       0.2       0.0       0.0       0.1       0.3
 1 C  px              1.9       1.6       0.2       4.6       0.6       0.1
 1 C  py              0.9       0.2       0.5       0.2       2.6       6.6
 1 C  dxz             0.1       0.1       0.0       0.1       0.0       0.0
 1 C  dxy             0.0       0.0       0.0       0.0       0.1       0.2
 2 H  s               0.1       0.0       0.0       2.0       0.8       0.2
 2 H  pz              0.0       0.0       0.0       0.2       0.1       0.0
 3 C  s               2.8       1.8       0.2      13.1       0.2      10.1
 3 C  pz              0.2       0.0       0.1       0.6       0.1       0.4
 3 C  px              0.5       1.8       0.7       0.9       1.9       0.1
 3 C  py              3.8       2.5       0.6       4.9       0.2       0.1
 3 C  dxy             0.2       0.2       0.0       0.1       0.0       0.0
 4 H  s               0.2       0.1       0.0       2.1       0.0       3.0
 4 H  pz              0.0       0.0       0.0       0.2       0.0       0.3
 5 C  s               5.1       1.7       1.3       7.6       6.6       0.6
 5 C  pz              0.6       0.2       0.1       0.2       0.0       0.6
 5 C  px              0.5       2.8       0.6       3.2       0.1       7.3
 5 C  py              3.6       1.6       1.0       1.5       3.0       2.1
 5 C  dxz             0.0       0.0       0.0       0.1       0.0       0.1
 5 C  dxy             0.2       0.2       0.1       0.0       0.1       0.0
 6 H  s               0.3       0.1       0.1       1.3       1.3       0.2
 6 H  pz              0.0       0.0       0.0       0.1       0.1       0.0
 7 C  s               0.1       0.1       0.1       0.4      10.3       5.1
 7 C  pz              0.1       1.6       7.5       0.0       2.4       0.1
 7 C  px              0.1       0.9       2.8       0.8       0.3       0.6
 7 C  py              1.7       1.6       0.3       3.7       0.9       3.6
 7 C  dz2             0.0       0.1       0.7       0.0       0.1       0.0
 7 C  dxy             0.0       0.1       0.1       0.2       0.0       0.1
 8 H  s               0.0       0.0       0.0       0.0       2.5       2.0
 8 H  px              0.0       0.0       0.0       0.0       0.2       0.1
 9 O  s               2.6       8.4      16.8       3.7       0.0       3.4
 9 O  pz              0.1       0.1       0.2       0.1       0.3       0.3
 9 O  px              0.1       0.2       0.6       0.7      11.0       0.3
 9 O  py              0.0       0.1       0.1       0.3       3.7       0.4
 9 O  dz2             0.0       0.0       0.1       0.2       0.1       0.3
 9 O  dxz             0.0       0.1       0.4       0.2       0.7       0.2
 9 O  dx2y2           0.0       0.0       0.0       0.0       1.5       0.1
 9 O  dxy             0.0       0.0       0.1       0.1       0.4       0.5
10 O  s               0.1       5.8      29.9       0.1       2.1       0.6
10 O  pz              0.0       0.1       0.4       0.1       3.0       4.2
10 O  px              0.0       0.1       0.3       0.2       0.6       0.7
10 O  py              0.0       0.0       0.4       0.3       0.9       2.1
10 O  dz2             0.0       0.0       0.0       0.0       1.1       0.5
10 O  dyz             0.1       0.1       0.0       0.2       0.1       0.2
11 O  s              25.2      18.7      11.7       2.3       1.8       0.0
11 O  pz              0.1       0.0       0.0       0.1       0.1       0.2
11 O  px              1.3       0.7       0.5       0.3       0.1       0.4
11 O  py              0.1       0.0       0.0       1.7       2.7       2.7
11 O  dz2             0.1       0.0       0.0       0.1       0.1       0.0
11 O  dx2y2           0.0       0.1       0.0       0.0       0.1       0.7
11 O  dxy             0.1       0.0       0.0       0.6       0.5       0.0
12 O  s              15.9      23.1       5.1       3.4       0.0       1.9
12 O  pz              0.0       0.1       0.0       0.0       0.0       0.1
12 O  px              0.0       0.2       0.1       2.0       0.2       7.9
12 O  py              0.6       0.7       0.1       1.9       0.0       4.0
12 O  dz2             0.1       0.0       0.0       0.2       0.0       0.1
12 O  dyz             0.0       0.0       0.0       0.0       0.0       0.1
12 O  dx2y2           0.1       0.0       0.0       0.6       0.0       0.4
12 O  dxy             0.1       0.0       0.0       0.6       0.1       0.6
13 O  s              14.3       6.8       0.0       2.9       1.2       0.1
13 O  pz              0.1       0.1       0.0       1.7       1.0       0.7
13 O  px              0.5       0.2       0.0       1.7       0.8       0.1
13 O  py              0.0       0.0       0.0       0.0       0.0       0.3
13 O  dz2             0.0       0.0       0.0       0.1       0.1       0.0
13 O  dxz             0.0       0.0       0.0       0.4       0.2       0.1
13 O  dx2y2           0.0       0.0       0.0       0.6       0.2       0.0
13 O  dxy             0.0       0.0       0.0       0.0       0.1       0.5
14 H  s               0.0       0.1       0.2       0.4       3.4       2.4
14 H  py              0.0       0.0       0.0       0.0       0.2       0.1
15 H  s               0.0       0.0       0.1       0.5       2.6       2.0
15 H  pz              0.0       0.0       0.0       0.0       0.2       0.1
16 H  s               0.0       1.0       5.3       0.2       1.3       1.6
16 H  px              0.0       0.1       0.5       0.0       0.1       0.1
16 H  py              0.0       0.1       0.7       0.0       0.2       0.1
17 H  s               4.5       3.0       2.0       0.8       1.0       0.7
17 H  px              0.2       0.2       0.1       0.1       0.1       0.0
17 H  py              0.7       0.5       0.3       0.1       0.1       0.0
18 H  s               2.4       4.0       0.9       1.3       0.0       3.0
18 H  px              0.6       0.9       0.2       0.3       0.0       0.3
19 H  s               2.5       1.2       0.0       1.1       0.5       0.2
19 H  pz              0.5       0.3       0.0       0.2       0.1       0.0

                     18        19        20        21        22        23   
                  -0.61750  -0.56472  -0.52178  -0.51327  -0.49566  -0.47217
                   2.00000   2.00000   2.00000   2.00000   2.00000   2.00000
                  --------  --------  --------  --------  --------  --------
 0 C  s               4.2       0.8       1.9       0.6       0.0       0.0
 0 C  pz              0.2       3.5       3.2       0.3       0.5      13.0
 0 C  px              0.9       0.1       5.6       0.6       0.1       0.1
 0 C  py              3.3       0.0       0.1       5.9       0.7       0.1
 0 C  dxz             0.0       0.0       0.2       0.0       0.0       0.1
 0 C  dx2y2           0.0       0.0       0.2       0.0       0.0       0.0
 1 C  s              10.1       0.3       0.0       0.1       0.0       0.4
 1 C  pz              1.5       4.0       0.6       0.8       5.6       4.3
 1 C  px              1.2       2.1       2.5       7.8       0.1       4.0
 1 C  py              1.5       0.1       2.7       0.8       1.1       1.7
 1 C  dx2y2           0.0       0.0       0.1       0.0       0.0       0.2
 2 H  s               4.7       1.5       0.3       0.2       1.3       1.8
 2 H  pz              0.4       0.1       0.0       0.0       0.0       0.0
 2 H  px              0.0       0.0       0.0       0.0       0.0       0.1
 3 C  s               0.1       1.7       0.0       0.1       1.3       0.3
 3 C  pz              0.1       5.6       0.2       0.0      11.0       0.8
 3 C  px              5.1       0.1       0.0       0.1       2.1       3.0
 3 C  py              1.8       0.2       0.2      12.5       0.7       0.3
 4 H  s               0.2       2.8       0.0       0.0       4.7       0.1
 4 H  pz              0.0       0.2       0.0       0.0       0.2       0.0
 5 C  s               4.7       6.1       0.1       0.1       0.1       0.8
 5 C  pz              0.0       5.9       3.2       0.1       1.5       0.1
 5 C  px              0.3       0.0       0.5       0.1       8.9       0.4
 5 C  py              0.1       0.5       0.0       1.5       0.9       0.6
 5 C  dxy             0.0       0.0       0.0       0.1       0.1       0.0
 6 H  s               1.1       5.3       0.8       0.1       1.4       0.1
 6 H  pz              0.1       0.4       0.0       0.0       0.1       0.0
 7 C  s               1.2       2.4       1.1       0.6       0.1       0.5
 7 C  pz              0.8       2.9      10.9       0.2       1.8       0.6
 7 C  px              0.6       0.1       2.0       4.7       3.5       9.1
 7 C  py              3.5       0.6       2.8       0.2       0.1       2.1
 7 C  dz2             0.0       0.1       0.1       0.0       0.1       0.0
 7 C  dx2y2           0.0       0.0       0.0       0.0       0.0       0.1
 8 H  s               1.0       0.3       4.8       1.8       1.5       4.1
 8 H  pz              0.0       0.0       0.0       0.1       0.0       0.1
 8 H  px              0.1       0.0       0.2       0.0       0.0       0.1
 9 O  s               0.1       1.2       0.8       0.1       0.6       0.2
 9 O  pz              0.4       2.0       0.3       0.1       0.3       4.5
 9 O  px              8.3       0.8       7.5       0.2       0.2       5.6
 9 O  py              2.1       0.4       2.3       2.8       2.3       2.5
 9 O  dz2             0.0       0.1       0.3       0.0       0.0       0.9
 9 O  dxz             0.3       0.0       0.2       0.0       0.1       0.2
 9 O  dyz             0.0       0.3       0.2       0.1       0.1       0.0
 9 O  dx2y2           0.0       0.1       0.5       0.5       0.1       0.3
 9 O  dxy             0.0       0.1       0.2       1.0       0.2       0.1
10 O  s               0.2       0.6       0.6       0.2       0.2       0.0
10 O  pz              0.5       9.6       2.5       3.2       1.2       1.6
10 O  px              0.0       5.1       6.6       0.0       2.8       2.8
10 O  py              0.1       3.5       9.0       0.4       0.6       1.7
10 O  dz2             0.3       0.3       0.2       0.2       0.0       0.2
10 O  dxz             0.0       0.0       0.1       0.2       0.1       0.5
10 O  dyz             0.2       0.1       0.1       0.0       0.0       0.1
10 O  dx2y2           0.0       0.1       0.0       0.0       0.0       0.0
11 O  s               1.3       0.5       0.0       0.3       0.4       0.3
11 O  pz              0.2       2.1       0.1       0.0       0.4       0.1
11 O  px              0.6       0.3       0.0       0.4       1.4       1.7
11 O  py              3.9       6.4       2.7       0.4      18.9       0.7
11 O  dxz             0.0       0.4       0.0       0.0       0.1       0.0
11 O  dyz             0.0       0.3       0.2       0.0       0.0       0.0
11 O  dx2y2           0.0       0.0       0.0       0.1       0.0       0.2
11 O  dxy             0.5       0.4       0.1       0.0       0.1       0.2
12 O  s               0.1       0.1       0.1       0.1       0.8       0.3
12 O  pz              0.0       0.7       0.0       0.0       2.7       0.0
12 O  px              1.3       0.5       1.9      23.6       2.2       0.0
12 O  py              0.0       0.3       0.0       2.4       1.3       2.2
12 O  dxz             0.0       0.1       0.0       0.1       0.1       0.0
12 O  dyz             0.0       0.3       0.0       0.0       0.6       0.0
12 O  dx2y2           0.2       0.1       0.0       0.1       0.2       0.3
12 O  dxy             0.3       0.0       0.0       0.1       0.0       0.0
13 O  s               1.0       0.2       0.4       0.4       0.4       0.1
13 O  pz             12.5       4.0       5.2      10.1       0.1      11.1
13 O  px              4.0       0.0       0.1       0.2       2.3       2.7
13 O  py              0.7       0.1       1.6       0.1       0.9       0.1
13 O  dz2             0.1       0.1       0.0       0.0       0.3       0.3
13 O  dxz             0.9       0.2       0.0       0.1       0.1       0.1
13 O  dx2y2           0.3       0.0       0.0       0.0       0.0       0.0
13 O  dxy             0.1       0.0       0.3       0.1       0.2       0.2
14 H  s               1.9       0.0       1.0       2.7       0.0       0.6
15 H  s               1.7       1.6       2.4       0.1       0.2       4.4
15 H  pz              0.1       0.1       0.1       0.0       0.0       0.1
16 H  s               0.0       4.6       4.4       0.4       0.9       0.0
16 H  px              0.0       0.1       0.1       0.0       0.0       0.1
16 H  py              0.0       0.3       0.1       0.0       0.0       0.0
17 H  s               1.1       1.7       0.7       0.1       5.1       0.1
17 H  px              0.1       0.1       0.0       0.0       0.1       0.0
18 H  s               0.2       0.1       0.5       6.1       0.4       0.0
18 H  px              0.0       0.0       0.0       0.3       0.0       0.0
19 H  s               4.1       0.8       1.4       2.3       0.2       3.0
19 H  pz              0.3       0.0       0.0       0.0       0.0       0.1
19 H  px              0.1       0.0       0.0       0.0       0.0       0.1

                     24        25        26        27        28        29   
                  -0.44723  -0.44605  -0.41852  -0.40421  -0.39692  -0.37751
                   2.00000   2.00000   2.00000   2.00000   2.00000   2.00000
                  --------  --------  --------  --------  --------  --------
 0 C  s               0.1       0.2       0.2       0.4       0.4       0.1
 0 C  pz              7.4       0.1       0.3       1.7       0.2       1.9
 0 C  px              4.3       0.3       2.8       0.9       8.5       0.1
 0 C  py              2.6       7.8       3.0       1.2       8.3       1.4
 0 C  dxz             0.0       0.0       0.1       0.1       0.1       0.0
 0 C  dxy             0.0       0.1       0.0       0.2       0.1       0.0
 1 C  s               0.0       1.5       0.2       0.6       0.2       0.2
 1 C  pz              0.6       1.4       3.1       9.9       0.8       2.5
 1 C  px              0.0       2.4       0.2       0.4       0.3       0.1
 1 C  py             10.4       1.4       0.0       1.7       0.4       1.7
 1 C  dxz             0.0       0.0       0.1       0.1       0.0       0.1
 1 C  dx2y2           0.0       0.1       0.0       0.0       0.2       0.0
 2 H  s               0.1       1.5       1.8       3.1       0.4       0.9
 2 H  py              0.1       0.0       0.0       0.0       0.0       0.0
 3 C  s               0.0       0.6       0.5       0.2       0.0       0.1
 3 C  pz              6.7       1.8       0.0       0.4       0.1      13.6
 3 C  px              6.0       1.4       5.7       0.1       2.8       0.4
 3 C  py              0.6       1.2       1.9       0.2       0.4       0.9
 3 C  dz2             0.0       0.1       0.1       0.0       0.0       0.2
 3 C  dx2y2           0.0       0.2       0.3       0.0       0.0       0.0
 4 H  s               2.8       2.0       0.5       0.1       0.1       6.4
 4 H  pz              0.1       0.1       0.0       0.0       0.0       0.1
 5 C  s               0.1       0.7       0.3       0.2       0.0       0.1
 5 C  pz              8.2       0.5       3.5       5.9       1.9      10.3
 5 C  px              0.1       2.7       4.2       0.2       0.3       0.6
 5 C  py              1.3       5.3       6.3       2.6       0.3       1.1
 5 C  dz2             0.0       0.1       0.0       0.1       0.0       0.1
 5 C  dxy             0.0       0.3       0.2       0.0       0.0       0.0
 6 H  s               3.5       1.2       0.2       4.1       0.9       4.9
 6 H  pz              0.1       0.0       0.0       0.1       0.0       0.1
 7 C  s               0.0       0.5       0.1       0.3       0.2       0.1
 7 C  pz              1.5       1.6       1.5       1.3       0.1       0.7
 7 C  px              1.2       0.5       1.7       1.3       6.7       0.1
 7 C  py              1.1       2.7       6.7       0.1       0.1       1.3
 7 C  dz2             0.0       0.0       0.0       0.3       0.1       0.0
 7 C  dyz             0.1       0.0       0.0       0.0       0.1       0.2
 7 C  dx2y2           0.0       0.0       0.0       0.0       0.2       0.0
 7 C  dxy             0.0       0.2       0.0       0.0       0.0       0.0
 8 H  s               0.0       1.5       0.0       0.0       3.3       0.1
 8 H  pz              0.0       0.0       0.0       0.0       0.1       0.0
 9 O  s               0.2       0.1       0.4       1.9       0.5       1.1
 9 O  pz              6.9       0.7       0.2       5.3       5.4       2.7
 9 O  px              0.1       1.3       7.7       0.0       8.7       1.3
 9 O  py              2.9       1.7       4.8       2.9       0.3       2.6
 9 O  dz2             0.4       0.2       0.0       0.0       0.0       0.0
 9 O  dxz             0.1       0.1       0.2       0.1       0.0       0.2
 9 O  dyz             0.0       0.2       0.0       0.0       0.0       0.0
 9 O  dx2y2           0.0       0.1       0.6       0.0       0.1       0.1
 9 O  dxy             0.1       0.9       0.0       0.1       0.2       0.0
10 O  s               0.3       0.0       0.6       0.7       3.4       0.3
10 O  pz              4.5       0.6       4.4       1.6       5.7       3.3
10 O  px              0.3       0.9       0.0       0.4       8.9       0.5
10 O  py              0.7       0.0       0.8       3.9       4.6       3.1
10 O  dxz             0.0       0.0       0.1       0.2       0.1       0.0
10 O  dyz             0.2       0.1       0.3       0.1       0.0       0.2
10 O  dxy             0.4       0.1       0.1       0.0       0.1       0.0
[...]
 0 C  s               0.0       0.0       0.0      74.1       1.0      17.2
 1 C  s               0.0       0.0       0.0       4.1      85.1       0.2
 1 C  px              0.1       0.2       0.0       0.0       0.0       0.0
 3 C  s               0.1       0.0       0.0       8.0       0.1      73.8
 3 C  px              0.1       0.0       0.1       0.0       0.0       0.0
 3 C  py              0.8       0.2       0.3       0.0       0.0       0.0
 3 C  dyz             0.1       0.0       0.0       0.0       0.0       0.0
 3 C  dx2y2           0.4       0.0       0.3       0.0       0.0       0.0
 3 C  dxy             0.6       0.1       0.2       0.0       0.0       0.0
 5 C  s               0.0       0.1       0.1      12.3      10.3       7.1
 5 C  pz              0.1       0.0       0.0       0.0       0.0       0.0
 5 C  px              0.0       0.3       0.5       0.0       0.0       0.0
 5 C  py              0.2       0.1       0.7       0.0       0.0       0.0
 5 C  dxz             0.0       0.0       0.2       0.0       0.0       0.0
 5 C  dxy             0.3       0.3       0.8       0.0       0.0       0.0
 7 C  s               0.0       0.3       0.1       1.1       3.2       1.3
 7 C  pz              0.4       1.2       0.3       0.0       0.0       0.0
 7 C  dz2             0.4       1.2       0.2       0.0       0.0       0.0
 7 C  dxz             0.0       0.2       0.0       0.0       0.0       0.0
10 O  s               2.0       3.0       1.0       0.0       0.0       0.0
10 O  pz              0.8       3.2       0.5       0.0       0.0       0.0
10 O  px              1.5       5.1       1.0       0.0       0.0       0.0
10 O  py              2.0       6.7       1.3       0.0       0.0       0.0
10 O  dz2             3.5      10.2       1.9       0.0       0.0       0.0
10 O  dyz             0.2       0.4       0.1       0.0       0.0       0.0
10 O  dx2y2           0.3       0.9       0.2       0.0       0.0       0.0
10 O  dxy             4.9      12.1       2.4       0.0       0.0       0.0
11 O  s               1.2       1.6       3.8       0.0       0.0       0.0
11 O  pz              0.1       0.2       0.4       0.0       0.0       0.0
11 O  px              0.2       0.7       1.4       0.0       0.0       0.0
11 O  py              2.0       5.2      10.2       0.0       0.0       0.0
11 O  dz2             0.6       1.5       2.8       0.0       0.0       0.0
11 O  dxz             0.1       0.3       0.5       0.0       0.0       0.0
11 O  dx2y2           0.2       0.2       0.8       0.0       0.0       0.0
11 O  dxy             4.0       9.0      17.8       0.0       0.0       0.0
12 O  s               3.7       0.1       3.1       0.0       0.0       0.0
12 O  px             13.1       1.1       6.1       0.0       0.0       0.0
12 O  py              0.2       0.1       0.0       0.0       0.0       0.0
12 O  dz2             2.7       0.1       1.4       0.0       0.0       0.0
12 O  dxz             1.6       0.1       0.9       0.0       0.0       0.0
12 O  dx2y2          15.7       1.0       7.3       0.0       0.0       0.0
12 O  dxy             4.0       0.4       1.6       0.0       0.0       0.0
13 O  s               0.4       0.3       0.1       0.0       0.1       0.0
13 O  pz              0.4       1.0       0.0       0.0       0.0       0.0
13 O  dz2             0.5       1.2       0.0       0.0       0.0       0.0
13 O  dxz             0.1       0.5       0.0       0.0       0.0       0.0
13 O  dyz             0.1       0.2       0.0       0.0       0.0       0.0
16 H  s               3.1       8.5       1.7       0.0       0.0       0.0
16 H  pz              0.1       0.2       0.0       0.0       0.0       0.0
16 H  px              1.4       3.4       0.7       0.0       0.0       0.0
16 H  py              2.1       5.8       1.1       0.0       0.0       0.0
17 H  s               1.6       3.8       7.6       0.0       0.0       0.0
17 H  px              0.6       1.3       2.9       0.0       0.0       0.0
17 H  py              1.3       3.0       5.8       0.0       0.0       0.0
18 H  s               8.5       0.5       4.1       0.0       0.0       0.0
18 H  pz              0.2       0.0       0.1       0.0       0.0       0.0
18 H  px              9.2       0.6       4.6       0.0       0.0       0.0
18 H  py              0.2       0.0       0.1       0.0       0.0       0.0
19 H  s               0.3       0.6       0.0       0.0       0.0       0.0
19 H  pz              0.3       0.7       0.0       0.0       0.0       0.0

                    258       259       260       261       262       263   
                  22.25701  22.31706  43.68050  43.75108  43.78335  43.85683
                   0.00000   0.00000   0.00000   0.00000   0.00000   0.00000
                  --------  --------  --------  --------  --------  --------
 0 C  s               7.0       0.2       0.0       0.0       0.0       0.0
 1 C  s               3.6       6.6       0.0       0.1       0.0       0.0
 3 C  s              17.7       0.0       0.0       0.0       0.0       0.1
 5 C  s              64.4       5.5       0.0       0.0       0.0       0.1
 7 C  s               6.8      87.2       0.0       0.0       0.0       0.0
 9 O  s               0.0       0.1       2.1       9.5      16.4      41.5
10 O  s               0.0       0.0      14.0      13.9      33.8       1.1
11 O  s               0.0       0.0      24.0      15.3       3.1      35.0
12 O  s               0.0       0.0      43.6       0.9      29.3      20.0
13 O  s               0.0       0.0      16.3      60.3      17.3       2.1

                    264   
                  43.87892
                   0.00000
                  --------
 7 C  s               0.1
 9 O  s              30.3
10 O  s              37.0
11 O  s              22.5
12 O  s               6.1
13 O  s               3.8


                      *****************************
                      * MAYER POPULATION ANALYSIS *
                      *****************************

  NA   - Mulliken gross atomic population
  ZA   - Total nuclear charge
  QA   - Mulliken gross atomic charge
  VA   - Mayer's total valence
  BVA  - Mayer's bonded valence
  FA   - Mayer's free valence

  ATOM       NA         ZA         QA         VA         BVA        FA
  0 C      6.2477     6.0000    -0.2477     3.7354     3.7354     0.0000
  1 C      6.1064     6.0000    -0.1064     3.7653     3.7653     0.0000
  2 H      0.8321     1.0000     0.1679     0.9547     0.9547     0.0000
  3 C      5.9692     6.0000     0.0308     3.5700     3.5700     0.0000
  4 H      0.8211     1.0000     0.1789     0.9482     0.9482     0.0000
  5 C      6.0542     6.0000    -0.0542     3.8109     3.8109    -0.0000
  6 H      0.8335     1.0000     0.1665     0.9475     0.9475    -0.0000
  7 C      5.9731     6.0000     0.0269     3.8424     3.8424    -0.0000
  8 H      0.8663     1.0000     0.1337     0.9562     0.9562    -0.0000
  9 O      8.1982     8.0000    -0.1982     1.7416     1.7416    -0.0000
 10 O      8.3873     8.0000    -0.3873     1.8712     1.8712    -0.0000
 11 O      8.4144     8.0000    -0.4144     1.8358     1.8358     0.0000
 12 O      8.4379     8.0000    -0.4379     1.8248     1.8248    -0.0000
 13 O      8.4133     8.0000    -0.4133     1.8612     1.8612    -0.0000
 14 H      0.8418     1.0000     0.1582     0.9519     0.9519     0.0000
 15 H      0.8421     1.0000     0.1579     0.9560     0.9560     0.0000
 16 H      0.6966     1.0000     0.3034     0.9126     0.9126     0.0000
 17 H      0.6801     1.0000     0.3199     0.9050     0.9050     0.0000
 18 H      0.6886     1.0000     0.3114     0.9116     0.9116     0.0000
 19 H      0.6961     1.0000     0.3039     0.9076     0.9076    -0.0000

  Mayer bond orders larger than 0.100000
B(  0-C ,  1-C ) :   0.9075 B(  0-C ,  9-O ) :   0.9504 B(  0-C , 14-H ) :   0.9426 
B(  0-C , 15-H ) :   0.9870 B(  1-C ,  2-H ) :   0.9497 B(  1-C ,  3-C ) :   0.9115 
B(  1-C , 13-O ) :   0.9820 B(  3-C ,  4-H ) :   0.9506 B(  3-C ,  5-C ) :   0.8833 
B(  3-C , 12-O ) :   0.9089 B(  5-C ,  6-H ) :   0.9829 B(  5-C ,  7-C ) :   0.9576 
B(  5-C , 11-O ) :   0.9107 B(  7-C ,  8-H ) :   0.9446 B(  7-C ,  9-O ) :   0.9330 
B(  7-C , 10-O ) :   1.0307 B( 10-O , 16-H ) :   0.8938 B( 11-O , 17-H ) :   0.8744 
B( 12-O , 18-H ) :   0.8734 B( 13-O , 19-H ) :   0.8840 

-------
TIMINGS
-------

Total SCF time: 0 days 0 hours 0 min 25 sec 

Total time                  ....      25.623 sec
Sum of individual times     ....      25.585 sec  ( 99.9%)

SCF preparation             ....       0.058 sec  (  0.2%)
Fock matrix formation       ....      25.061 sec  ( 97.8%)
  Startup                   ....       0.007 sec  (  0.0% of F)
  Split-RI-J                ....       6.307 sec  ( 25.2% of F)
  XC integration            ....      18.703 sec  ( 74.6% of F)
    XC Preparation          ....       0.000 sec  (  0.0% of XC)
    Basis function eval.    ....       2.892 sec  ( 15.5% of XC)
    Density eval.           ....       7.094 sec  ( 37.9% of XC)
    XC-Functional eval.     ....       1.497 sec  (  8.0% of XC)
    XC-Potential eval.      ....       6.937 sec  ( 37.1% of XC)
Diagonalization             ....       0.000 sec  (  0.0%)
Density matrix formation    ....       0.026 sec  (  0.1%)
Total Energy calculation    ....       0.003 sec  (  0.0%)
Population analysis         ....       0.216 sec  (  0.8%)
Orbital Transformation      ....       0.030 sec  (  0.1%)
Orbital Orthonormalization  ....       0.000 sec  (  0.0%)
DIIS solution               ....       0.163 sec  (  0.6%)
  MO trafo                  ....       0.000 sec  (  0.0 % of DIIS)
  Orb grad                  ....       0.000 sec  (  0.0 % of DIIS)
  Energy W gradient         ....       0.000 sec  (  0.0 % of DIIS)
  DIIS error                ....       0.029 sec  ( 17.7 % of DIIS)
  DIIS work                 ....       0.118 sec  ( 72.5 % of DIIS)
  Form Q                    ....       0.000 sec  (  0.0 % of DIIS)
  Form QpQm                 ....       0.000 sec  (  0.0 % of DIIS)
  Exp/Cayley                ....       0.000 sec  (  0.0 % of DIIS)
  Orb update                ....       0.000 sec  (  0.0 % of DIIS)
  Wake-sleep                ....       0.001 sec  (  0.8 % of DIIS)
SOSCF solution              ....       0.027 sec  (  0.1%)
  MO trafo                  ....       0.023 sec  ( 84.2 % of SOSCF)
  Orb grad                  ....       0.000 sec  (  0.2 % of SOSCF)
  Rot update                ....       0.000 sec  (  0.1 % of SOSCF)
  Step                      ....       0.004 sec  ( 15.1 % of SOSCF)
Finished LeanSCF after  25.6 sec

Maximum memory used throughout the entire LEANSCF-calculation: 31.4 MB


-------------------------------------------------------------------------------
                          DFT DISPERSION CORRECTION                            
                                                                               
                                DFTD4 V3.4.0                                   
-------------------------------------------------------------------------------
The R2SCAN3C composite method is recognized
Using three-body term ABC
Active option DFTDOPT                   ...         5   

-------------------------   ----------------
Dispersion correction           -0.006308093
-------------------------   ----------------

------------------   -----------------
gCP correction             0.016431831
------------------   -----------------

-------------------------   --------------------
FINAL SINGLE POINT ENERGY      -572.561117001601
-------------------------   --------------------


------------------------------------------------------------------------------
                              ORCA PROPERTY CALCULATIONS
------------------------------------------------------------------------------

GBWName                                 ... sp.gbw
Number of atoms                         ...     20
Number of basis functions               ...    265
Max core memory                         ...   1024 MB

Electric properties:
Dipole moment                           ... YES
Quadrupole moment                       ...  NO
Static polarizability (Dipole/Dipole)   ...  NO
Static polarizability (Dipole/Quad.)    ...  NO
Static polarizability (Quad./Quad.)     ...  NO
Static polarizability (Velocity)        ...  NO

Atomic electric properties:
Dipole moment                           ...  NO
Quadrupole moment                       ...  NO
Static polarizability                   ...  NO

Choice of electric origin               ... Center of mass
Position of electric origin             ...     0.000003     0.000007    -0.000002

General magnetic properties:
Magnetizability                         ...  NO

EPR properties:
g-Tensor (aka g-matrix)                 ...  NO
Zero-Field splitting spin-orbit         ...  NO
Zero-field splitting spin-spin          ...  NO
Hyperfine couplings                     ...  NO (   0 nuclei)
Quadrupole couplings                    ...  NO (   0 nuclei)
Contact density                         ...  NO (   0 nuclei)

NMR properties:
Chemical shifts                         ...  NO (   0 nuclei)
Spin-rotation constants                 ...  NO (   0 nuclei)
Spin-spin couplings                     ...  NO (   0 nuclei,    0 pairs)

Choice of magnetic origin               ... GIAO
Position of magnetic origin             ...     0.000000     0.000000     0.000000

Properties with geometric perturbations:
SCF Hessian                             ...  NO
IR spectrum                             ...  NO
VCD spectrum                            ...  NO
X-ray spectroscopy properties:
SCF XES/XAS/RIXS spectra                ...  NO


-------------
DIPOLE MOMENT
-------------

Method             : SCF
Type of density    : Electron Density
Multiplicity       :   1
Irrep              :   0
Energy             :  -572.5712407391913530 Eh
Relativity type    : 
Basis              : AO
                                X                 Y                 Z
Electronic contribution:     -1.302499442      -0.819613799      -0.212003717
Nuclear contribution   :      1.566480680       1.430192763       0.641656159
                        -----------------------------------------
Total Dipole Moment    :      0.263981239       0.610578964       0.429652443
                        -----------------------------------------
Magnitude (a.u.)       :      0.791892661
Magnitude (Debye)      :      2.012831183



--------------------
Rotational spectrum 
--------------------
 
Rotational constants in cm-1:             0.056388             0.045377             0.029362 
Rotational constants in MHz :          1690.466959          1360.353506           880.256061 

Dipole components along the rotational axes: 
x,y,z [a.u.] :     0.284457    -0.612900     0.412955 
x,y,z [Debye]:     0.723032    -1.557868     1.049648 

 

Dipole moment calculation done in   0.0 sec 

Maximum memory used throughout the entire PROP-calculation: 19.8 MB

--------------------------------
SUGGESTED CITATIONS FOR THIS RUN
--------------------------------

Below you find a list of papers that are relevant to this ORCA run
We neither can nor want to force you to cite these papers, but we appreciate if you do
You receive ORCA, which is the product of decades of hard work by many enthusiastic individuals, for free
The only thing we kindly ask in return is that you cite our papers,
We deeply appreciate it, if you show your appreciation for ORCA by not just citing the generic ORCA reference.

Please note that relegating all ORCA citations to the supporting information does *not* help us.
SI sections are not indexed - citations you put there will not count into any citation statistics
But we need these citations in order to attract the funding resources that allow us to do what we are doing

Therefore, if you are a happy ORCA user, please consider citing a few of the papers listed below in the main body of your paper

In addition to the list printed below, the program has created the file sp.bibtex that contains the list in bibtex format
You can import this file easily into all common literature databanks and citation aid programs


List of essential papers. We consider these as the minimum necessary citations

  1. Neese,F.
     Software update: the ORCA program system, version 5.0
     WIRES Comput. Molec. Sci., 2022 12(1)e1606
     doi.org/10.1002/wcms.1606
  2. Grimme,S.; Hansen,A.; Ehlert,S.; Mewes,J.
     r2SCAN-3c: A 'Swiss army knife' composite electronic-structure method
     J. Chem. Phys., 2021 154 064103
     doi.org/10.1063/5.0040021

List of papers to cite with high priority. The work reported in these papers was absolutely
necessary for this run to complete.
Our perspective: the developers of density functionals and basis sets usually get cited in chemistry papers
Good! But without the algorithms to do something with them, the functionals or basis sets would not do anything.
Hence, in our opinion, the algorithm design and method developments papers are equally worthy of getting cited

  1. Neese,F.
     An improvement of the resolution of the identity approximation for the formation of the Coulomb matrix
     J. Comp. Chem., 2003 24(14)1740-1747
     doi.org/10.1002/jcc.10318
  2. Neese,F.
     The SHARK Integral Generation and Digestion System
     J. Comp. Chem., 2022  1-16
     doi.org/10.1002/jcc.26942
  3. Lehtola,S.; Steigemann,C.; Oliveira,M.; Marques,M.
     Recent developments in Libxc - A comprehensive library of functionals for density functional theory
     Software X, 2018 7 
     doi.org/10.1016/j.softx.2017.11.002
  4. Caldeweyher,E.; Bannwarth,C.; Grimme,S.
     Extension of the D3 dispersion coefficient model
     J. Chem. Phys., 2017 147 034112
     doi.org/10.1063/1.4993215
  5. Caldeweyher,E.; Ehlert,S.; Hansen,A.; Neugebauer,H.; Spicher,S.; Bannwarth,C.; Grimme,S.
     A generally applicable atomic-charge dependent London dispersion correction
     J. Chem. Phys., 2019 150 154122
     doi.org/10.1063/1.5090222
  6. Caldeweyher,E.; Mewes,J.; Ehlert,S.; Grimme,S.
     Extension and evaluation of the D4 London-dispersion model for periodic systems
     Phys. Chem. Chem. Phys., 2020 22(16)8499-8512
     doi.org/10.1039/D0CP00502A
  7. Wittmann,L.; Gordiy,I.; Friede,M.; Helmich-Paris,B.; Grimme,S.; Hansen,A.; Bursch,M.
     Extension of the D3 and D4 London Dispersion Corrections to the full Actinides Series
     Phys. Chem. Chem. Phys., 2024 26(32)21379-21394
     doi.org/https://doi.org/10.1039/D4CP01514B 

List of suggested additional citations. These are papers that are important in the 'surrounding' of 
of this run, or papers that preceded the highly important papers. If you like your results we are grateful for a citation.

  1. Neese,F.
     The ORCA program system
     WIRES Comput. Molec. Sci., 2012 2(1)73-78
     doi.org/10.1002/wcms.81
  2. Neese,F.
     Software update: the ORCA program system, version 4.0
     WIRES Comput. Molec. Sci., 2018 8(1)1-6
     doi.org/10.1002/wcms.1327
  3. Neese,F.; Wennmohs,F.; Becker,U.; Riplinger,C.
     The ORCA quantum chemistry program package
     J. Chem. Phys., 2020 152 Art. No. L224108
     doi.org/10.1063/5.0004608

List of optional additional citations

  1. Neese,F.
     Approximate second-order SCF convergence for spin unrestricted wavefunctions
     Chem. Phys. Lett., 2000 325(1-3)93-98
     doi.org/10.1016/s0009-2614(00)00662-x

Timings for individual modules:

Sum of individual times          ...       26.890 sec (=   0.448 min)
Startup calculation              ...        1.077 sec (=   0.018 min)   4.0 %
SCF iterations                   ...       25.763 sec (=   0.429 min)  95.8 %
Property calculations            ...        0.049 sec (=   0.001 min)   0.2 %
                             ****ORCA TERMINATED NORMALLY****
TOTAL RUN TIME: 0 days 0 hours 0 minutes 26 seconds 984 msec
