 Entering Gaussian System
 *********************************************
 Gaussian 98:
 frequency output generated by the xtb code
 *********************************************
                         Standard orientation:
 --------------------------------------------------------------------
  Center     Atomic     Atomic              Coordinates (Angstroms)
  Number     Number      Type              X           Y           Z
 --------------------------------------------------------------------
    1          6             0        1.855598   -1.466303   -0.000550
    2          6             0        0.565217   -0.704389   -0.000027
    3          6             0       -0.647612   -1.386305   -0.000053
    4          6             0       -1.833190   -0.673416    0.000150
    5          7             0       -1.878501    0.648157    0.000409
    6          6             0       -0.730241    1.297811    0.000612
    7          6             0        0.523634    0.692238    0.000456
    8          6             0        1.748063    1.557509    0.000159
    9          1             0        1.663833   -2.536446   -0.002054
   10          1             0        2.446222   -1.220797   -0.882398
   11          1             0        2.445443   -1.223283    0.882533
   12          1             0       -0.663208   -2.466311   -0.000333
   13          1             0       -2.790969   -1.176910   -0.000001
   14          1             0       -0.808495    2.378364    0.000979
   15          1             0        1.752046    2.194141   -0.883970
   16          1             0        1.743237    2.207466    0.874462
   17          1             0        2.661942    0.973022    0.009038
 --------------------------------------------------------------------
     1 basis functions        1 primitive gaussians
     1 alpha electrons        1 beta electrons

 Harmonic frequencies (cm**-1), IR intensities (km*mol⁻¹),
 Raman scattering activities (A**4/amu), Raman depolarization ratios,
 reduced masses (AMU), force constants (mDyne/A) and normal coordinates:
                      1                      2                      3
                        a                      a                      a 
 Frequencies --  -130.4125               145.5740               168.3742
 Red. masses --     1.0242                 2.1313                 1.2621
 Frc consts  --     0.0000                 0.0000                 0.0000
 IR Inten    --     0.3520                 1.2243                 0.0210
 Raman Activ --     0.0000                 0.0000                 0.0000
 Depolar     --     0.0000                 0.0000                 0.0000
 Atom AN      X      Y      Z        X      Y      Z        X      Y      Z
   1   6    -0.00  -0.00   0.08     0.00   0.00  -0.32     0.00  -0.00   0.26
   2   6     0.00  -0.00   0.02    -0.00   0.00   0.01    -0.00   0.00  -0.10
   3   6     0.00   0.00   0.02    -0.00  -0.00   0.31     0.00   0.00  -0.18
   4   6     0.00   0.00   0.01    -0.00  -0.00   0.29     0.00  -0.00  -0.02
   5   7     0.00   0.00  -0.03    -0.00  -0.00  -0.24    -0.00  -0.00   0.21
   6   6     0.00  -0.00  -0.08    -0.00   0.00  -0.35    -0.00   0.00   0.09
   7   6     0.00  -0.00  -0.06    -0.00  -0.00  -0.05    -0.00   0.00  -0.10
   8   6    -0.00   0.00   0.01     0.00  -0.00   0.32     0.00   0.00  -0.21
   9   1    -0.00  -0.00   0.09     0.00   0.00  -0.39     0.00   0.00  -0.36
  10   1    -0.02  -0.06  -0.01     0.07   0.23   0.02     0.29   0.31   0.36
  11   1     0.02   0.06  -0.01    -0.07  -0.23   0.02    -0.29  -0.31   0.36
  12   1    -0.00   0.00   0.01     0.00  -0.00   0.15     0.00   0.00  -0.08
  13   1     0.00   0.00   0.01    -0.00  -0.00   0.17     0.00  -0.00  -0.00
  14   1     0.00  -0.00  -0.04    -0.00   0.00  -0.20    -0.00  -0.00   0.06
  15   1    -0.27   0.41   0.30     0.06   0.06   0.14    -0.05   0.03  -0.04
  16   1     0.27  -0.41   0.31    -0.06  -0.06   0.14     0.04  -0.03  -0.04
  17   1     0.00  -0.00  -0.54    -0.00  -0.00   0.12     0.00  -0.00  -0.12
                      4                      5                      6
                        a                      a                      a 
 Frequencies --   238.3825               308.9149               387.6685
 Red. masses --     2.9623                 2.6951                 2.8631
 Frc consts  --     0.0000                 0.0000                 0.0000
 IR Inten    --     0.0576                 0.1212                 0.0074
 Raman Activ --     0.0000                 0.0000                 0.0000
 Depolar     --     0.0000                 0.0000                 0.0000
 Atom AN      X      Y      Z        X      Y      Z        X      Y      Z
   1   6     0.00   0.00  -0.20    -0.15  -0.53  -0.00     0.30   0.17  -0.00
   2   6    -0.00  -0.00   0.34     0.13  -0.03  -0.00    -0.04  -0.36   0.00
   3   6    -0.00  -0.00   0.33     0.06   0.06   0.00    -0.21  -0.10  -0.00
   4   6     0.00   0.00  -0.31     0.06   0.02  -0.00    -0.07   0.22   0.00
   5   7     0.00   0.00  -0.32     0.07   0.02  -0.00     0.09   0.24   0.00
   6   6     0.00  -0.00   0.30     0.08  -0.05   0.00     0.22  -0.07  -0.00
   7   6     0.00  -0.00   0.33     0.12  -0.01   0.00     0.03  -0.36   0.00
   8   6    -0.00  -0.00  -0.25    -0.25   0.51   0.00    -0.31   0.07  -0.00
   9   1     0.00   0.00  -0.24    -0.18  -0.13  -0.00     0.27   0.02  -0.00
  10   1    -0.04   0.15  -0.04    -0.01  -0.22   0.00     0.04   0.16   0.00
  11   1     0.04  -0.15  -0.04    -0.01  -0.22  -0.00     0.04   0.16  -0.00
  12   1    -0.00  -0.00   0.13     0.01   0.02   0.00    -0.15  -0.03  -0.00
  13   1    -0.00   0.00  -0.25     0.02   0.00  -0.00    -0.05   0.11   0.00
  14   1     0.00  -0.00   0.13     0.04  -0.01   0.00     0.16  -0.01  -0.00
  15   1    -0.12  -0.03  -0.09    -0.16   0.15  -0.00    -0.20   0.02   0.00
  16   1     0.12   0.03  -0.09    -0.17   0.15  -0.00    -0.20   0.02  -0.00
  17   1     0.00   0.00  -0.18     0.01   0.26   0.00     0.01   0.17  -0.00
                      7                      8                      9
                        a                      a                      a 
 Frequencies --   396.4160               489.6610               503.8436
 Red. masses --     2.6750                 5.1984                 3.8962
 Frc consts  --     0.0000                 0.0000                 0.0000
 IR Inten    --     2.1991                 1.7769                 4.7498
 Raman Activ --     0.0000                 0.0000                 0.0000
 Depolar     --     0.0000                 0.0000                 0.0000
 Atom AN      X      Y      Z        X      Y      Z        X      Y      Z
   1   6    -0.00  -0.00  -0.03    -0.35   0.24   0.00     0.00  -0.00  -0.03
   2   6     0.00   0.00   0.37    -0.32   0.04   0.00     0.00  -0.00   0.51
   3   6     0.00   0.00  -0.40    -0.22  -0.22  -0.00     0.00   0.00   0.04
   4   6     0.00  -0.00   0.18    -0.16  -0.21  -0.00    -0.00   0.00  -0.32
   5   7    -0.00  -0.00   0.07     0.33  -0.22   0.00    -0.00   0.00   0.46
   6   6    -0.00   0.00  -0.32     0.24  -0.10  -0.00    -0.00  -0.00  -0.19
   7   6    -0.00   0.00   0.49     0.27   0.06  -0.00    -0.00  -0.00  -0.43
   8   6     0.00  -0.00  -0.08     0.24   0.28  -0.00    -0.00  -0.00   0.02
   9   1    -0.00  -0.00  -0.07    -0.02   0.06  -0.00     0.00   0.00  -0.10
  10   1    -0.07   0.06  -0.04    -0.12   0.12   0.00    -0.14   0.10  -0.07
  11   1     0.07  -0.06  -0.04    -0.12   0.12  -0.00     0.14  -0.10  -0.07
  12   1     0.00   0.00  -0.34     0.01  -0.06  -0.00    -0.00   0.00  -0.02
  13   1     0.00  -0.00   0.10    -0.09   0.03  -0.00     0.00   0.00  -0.24
  14   1    -0.00   0.00  -0.33     0.00  -0.03  -0.00     0.00   0.00  -0.08
  15   1    -0.12  -0.07  -0.08     0.01   0.08   0.00     0.11   0.07   0.06
  16   1     0.12   0.07  -0.08     0.01   0.08  -0.00    -0.11  -0.07   0.06
  17   1     0.00  -0.00  -0.10     0.12   0.15   0.00    -0.00  -0.00   0.09
                     10                     11                     12
                        a                      a                      a 
 Frequencies --   586.7124               687.3945               778.9565
 Red. masses --     6.2494                 4.6893                 4.2048
 Frc consts  --     0.0000                 0.0000                 0.0000
 IR Inten    --     1.2587                 5.1478                 1.9276
 Raman Activ --     0.0000                 0.0000                 0.0000
 Depolar     --     0.0000                 0.0000                 0.0000
 Atom AN      X      Y      Z        X      Y      Z        X      Y      Z
   1   6    -0.24   0.06   0.00     0.00  -0.00   0.06     0.33  -0.24  -0.00
   2   6    -0.15   0.01   0.00    -0.00  -0.00   0.39    -0.11  -0.20  -0.00
   3   6     0.16  -0.35   0.00    -0.00  -0.00  -0.34    -0.18  -0.43   0.00
   4   6     0.44   0.02  -0.00     0.00   0.00   0.35    -0.05  -0.01   0.00
   5   7     0.37   0.02   0.00     0.00   0.00  -0.42    -0.06   0.01  -0.00
   6   6     0.06   0.41  -0.00    -0.00   0.00   0.35    -0.20   0.39   0.00
   7   6    -0.24   0.01  -0.00    -0.00   0.00  -0.38    -0.12   0.18   0.00
   8   6    -0.31  -0.16   0.00     0.00   0.00  -0.06     0.28   0.27  -0.00
   9   1    -0.11   0.02   0.00    -0.00   0.00  -0.05     0.17  -0.08   0.00
  10   1    -0.06  -0.01  -0.00    -0.10   0.07  -0.04     0.08  -0.03   0.00
  11   1    -0.06  -0.01   0.00     0.10  -0.07  -0.04     0.08  -0.03  -0.00
  12   1     0.04  -0.10   0.00    -0.00  -0.00  -0.10    -0.12  -0.12  -0.00
  13   1     0.09   0.07  -0.00     0.00   0.00   0.18    -0.06   0.07  -0.00
  14   1     0.01   0.11  -0.00    -0.00   0.00   0.20    -0.13   0.11  -0.00
  15   1    -0.09  -0.04   0.00     0.09   0.06   0.03     0.14   0.07  -0.00
  16   1    -0.09  -0.04  -0.00    -0.08  -0.06   0.03     0.14   0.07   0.00
  17   1    -0.09  -0.04   0.00    -0.00  -0.00   0.04     0.04   0.01   0.00
                     13                     14                     15
                        a                      a                      a 
 Frequencies --   813.0601               848.9115               901.5068
 Red. masses --     1.2378                 5.0250                 1.2266
 Frc consts  --     0.0000                 0.0000                 0.0000
 IR Inten    --     2.3670                16.6229                 0.2092
 Raman Activ --     0.0000                 0.0000                 0.0000
 Depolar     --     0.0000                 0.0000                 0.0000
 Atom AN      X      Y      Z        X      Y      Z        X      Y      Z
   1   6    -0.00   0.00  -0.05    -0.30   0.09   0.00    -0.00  -0.00   0.01
   2   6     0.00  -0.00  -0.07    -0.04  -0.16   0.00    -0.00  -0.00   0.02
   3   6     0.00  -0.00   0.26     0.17  -0.23  -0.00     0.00  -0.00   0.25
   4   6     0.00   0.00   0.25     0.43   0.20  -0.00     0.00   0.00   0.00
   5   7    -0.00   0.00  -0.09    -0.48   0.22   0.00    -0.00   0.00  -0.01
   6   6    -0.00  -0.00   0.21    -0.11  -0.20  -0.00    -0.00   0.00  -0.36
   7   6     0.00  -0.00  -0.10     0.04  -0.13   0.00     0.00   0.00   0.01
   8   6     0.00  -0.00  -0.04     0.26   0.14  -0.00     0.00   0.00   0.02
   9   1     0.00  -0.00   0.06     0.01   0.01  -0.00     0.00  -0.00  -0.00
  10   1     0.10  -0.06   0.04    -0.11   0.10   0.00    -0.01   0.01  -0.00
  11   1    -0.10   0.06   0.04    -0.11   0.10  -0.00     0.01  -0.01  -0.00
  12   1    -0.00   0.00  -0.59    -0.06  -0.06   0.00    -0.00   0.00  -0.54
  13   1     0.00  -0.00  -0.52     0.19  -0.08   0.00     0.00  -0.00   0.09
  14   1     0.00  -0.00  -0.35     0.09  -0.05  -0.00    -0.00  -0.00   0.71
  15   1     0.08   0.06   0.03     0.04   0.04   0.00    -0.03  -0.02  -0.01
  16   1    -0.08  -0.05   0.03     0.04   0.04  -0.00     0.03   0.02  -0.01
  17   1    -0.00  -0.00   0.04     0.12   0.10   0.00     0.00   0.00  -0.02
                     16                     17                     18
                        a                      a                      a 
 Frequencies --   916.0010              1002.7345              1008.4379
 Red. masses --     1.3744                 1.4287                 1.4160
 Frc consts  --     0.0000                 0.0000                 0.0000
 IR Inten    --     0.0351                11.9054                 2.2479
 Raman Activ --     0.0000                 0.0000                 0.0000
 Depolar     --     0.0000                 0.0000                 0.0000
 Atom AN      X      Y      Z        X      Y      Z        X      Y      Z
   1   6    -0.00   0.00   0.00     0.01   0.05  -0.00     0.20   0.34   0.00
   2   6    -0.00  -0.00  -0.00    -0.03  -0.03   0.00     0.02   0.13  -0.00
   3   6     0.00  -0.00  -0.24    -0.02  -0.12  -0.00    -0.11  -0.29   0.00
   4   6     0.00   0.00   0.41     0.05   0.11  -0.00    -0.03  -0.00   0.00
   5   7    -0.00   0.00   0.01     0.04   0.03  -0.00    -0.09   0.13   0.00
   6   6    -0.00  -0.00  -0.25     0.15  -0.30  -0.00    -0.00  -0.10  -0.00
   7   6     0.00  -0.00   0.05    -0.03   0.10   0.00     0.05  -0.05  -0.00
   8   6     0.00   0.00   0.04    -0.27   0.30  -0.00     0.06  -0.03   0.00
   9   1     0.00  -0.00  -0.00    -0.02   0.02   0.00    -0.56   0.19   0.00
  10   1    -0.00   0.00  -0.00     0.01  -0.03  -0.01     0.18  -0.33  -0.02
  11   1     0.00  -0.00  -0.00     0.01  -0.03   0.01     0.18  -0.33   0.02
  12   1    -0.00  -0.00   0.36    -0.07  -0.03   0.00    -0.10  -0.08  -0.00
  13   1     0.00   0.00  -0.69    -0.01   0.07   0.00    -0.05   0.07  -0.00
  14   1    -0.00  -0.00   0.31     0.14  -0.08   0.00     0.06  -0.02   0.00
  15   1    -0.05  -0.04  -0.02     0.34   0.02  -0.03    -0.07  -0.00   0.00
  16   1     0.05   0.04  -0.02     0.35   0.03   0.03    -0.07  -0.00  -0.00
  17   1     0.00   0.00  -0.03    -0.42  -0.47  -0.00     0.07   0.07   0.00
                     19                     20                     21
                        a                      a                      a 
 Frequencies --  1023.6200              1033.8012              1115.8029
 Red. masses --     1.4287                 1.4720                 1.6232
 Frc consts  --     0.0000                 0.0000                 0.0000
 IR Inten    --    14.2888                 1.5395                 4.3903
 Raman Activ --     0.0000                 0.0000                 0.0000
 Depolar     --     0.0000                 0.0000                 0.0000
 Atom AN      X      Y      Z        X      Y      Z        X      Y      Z
   1   6     0.00   0.00  -0.39     0.00   0.00  -0.18     0.01   0.08  -0.00
   2   6     0.00   0.00   0.34    -0.00  -0.00   0.19     0.01  -0.15  -0.00
   3   6    -0.00   0.00  -0.08    -0.00  -0.00   0.01    -0.14   0.28   0.00
   4   6    -0.00  -0.00  -0.03     0.00   0.00  -0.02     0.27   0.17   0.00
   5   7     0.00  -0.00   0.01    -0.00   0.00  -0.00     0.23  -0.30  -0.00
   6   6    -0.00   0.00  -0.07     0.00  -0.00   0.06    -0.12  -0.08   0.00
   7   6     0.00  -0.00   0.12    -0.00   0.00  -0.34    -0.10  -0.04  -0.00
   8   6     0.00  -0.00  -0.17    -0.00   0.00   0.39     0.07   0.04   0.00
   9   1     0.00  -0.00   0.21     0.00  -0.00   0.09    -0.11   0.04   0.00
  10   1     0.42  -0.23   0.13     0.19  -0.10   0.06     0.01  -0.02  -0.01
  11   1    -0.42   0.23   0.13    -0.19   0.10   0.06     0.01  -0.02   0.01
  12   1     0.00   0.00   0.10    -0.00  -0.00  -0.03    -0.66   0.09   0.00
  13   1    -0.00  -0.00   0.07    -0.00   0.00   0.02     0.13  -0.04  -0.00
  14   1    -0.00   0.00   0.10     0.00  -0.00  -0.05    -0.33  -0.05  -0.00
  15   1     0.17   0.14   0.06    -0.37  -0.31  -0.14     0.02   0.01   0.00
  16   1    -0.17  -0.14   0.07     0.36   0.31  -0.14     0.02   0.02  -0.00
  17   1    -0.00   0.00   0.10     0.00   0.00  -0.22     0.03   0.02  -0.00
                     22                     23                     24
                        a                      a                      a 
 Frequencies --  1162.1883              1208.3303              1263.6637
 Red. masses --     3.0346                 1.4761                 1.2974
 Frc consts  --     0.0000                 0.0000                 0.0000
 IR Inten    --     8.6499                 5.1053                 1.5909
 Raman Activ --     0.0000                 0.0000                 0.0000
 Depolar     --     0.0000                 0.0000                 0.0000
 Atom AN      X      Y      Z        X      Y      Z        X      Y      Z
   1   6    -0.14   0.20   0.00     0.11  -0.09  -0.00    -0.09  -0.07  -0.00
   2   6     0.23  -0.36  -0.00    -0.22   0.18   0.00     0.29   0.21   0.00
   3   6     0.08   0.19   0.00    -0.16  -0.04  -0.00     0.07  -0.09  -0.00
   4   6    -0.20  -0.23  -0.00     0.04  -0.17  -0.00    -0.02  -0.22  -0.00
   5   7    -0.01  -0.02  -0.00    -0.12   0.10   0.00    -0.04  -0.06  -0.00
   6   6     0.05   0.40   0.00     0.19   0.10   0.00    -0.10   0.01  -0.00
   7   6    -0.16  -0.35   0.00     0.23   0.20  -0.00    -0.06   0.11   0.00
   8   6     0.07   0.20  -0.00    -0.13  -0.09   0.00     0.01  -0.06  -0.00
   9   1    -0.21   0.08   0.00     0.09  -0.03  -0.00     0.05  -0.02  -0.00
  10   1    -0.03  -0.02  -0.02     0.04  -0.01   0.01    -0.04   0.11   0.02
  11   1    -0.03  -0.02   0.02     0.04  -0.01  -0.01    -0.04   0.11  -0.02
  12   1     0.00   0.05   0.00    -0.29  -0.00   0.00    -0.51  -0.02   0.00
  13   1     0.07  -0.30  -0.00     0.32  -0.63  -0.00    -0.20   0.30   0.00
  14   1     0.23   0.12   0.00     0.21   0.04  -0.00     0.57   0.05   0.00
  15   1     0.15   0.03  -0.01    -0.06  -0.03  -0.00    -0.02  -0.00   0.01
  16   1     0.16   0.03   0.01    -0.06  -0.03   0.00    -0.02  -0.00  -0.01
  17   1    -0.04  -0.04  -0.00    -0.05  -0.04   0.00     0.04   0.05   0.00
                     25                     26                     27
                        a                      a                      a 
 Frequencies --  1268.9112              1292.6322              1389.0295
 Red. masses --     2.4274                 8.3424                 2.4228
 Frc consts  --     0.0000                 0.0000                 0.0000
 IR Inten    --    17.5664                 2.6953                 4.3638
 Raman Activ --     0.0000                 0.0000                 0.0000
 Depolar     --     0.0000                 0.0000                 0.0000
 Atom AN      X      Y      Z        X      Y      Z        X      Y      Z
   1   6    -0.19   0.06   0.00     0.00  -0.04   0.00     0.04  -0.11   0.00
   2   6     0.42  -0.07  -0.00     0.08   0.29   0.00     0.20   0.12  -0.00
   3   6     0.08  -0.22  -0.00    -0.40   0.07   0.00     0.07  -0.20  -0.00
   4   6    -0.17  -0.12  -0.00     0.27  -0.31  -0.00    -0.24   0.06   0.00
   5   7    -0.11   0.21   0.00     0.24   0.32   0.00     0.29   0.30   0.00
   6   6     0.03   0.15   0.00    -0.44  -0.04  -0.00     0.02  -0.28  -0.00
   7   6     0.45   0.05  -0.00     0.13  -0.39  -0.00    -0.43   0.08   0.00
   8   6    -0.19  -0.07   0.00     0.01   0.09  -0.00    -0.01  -0.11   0.00
   9   1    -0.03   0.02  -0.00     0.07  -0.02  -0.00    -0.13   0.01  -0.00
  10   1    -0.06   0.08   0.01     0.01   0.02   0.01    -0.08   0.14  -0.01
  11   1    -0.06   0.08  -0.00     0.01   0.02  -0.01    -0.08   0.14   0.01
  12   1    -0.22  -0.06   0.00     0.11   0.02  -0.00    -0.05  -0.06   0.00
  13   1    -0.08   0.01   0.00     0.04  -0.01  -0.00     0.09  -0.29  -0.00
  14   1    -0.51   0.01  -0.00    -0.02  -0.00   0.00    -0.11  -0.09  -0.00
  15   1    -0.01  -0.03  -0.01     0.08  -0.01  -0.02     0.15   0.13   0.10
  16   1    -0.01  -0.03   0.01     0.08  -0.01   0.02     0.15   0.13  -0.10
  17   1    -0.10  -0.10  -0.00    -0.04  -0.05  -0.00     0.16   0.22  -0.00
                     28                     29                     30
                        a                      a                      a 
 Frequencies --  1401.3837              1405.9773              1473.6447
 Red. masses --     1.2445                 1.5364                 1.0566
 Frc consts  --     0.0000                 0.0000                 0.0000
 IR Inten    --     5.1875                15.2199                 8.7379
 Raman Activ --     0.0000                 0.0000                 0.0000
 Depolar     --     0.0000                 0.0000                 0.0000
 Atom AN      X      Y      Z        X      Y      Z        X      Y      Z
   1   6     0.40  -0.15  -0.00    -0.09   0.02  -0.00    -0.00   0.00  -0.15
   2   6    -0.07   0.00   0.00     0.12   0.04  -0.00     0.00  -0.00  -0.02
   3   6    -0.03   0.02   0.00     0.08  -0.08  -0.00    -0.01  -0.00   0.00
   4   6     0.06  -0.02  -0.00    -0.14   0.02   0.00     0.00   0.00   0.00
   5   7    -0.05  -0.03  -0.00     0.15   0.15   0.00     0.00  -0.00  -0.00
   6   6    -0.01   0.04   0.00    -0.00  -0.12  -0.00    -0.00   0.00   0.01
   7   6     0.09  -0.00  -0.00    -0.25   0.01  -0.00     0.00   0.00  -0.03
   8   6     0.05   0.06  -0.00     0.36   0.25  -0.00     0.00  -0.01  -0.16
   9   1    -0.43   0.07   0.00     0.10  -0.02   0.00    -0.00  -0.00   0.49
  10   1    -0.42   0.21  -0.24     0.03  -0.02   0.02    -0.03   0.30   0.05
  11   1    -0.42   0.21   0.24     0.03  -0.02  -0.02     0.03  -0.30   0.05
  12   1     0.05   0.01  -0.00    -0.05  -0.03  -0.00     0.00  -0.00   0.00
  13   1    -0.01   0.04   0.00     0.03  -0.13  -0.00     0.00  -0.00  -0.00
  14   1     0.02   0.01   0.00    -0.04  -0.04   0.00     0.00   0.00  -0.00
  15   1    -0.09  -0.07  -0.05    -0.37  -0.23  -0.18    -0.33   0.10   0.06
  16   1    -0.09  -0.07   0.05    -0.37  -0.23   0.18     0.33  -0.08   0.05
  17   1    -0.07  -0.11   0.00    -0.19  -0.33   0.00    -0.01  -0.00   0.53
                     31                     32                     33
                        a                      a                      a 
 Frequencies --  1474.5454              1481.4013              1491.9491
 Red. masses --     1.2192                 2.2143                 1.0559
 Frc consts  --     0.0000                 0.0000                 0.0000
 IR Inten    --     1.4961                12.2926                 0.0805
 Raman Activ --     0.0000                 0.0000                 0.0000
 Depolar     --     0.0000                 0.0000                 0.0000
 Atom AN      X      Y      Z        X      Y      Z        X      Y      Z
   1   6     0.04  -0.15  -0.00    -0.10  -0.06   0.00     0.00  -0.00   0.16
   2   6    -0.15   0.16  -0.00     0.33  -0.17   0.00    -0.00   0.00   0.03
   3   6     0.12   0.01   0.00    -0.36  -0.10   0.00     0.00   0.00   0.00
   4   6    -0.01  -0.04  -0.00     0.01   0.33   0.00     0.00  -0.00  -0.00
   5   7    -0.09   0.00  -0.00     0.08  -0.24  -0.00    -0.00   0.00   0.00
   6   6     0.16   0.03   0.00    -0.22   0.00  -0.00     0.00   0.00   0.00
   7   6    -0.06  -0.15  -0.00     0.14   0.24   0.00    -0.00  -0.00  -0.03
   8   6    -0.12   0.15  -0.01    -0.04  -0.04   0.00     0.00  -0.00  -0.15
   9   1    -0.18   0.02   0.00    -0.25   0.05  -0.01    -0.00   0.00  -0.53
  10   1     0.16   0.19   0.16     0.14   0.21   0.17     0.03  -0.34  -0.06
  11   1     0.16   0.18  -0.15     0.14   0.23  -0.17    -0.03   0.34  -0.06
  12   1    -0.07   0.01  -0.00     0.24  -0.04  -0.00    -0.00   0.00  -0.00
  13   1    -0.03   0.05  -0.00     0.12  -0.13  -0.00    -0.00   0.00   0.00
  14   1    -0.12  -0.01  -0.00     0.21   0.02   0.00    -0.00  -0.00   0.00
  15   1     0.18  -0.37  -0.28    -0.04  -0.06  -0.04    -0.30   0.09   0.06
  16   1     0.19  -0.37   0.29    -0.04  -0.06   0.04     0.29  -0.08   0.05
  17   1     0.14   0.25   0.01    -0.01  -0.01  -0.00    -0.00   0.00   0.49
                     34                     35                     36
                        a                      a                      a 
 Frequencies --  1499.3170              1567.3878              1585.0527
 Red. masses --     1.2292                 7.3699                 7.4192
 Frc consts  --     0.0000                 0.0000                 0.0000
 IR Inten    --     1.5733                16.3166                74.2779
 Raman Activ --     0.0000                 0.0000                 0.0000
 Depolar     --     0.0000                 0.0000                 0.0000
 Atom AN      X      Y      Z        X      Y      Z        X      Y      Z
   1   6     0.02  -0.18  -0.00    -0.00  -0.04   0.00     0.04  -0.03  -0.00
   2   6    -0.18   0.04  -0.00     0.15   0.52   0.00    -0.32  -0.02   0.00
   3   6     0.08   0.08  -0.00    -0.06  -0.20  -0.00     0.49  -0.05  -0.00
   4   6     0.06  -0.17  -0.00    -0.12   0.40   0.00    -0.29   0.23   0.00
   5   7    -0.10   0.07   0.00    -0.12  -0.37  -0.00     0.26   0.02   0.00
   6   6     0.16   0.03  -0.00     0.14   0.17   0.00    -0.51  -0.01  -0.00
   7   6    -0.06  -0.14   0.00    -0.01  -0.47  -0.00     0.33  -0.14  -0.00
   8   6     0.14  -0.03   0.00     0.04   0.04   0.00    -0.03   0.00  -0.00
   9   1    -0.29   0.04   0.00     0.10  -0.03   0.00    -0.05   0.01  -0.00
  10   1     0.23   0.28   0.23    -0.05  -0.00  -0.03     0.04   0.03   0.03
  11   1     0.23   0.27  -0.23    -0.05  -0.00   0.03     0.04   0.03  -0.03
  12   1    -0.04   0.03   0.00    -0.02  -0.05  -0.00    -0.11  -0.01   0.00
  13   1    -0.05   0.09   0.00     0.06  -0.08  -0.00     0.01  -0.10  -0.00
  14   1    -0.10  -0.00  -0.00    -0.04   0.03   0.00     0.14   0.02   0.00
  15   1    -0.13   0.26   0.19     0.01   0.08   0.05     0.01   0.02   0.01
  16   1    -0.14   0.26  -0.19     0.01   0.08  -0.05     0.01   0.02  -0.01
  17   1    -0.15  -0.25  -0.01    -0.04  -0.07   0.00    -0.04  -0.04   0.00
                     37                     38                     39
                        a                      a                      a 
 Frequencies --  3007.1090              3007.2051              3016.5122
 Red. masses --     1.0924                 1.0925                 1.0567
 Frc consts  --     0.0000                 0.0000                 0.0000
 IR Inten    --    46.5880                 0.1999                16.8864
 Raman Activ --     0.0000                 0.0000                 0.0000
 Depolar     --     0.0000                 0.0000                 0.0000
 Atom AN      X      Y      Z        X      Y      Z        X      Y      Z
   1   6    -0.00  -0.00  -0.22    -0.00  -0.00  -0.19     0.19   0.11  -0.00
   2   6    -0.00  -0.00  -0.01    -0.00   0.00  -0.00     0.01   0.00  -0.00
   3   6     0.00   0.00  -0.00     0.00   0.00  -0.00    -0.00  -0.01  -0.00
   4   6    -0.00  -0.00   0.00     0.00   0.00   0.00    -0.00  -0.00   0.00
   5   7     0.00   0.00   0.00    -0.00  -0.00  -0.00    -0.00  -0.00  -0.00
   6   6    -0.00  -0.00   0.00     0.00   0.00  -0.00     0.00  -0.00  -0.00
   7   6     0.00   0.00  -0.00    -0.00  -0.00   0.00     0.00   0.00   0.00
   8   6     0.00   0.00  -0.19    -0.00  -0.00   0.22    -0.01   0.04   0.00
   9   1     0.00   0.00  -0.03    -0.00   0.00  -0.03     0.00  -0.10  -0.00
  10   1    -0.28  -0.12   0.39    -0.25  -0.11   0.35    -0.35  -0.15   0.57
  11   1     0.29   0.13   0.41     0.25   0.11   0.36    -0.34  -0.14  -0.56
  12   1     0.00  -0.00  -0.00     0.00  -0.00  -0.00    -0.00   0.01  -0.00
  13   1     0.00   0.00  -0.00    -0.00  -0.00   0.00    -0.00  -0.00  -0.00
  14   1    -0.00   0.00  -0.00     0.00  -0.00   0.00    -0.00   0.01   0.00
  15   1     0.01  -0.28   0.37    -0.01   0.32  -0.42    -0.00  -0.06   0.09
  16   1    -0.01   0.27   0.34     0.01  -0.31  -0.38    -0.00  -0.06  -0.09
  17   1     0.00  -0.00  -0.03    -0.00   0.00   0.03     0.02  -0.02   0.00
                     40                     41                     42
                        a                      a                      a 
 Frequencies --  3019.7402              3045.0640              3045.7658
 Red. masses --     1.0537                 1.0637                 1.0782
 Frc consts  --     0.0000                 0.0000                 0.0000
 IR Inten    --    11.6179                14.0893                45.8997
 Raman Activ --     0.0000                 0.0000                 0.0000
 Depolar     --     0.0000                 0.0000                 0.0000
 Atom AN      X      Y      Z        X      Y      Z        X      Y      Z
   1   6    -0.03  -0.02   0.00    -0.02  -0.23  -0.00    -0.00  -0.02  -0.00
   2   6    -0.00  -0.00   0.00     0.00  -0.01  -0.00     0.00   0.00  -0.00
   3   6     0.00   0.00  -0.00    -0.00   0.02   0.00    -0.00  -0.00  -0.00
   4   6     0.00  -0.00  -0.00    -0.01  -0.00  -0.00     0.00   0.00   0.00
   5   7     0.00   0.00  -0.00    -0.00   0.00  -0.00    -0.00  -0.01  -0.00
   6   6    -0.00  -0.02  -0.00    -0.00   0.03   0.00     0.03  -0.26  -0.00
   7   6     0.00   0.01   0.00     0.00   0.00   0.00    -0.01  -0.01  -0.00
   8   6    -0.02   0.21   0.01     0.00  -0.01   0.00    -0.01  -0.01  -0.00
   9   1     0.01   0.04   0.00     0.18   0.93   0.00     0.02   0.10   0.00
  10   1     0.05   0.02  -0.09    -0.05  -0.05   0.07    -0.01  -0.01   0.01
  11   1     0.05   0.02   0.09    -0.05  -0.05  -0.07    -0.01  -0.01  -0.01
  12   1     0.00   0.00   0.00     0.00  -0.07  -0.00     0.00   0.01   0.00
  13   1    -0.00  -0.00   0.00     0.03   0.01   0.00    -0.00  -0.00  -0.00
  14   1    -0.00   0.09   0.00     0.01  -0.10  -0.00    -0.07   0.95   0.00
  15   1     0.00  -0.36   0.55     0.00   0.01  -0.01     0.00   0.04  -0.05
  16   1     0.01  -0.39  -0.58     0.00   0.01   0.01     0.00   0.04   0.06
  17   1     0.04  -0.00   0.00    -0.01   0.01  -0.00     0.02  -0.02   0.00
                     43                     44                     45
                        a                      a                      a 
 Frequencies --  3057.3093              3071.9195              3078.6244
 Red. masses --     1.0773                 1.0675                 1.0846
 Frc consts  --     0.0000                 0.0000                 0.0000
 IR Inten    --    26.2432                17.2924                53.0210
 Raman Activ --     0.0000                 0.0000                 0.0000
 Depolar     --     0.0000                 0.0000                 0.0000
 Atom AN      X      Y      Z        X      Y      Z        X      Y      Z
   1   6    -0.00  -0.01  -0.00     0.00   0.00  -0.00     0.00   0.02   0.00
   2   6     0.00  -0.01  -0.00     0.00   0.00  -0.00    -0.01   0.01   0.00
   3   6     0.00  -0.06  -0.00     0.00   0.01   0.00     0.00   0.27   0.00
   4   6     0.23   0.11   0.00    -0.00  -0.00   0.00     0.07   0.03   0.00
   5   7     0.01   0.01   0.00     0.00  -0.00  -0.00    -0.00  -0.00   0.00
   6   6    -0.00   0.00   0.00    -0.00  -0.01   0.00    -0.00  -0.00  -0.00
   7   6    -0.00   0.00   0.00     0.01  -0.00   0.00     0.00  -0.00  -0.00
   8   6     0.00  -0.00   0.00     0.21  -0.13   0.00    -0.00   0.00  -0.00
   9   1     0.01   0.05   0.00    -0.00  -0.02  -0.00    -0.01  -0.06  -0.00
  10   1    -0.00  -0.00   0.00    -0.01  -0.00   0.01    -0.00   0.00   0.00
  11   1    -0.00  -0.00  -0.00    -0.01  -0.00  -0.01    -0.00   0.00  -0.00
  12   1     0.00   0.25   0.00    -0.00  -0.02  -0.00    -0.02  -0.93  -0.00
  13   1    -0.82  -0.43  -0.00     0.00   0.00   0.00    -0.22  -0.11  -0.00
  14   1     0.00  -0.01  -0.00    -0.00   0.03   0.00    -0.00   0.01   0.00
  15   1     0.00   0.00  -0.00     0.03  -0.04   0.03    -0.00   0.00   0.00
  16   1     0.00   0.00   0.00     0.03  -0.04  -0.03    -0.00   0.00  -0.00
  17   1    -0.01   0.01  -0.00    -0.80   0.54  -0.01     0.02  -0.01   0.00
