17
 energy: -22.491087733005 gnorm: 0.024209425338 xtb: 6.7.1 (41059b4)
C            1.85747257884735       -1.46832642202733       -0.00017647459621
C            0.56172679411927       -0.70636790560389       -0.00000373163179
C           -0.65710605615658       -1.38755083425109       -0.00006769141710
C           -1.85033116673149       -0.67837248926335       -0.00006129263279
N           -1.90718856593812        0.65717165083671        0.00016206736670
C           -0.74095965102433        1.30356397418463        0.00039931766328
C            0.51795693404274        0.69550564707930        0.00025178787626
C            1.74885306950498        1.56204914288600       -0.00006158148097
H            1.67343744375773       -2.54484795516551       -0.00144488106604
H            2.46220808647422       -1.22774736185271       -0.88131413570635
H            2.46119787514759       -1.22975295777560        0.88221835357626
H           -0.67264927326899       -2.47383812192896       -0.00016318052638
H           -2.80375614354772       -1.20462546095518       -0.00012229030955
H           -0.79967067720164        2.39352845531166        0.00060373491779
H            1.76907595294054        2.20776964781729       -0.88466140042048
H            1.76247184794686        2.21759606752826        0.87733596239732
H            2.67028467975833        0.97883480957424        0.00654216826359
17
 energy: -22.492051479046 gnorm: 0.007071397378 xtb: 6.7.1 (41059b4)
C            1.85549162542116       -1.46732739755167       -0.00024007960087
C            0.56640094007700       -0.70468258334153       -0.00001616846609
C           -0.64849258137163       -1.38382082221253       -0.00003834867803
C           -1.83510347741369       -0.67280057438472        0.00002174364226
N           -1.88667706818333        0.65202483600212        0.00019028024447
C           -0.73266167450397        1.29755046810092        0.00035007524377
C            0.52207628538270        0.69286816842083        0.00024899433005
C            1.74600385674245        1.55860251379090        0.00001690779405
H            1.66472948780259       -2.53899686990309       -0.00150925213485
H            2.44961650930370       -1.22322959152031       -0.88230330584387
H            2.44865010457037       -1.22526115337641        0.88305649618192
H           -0.66645698575018       -2.46535954970748       -0.00017806757328
H           -2.78934925932865       -1.18615708771246       -0.00012948282308
H           -0.80249373175453        2.38059288614017        0.00061302528911
H            1.75338359067202        2.19854087305536       -0.88382106138268
H            1.74656856130317        2.20881153049911        0.87629870369118
H            2.66133754570158        0.97323424009528        0.00687627235948
17
 energy: -22.492113239393 gnorm: 0.001771867186 xtb: 6.7.1 (41059b4)
C            1.85557446888384       -1.46683904464596       -0.00030167902559
C            0.56655125205165       -0.70457834570018       -0.00000381282199
C           -0.64715935315754       -1.38469016174402       -0.00005817526383
C           -1.83243037467655       -0.67222521680878        0.00000889732939
N           -1.87985568738663        0.64937375403855        0.00021084532606
C           -0.73050335067215        1.29673396504476        0.00041708082314
C            0.52338843697917        0.69211159284508        0.00032599295513
C            1.74668510082517        1.55781962973098        0.00006354997768
H            1.66326579814906       -2.53687577476715       -0.00161738666619
H            2.44681447399107       -1.22209980229686       -0.88209247675495
H            2.44589662794192       -1.22422646856383        0.88271533115234
H           -0.66483786655877       -2.46471937397728       -0.00019773845298
H           -2.78853361585895       -1.17902182016456       -0.00006962568415
H           -0.80577024743796        2.37766813971967        0.00061993586061
H            1.75015390133808        2.19594232011453       -0.88308063014545
H            1.74300993041803        2.20676471926622        0.87522501887877
H            2.66077423384133        0.97345177430329        0.00727160478556
17
 energy: -22.492118541777 gnorm: 0.000549809801 xtb: 6.7.1 (41059b4)
C            1.85572550452959       -1.46656683871934       -0.00038559690076
C            0.56562267667701       -0.70454340693984       -0.00000541794176
C           -0.64743641668029       -1.38615074029998       -0.00003959766258
C           -1.83294219231220       -0.67311562441264        0.00008278509240
N           -1.87820011719936        0.64822954656867        0.00026634645533
C           -0.73010018365166        1.29759649319693        0.00045177101758
C            0.52377516228215        0.69213904611383        0.00036828770072
C            1.74788865546528        1.55774043440713        0.00010762864833
H            1.66353788877792       -2.53652444311592       -0.00175688921940
H            2.44628474184725       -1.22130415500056       -0.88217839442759
H            2.44544067621783       -1.22354123990802        0.88261582476780
H           -0.66379429660925       -2.46602211674391       -0.00025290445043
H           -2.79046830608624       -1.17696904321982       -0.00006460213852
H           -0.80791521504659        2.37815444925057        0.00073803778688
H            1.75073587854486        2.19509983175330       -0.88331465800789
H            1.74303248389460        2.20675728056411        0.87492994614591
H            2.66183678801985        0.97361041289998        0.00787416540754
17
 energy: -22.492118901615 gnorm: 0.000130408753 xtb: 6.7.1 (41059b4)
C            1.85563205027097       -1.46636111379398       -0.00046730272066
C            0.56523119171807       -0.70441908060749       -0.00001239870497
C           -0.64762141293709       -1.38632576207314       -0.00007511681084
C           -1.83325388703699       -0.67342395902114        0.00005833508565
N           -1.87856432227222        0.64818646287898        0.00033439833006
C           -0.73026545995822        1.29784550957296        0.00057873195802
C            0.52363394355434        0.69222793205966        0.00043765976121
C            1.74806610028359        1.55760043099517        0.00013934359458
H            1.66384575170344       -2.53652365822802       -0.00191424537718
H            2.44631359828463       -1.22092081691470       -0.88232127209036
H            2.44549610441659       -1.22329827571503        0.88261701364027
H           -0.66333911758112       -2.46634850263894       -0.00027985008007
H           -2.79097423936878       -1.17707453723089        0.00000071352485
H           -0.80835590471795        2.37844592341832        0.00081367356391
H            1.75170868508090        2.19465369657443       -0.88370667946173
H            1.74345867790520        2.20714088398243        0.87477501249098
H            2.66201196932541        0.97318475313585        0.00845871556983
17
 energy: -22.492118968140 gnorm: 0.000060212587 xtb: 6.7.1 (41059b4)
C            1.85560585006459       -1.46629331114118       -0.00054642183518
C            0.56522054065707       -0.70438581259530       -0.00002668930265
C           -0.64760505550584       -1.38630834743832       -0.00005811486102
C           -1.83318647031334       -0.67342559672691        0.00014251727032
N           -1.87850383323379        0.64814750684917        0.00040320819601
C           -0.73024776349530        1.29780732737416        0.00061123745057
C            0.52363078561563        0.69224029324835        0.00045942271174
C            1.74805498147117        1.55751780827450        0.00016786260183
H            1.66384596905676       -2.53643665577403       -0.00205293028069
H            2.44623158159402       -1.22078276827369       -0.88239120960414
H            2.44544576826358       -1.22327125428602        0.88253978096700
H           -0.66319527893756       -2.46631429861121       -0.00033985442860
H           -2.79096225178245       -1.17692467878781       -0.00001318750392
H           -0.80850706812549        2.37835965057581        0.00098028449247
H            1.75203702786713        2.19415102884080       -0.88395972712395
H            1.74322193401223        2.20747309332134        0.87447184109466
H            2.66193701146235        0.97303590154484        0.00904871242911
