
                                 *****************
                                 * O   R   C   A *
                                 *****************

                                            #,                                       
                                            ###                                      
                                            ####                                     
                                            #####                                    
                                            ######                                   
                                           ########,                                 
                                     ,,################,,,,,                         
                               ,,#################################,,                 
                          ,,##########################################,,             
                       ,#########################################, ''#####,          
                    ,#############################################,,   '####,        
                  ,##################################################,,,,####,       
                ,###########''''           ''''###############################       
              ,#####''   ,,,,##########,,,,          '''####'''          '####       
            ,##' ,,,,###########################,,,                        '##       
           ' ,,###''''                  '''############,,,                           
         ,,##''                                '''############,,,,        ,,,,,,###''
      ,#''                                            '''#######################'''  
     '                                                          ''''####''''         
             ,#######,   #######,   ,#######,      ##                                
            ,#'     '#,  ##    ##  ,#'     '#,    #''#        ,####,   ,####,        
            ##       ##  ##   ,#'  ##            #'  '#       #'       #'  '#        
            ##       ##  #######   ##           ,######,      #####,   #    #        
            '#,     ,#'  ##    ##  '#,     ,#' ,#      #,     #,   #   #,  ,#        
             '#######'   ##     ##  '#######'  #'      '#     '####' # '####'        



                #########################################################
                #                        -***-                          #
                #          Department of theory and spectroscopy        #
                #                                                       #
                #                      Frank Neese                      #
                #                                                       #
                #     Directorship, Architecture, Infrastructure        #
                #                    SHARK, DRIVERS                     #
                #        Core code/Algorithms in most modules           #
                #                                                       #
                #        Max Planck Institute fuer Kohlenforschung      #
                #                Kaiser Wilhelm Platz 1                 #
                #                 D-45470 Muelheim/Ruhr                 #
                #                      Germany                          #
                #                                                       #
                #                  All rights reserved                  #
                #                        -***-                          #
                #########################################################


                         Program Version 6.0.1  -  RELEASE   -


 With contributions from (in alphabetic order):
[Max-Planck-Institut fuer Kohlenforschung]                               
  Daniel Aravena         : Magnetic Suceptibility                        
  Michael Atanasov       : Ab Initio Ligand Field Theory (pilot matlab implementation)
  Alexander A. Auer      : GIAO ZORA, VPT2 properties, NMR spectrum      
  Ute Becker             : All parallelization in ORCA, NUMFREQ, NUMCALC 
  Giovanni Bistoni       : ED, misc. LED, open-shell LED, HFLD           
  Martin Brehm           : Molecular dynamics                            
  Dmytro Bykov           : pre 5.0 version of the SCF Hessian            
  Marcos Casanova-Páez   : Triplet and SCS-CIS(D). UHF-(DLPNO)-IP/EA/STEOM-CCSD. UHF-CVS-IP/STEOM-CCSD   
  Vijay G. Chilkuri      : MRCI spin determinant printing, contributions to CSF-ICE 
  Pauline Colinet        : FMM embedding                                 
  Dipayan Datta          : RHF DLPNO-CCSD density                        
  Achintya Kumar Dutta   : EOM-CC, STEOM-CC                              
  Nicolas Foglia         : Exact transition moments, OPA infrastructure, MCD improvements    
  Dmitry Ganyushin       : Spin-Orbit,Spin-Spin,Magnetic field MRCI      
  Miquel Garcia-Rates    : C-PCM and meta-GGA Hessian, CCSD/C-PCM, Gaussian charge scheme 
  Tiago L. C. Gouveia    : GS-ROHF, GS-ROCIS                             
  Yang Guo               : DLPNO-NEVPT2, F12-NEVPT2, CIM, IAO-localization        
  Andreas Hansen         : Spin unrestricted coupled pair/coupled cluster methods 
  Ingolf Harden          : AUTO-CI MPn and infrastructure                
  Benjamin Helmich-Paris : MC-RPA, TRAH-(SCF,CASSCF), AVAS, COSX integrals, SCF dyn. polar. 
  Lee Huntington         : MR-EOM, pCC                                   
  Robert Izsak           : Overlap fitted RIJCOSX, COSX-SCS-MP3, EOM     
  Riya Kayal             : Wick's Theorem for AUTO-CI, AUTO-CI UHF-CCSDT 
  Emily Kempfer          : AUTO-CI, RHF CISDT and CCSDT                  
  Christian Kollmar      : KDIIS, OOCD, Brueckner-CCSD(T), CCSD density, CASPT2, CASPT2-K, improved NEVPT2 
  Axel Koslowski         : Symmetry handling                             
  Simone Kossmann        : meta-GGA functionals, TD-DFT gradient, OOMP2, (MP2 Hessian; deprecated post 5.0) 
  Lucas Lang             : DCDCAS                                        
  Marvin Lechner         : AUTO-CI (C++ implementation), FIC-MRCC        
  Spencer Leger          : CASSCF response                               
  Dagmar Lenk            : GEPOL surface, SMD, ORCA-2-JSON               
  Dimitrios Liakos       : Extrapolation schemes; Compound Job, initial MDCI parallelization 
  Dimitrios Manganas     : Further ROCIS development; embedding schemes. LFT, Crystal Embedding 
  Dimitrios Pantazis     : SARC Basis sets                               
  Anastasios Papadopoulos: AUTO-CI, single reference methods and gradients 
  Taras Petrenko         : pre 6.0 DFT Hessian and TD-DFT gradient, (ASA, deprecated), ECA, 1-Electron XAS/XES, NRVS 
  Peter Pinski           : DLPNO-MP2, DLPNO-MP2 Gradient                 
  Christoph Reimann      : Effective Core Potentials                     
  Marius Retegan         : Local ZFS, SOC                                
  Christoph Riplinger    : Optimizer, TS searches, QM/MM, DLPNO-CCSD(T), (RO)-DLPNO pert. Triples 
  Michael Roemelt        : Original ROCIS implementation                 
  Masaaki Saitow         : Open-shell DLPNO-CCSD energy and density      
  Barbara Sandhoefer     : DKH picture change effects                    
  Kantharuban Sivalingam : CASSCF convergence/infrastructure, NEVPT2 and variants, FIC-MRCI 
  Bernardo de Souza      : ESD, SOC TD-DFT                               
  Georgi L. Stoychev     : AutoAux, RI-MP2 NMR, DLPNO-MP2 response, X2C  
  Van Anh Tran           : RI-MP2 g-tensors                              
  Willem Van den Heuvel  : Paramagnetic NMR                              
  Zikuan Wang            : NOTCH, Electric field optimization            
  Frank Wennmohs         : Technical directorship and infrastructure     
  Hang Xu                : AUTO-CI-Response properties                   
                                                                         
[FACCTs GmbH]                                                            
  Markus Bursch, Miquel Garcia-Rates, Christoph Riplinger, Bernardo de Souza, Georgi L. Stoychev 
                                                                 
  APM, Basis sets (HGBS, AHGBS, def-TZVP (Ac-Lr), def2-XVPD (La-Lu)), CI-OPT, improved COSX, DLPNO-Multilevel,           
  DOCKER, DRACO, updates on ESD, GOAT, IRC, LR-CPCM, MBIS, meta-GGA TD-DFT gradient, ML-optimized integration grids, 
  MM, NACMEs, nearIR, NEB, NEB-TS, NL-DFT gradient (VV10), 2- and 3-layer-ONIOM, interface openCOSMO-RS, QMMM,   
  Crystal-QMMM, SF, symmetry and pop. for TD-DFT, r2SCAN hybrids, SOLVATOR                                   
                                                                         
[Other institutions]                                                     
  V. Asgeirsson          : NEB                                           
  Christoph Bannwarth    : sTDA-DFT, sTD-DFT, PBEh-3c, B97-3c, D3        
  Sebastian Ehlert       : rSCAN, r2SCAN, r2SCAN-3c, D4, dhf basis sets  
  Marvin Friede          : D4 for Fr, Ra, Ac-Lr                          
  Lars Goerigk           : TD-DFT with DH, B97 family of functionals     
  Stefan Grimme          : VdW corrections, initial TS optimization, DFT functionals, gCP, sTDA/sTD-DF 
  Waldemar Hujo          : DFT-NL                                        
  H. Jonsson             : NEB                                           
  Holger Kruse           : gCP                                           
  Marcel Mueller         : wB97X-3c, vDZP basis set                      
  Hagen Neugebauer       : wr2SCAN                                       
  Tobias Risthaus        : range-separated hybrid DFT                    
  Lukas Wittmann         : regularized MP2, r2SCAN double-hybrids, wr2SCAN        
                                                                         
We gratefully acknowledge several colleagues who have allowed us to      
interface, adapt or use parts of their codes:                            
  Ed Valeev, F. Pavosevic, A. Kumar             : LibInt (2-el integral package), F12 methods 
  Garnet Chan, S. Sharma, J. Yang, R. Olivares  : DMRG                   
  Ulf Ekstrom                                   : XCFun DFT Library      
  Mihaly Kallay                                 : mrcc  (arbitrary order and MRCC methods)
  Frank Weinhold                                : gennbo (NPA and NBO analysis)           
  Simon Mueller                                 : openCOSMO-RS                            
  Christopher J. Cramer and Donald G. Truhlar   : smd solvation model                     
  S Lehtola, MJT Oliveira, MAL Marques          : LibXC Library                           
  Liviu Ungur et al                             : ANISO software                          


 Your calculation uses the libint2 library for the computation of 2-el integrals
 For citations please refer to: http://libint.valeyev.net

 Your ORCA version has been built with support for libXC version: 6.2.2
 For citations please refer to: https://libxc.gitlab.io

 This ORCA versions uses:
   CBLAS   interface :  Fast vector & matrix operations
   LAPACKE interface :  Fast linear algebra routines
   SCALAPACK package :  Parallel linear algebra routines
   Shared memory     :  Shared parallel matrices
   BLAS/LAPACK       :  OpenBLAS 0.3.27  USE64BITINT DYNAMIC_ARCH NO_AFFINITY Zen SINGLE_THREADED
        Core in use  :  Zen
   Copyright (c) 2011-2014, The OpenBLAS Project


Your calculation utilizes the geometrical counterpoise correction gCP
Please cite in your paper:
H.Kruse, S. Grimme J.Chem.Phys., 136, (2012), 154101 
   

Your calculation utilizes the atom-pairwise dispersion correction
based on EEQ partial charges (D4)


================================================================================

----- Orbital basis set information -----
Your calculation utilizes the basis: def2-SV(P)
   F. Weigend and R. Ahlrichs, Phys. Chem. Chem. Phys. 7, 3297 (2005).

----- AuxJ basis set information -----
Your calculation utilizes the auxiliary basis: def2/J
   F. Weigend, Phys. Chem. Chem. Phys. 8, 1057 (2006).

================================================================================
                                        WARNINGS
                       Please study these warnings very carefully!
================================================================================

WARNING: Old DensityContainer found on disk!
         Will remove this file - 
         If you want to keep old densities, please start your calculation with a different basename. 


================================================================================
                                       INPUT FILE
================================================================================
NAME = sp.inp
|  1> ! pbe def2-sv(p) def2/J RI DEFGRID1 loosescf d4 GCP(DFT/SV(P)) printgap
|  2> %output
|  3>     printlevel normal
|  4> end
|  5> * xyz 0 1
|  6> C 1.3778156357 0.000708869 -0.002018733
|  7> N -0.0906712308 -2.67882e-05 -0.0053176039
|  8> O -0.6404426704 -1.0727723269 0.00155736
|  9> O -0.6417537441 1.0720929403 0.0015710494
| 10> H 1.7148859925 0.0017405575 1.0349390464
| 11> H 1.7392355932 0.9008159786 -0.4941687368
| 12> H 1.7402771076 -0.8998471747 -0.4924754276
| 13> *
| 14> 
| 15>                          ****END OF INPUT****
================================================================================

                       ****************************
                       * Single Point Calculation *
                       ****************************

---------------------------------
CARTESIAN COORDINATES (ANGSTROEM)
---------------------------------
  C      1.377816    0.000709   -0.002019
  N     -0.090671   -0.000027   -0.005318
  O     -0.640443   -1.072772    0.001557
  O     -0.641754    1.072093    0.001571
  H      1.714886    0.001741    1.034939
  H      1.739236    0.900816   -0.494169
  H      1.740277   -0.899847   -0.492475

----------------------------
CARTESIAN COORDINATES (A.U.)
----------------------------
  NO LB      ZA    FRAG     MASS         X           Y           Z
   0 C     6.0000    0    12.011    2.603694    0.001340   -0.003815
   1 N     7.0000    0    14.007   -0.171344   -0.000051   -0.010049
   2 O     8.0000    0    15.999   -1.210261   -2.027246    0.002943
   3 O     8.0000    0    15.999   -1.212739    2.025962    0.002969
   4 H     1.0000    0     1.008    3.240665    0.003289    1.955751
   5 H     1.0000    0     1.008    3.286679    1.702295   -0.933844
   6 H     1.0000    0     1.008    3.288647   -1.700465   -0.930644

--------------------------------
INTERNAL COORDINATES (ANGSTROEM)
--------------------------------
 C      0   0   0     0.000000000000     0.00000000     0.00000000
 N      1   0   0     1.468490756125     0.00000000     0.00000000
 O      2   1   0     1.205437220153   117.16201481     0.00000000
 O      2   1   3     1.205479200255   117.17362804   179.13256121
 H      1   2   3     1.090366418262   108.13584327   270.38561506
 H      1   2   3     1.087671283372   109.37108487   151.72026577
 H      1   2   3     1.087624602395   109.37994908    29.04169182

---------------------------
INTERNAL COORDINATES (A.U.)
---------------------------
 C      0   0   0     0.000000000000     0.00000000     0.00000000
 N      1   0   0     2.775045359271     0.00000000     0.00000000
 O      2   1   0     2.277946217724   117.16201481     0.00000000
 O      2   1   3     2.278025548621   117.17362804   179.13256121
 H      1   2   3     2.060493916139   108.13584327   270.38561506
 H      1   2   3     2.055400849304   109.37108487   151.72026577
 H      1   2   3     2.055312635041   109.37994908    29.04169182

---------------------
BASIS SET INFORMATION
---------------------
There are 4 groups of distinct atoms

 Group   1 Type C   : 7s4p1d contracted to 3s2p1d pattern {511/31/1}
 Group   2 Type N   : 7s4p1d contracted to 3s2p1d pattern {511/31/1}
 Group   3 Type O   : 7s4p1d contracted to 3s2p1d pattern {511/31/1}
 Group   4 Type H   : 4s contracted to 2s pattern {31}

Atom   0C    basis set group =>   1
Atom   1N    basis set group =>   2
Atom   2O    basis set group =>   3
Atom   3O    basis set group =>   3
Atom   4H    basis set group =>   4
Atom   5H    basis set group =>   4
Atom   6H    basis set group =>   4
---------------------------------
AUXILIARY/J BASIS SET INFORMATION
---------------------------------
There are 4 groups of distinct atoms

 Group   1 Type C   : 12s5p4d2f1g contracted to 6s4p3d1f1g pattern {711111/2111/211/2/1}
 Group   2 Type N   : 12s5p4d2f1g contracted to 6s4p3d1f1g pattern {711111/2111/211/2/1}
 Group   3 Type O   : 12s5p4d2f1g contracted to 6s4p3d1f1g pattern {711111/2111/211/2/1}
 Group   4 Type H   : 5s2p1d contracted to 3s1p1d pattern {311/2/1}

Atom   0C    basis set group =>   1
Atom   1N    basis set group =>   2
Atom   2O    basis set group =>   3
Atom   3O    basis set group =>   3
Atom   4H    basis set group =>   4
Atom   5H    basis set group =>   4
Atom   6H    basis set group =>   4

Checking for AutoStart:
The File: sp.gbw exists
Trying to determine its content:
     ... Fine, the file contains calculation information
     ... Fine, the calculation information was read
     ... Fine, the file contains a basis set
     ... Fine, the basis set was read
     ... Fine, the file contains a geometry
     ... Fine, the geometry was read
     ... Fine, the file contains a set of orbitals
     ... Fine, the orbitals can be read
     => possible old guess file was deleted
     => GBW file was renamed to GES file
     => GES file is set as startup file
     => Guess is set to MORead
     ... now leaving AutoStart

------------------------------------------------------------------------------
                             ORCA STARTUP CALCULATIONS
                           -- RI-GTO INTEGRALS CHOSEN --
------------------------------------------------------------------------------
------------------------------------------------------------------------------
                   ___                                                        
                  /   \      - P O W E R E D   B Y -                         
                 /     \                                                     
                 |  |  |   _    _      __       _____    __    __             
                 |  |  |  | |  | |    /  \     |  _  \  |  |  /  |          
                  \  \/   | |  | |   /    \    | | | |  |  | /  /          
                 / \  \   | |__| |  /  /\  \   | |_| |  |  |/  /          
                |  |  |   |  __  | /  /__\  \  |    /   |      \           
                |  |  |   | |  | | |   __   |  |    \   |  |\   \          
                \     /   | |  | | |  |  |  |  | |\  \  |  | \   \       
                 \___/    |_|  |_| |__|  |__|  |_| \__\ |__|  \__/        
                                                                              
                      - O R C A' S   B I G   F R I E N D -                    
                                      &                                       
                       - I N T E G R A L  F E E D E R -                       
                                                                              
 v1 FN, 2020, v2 2021, v3 2022-2024                                           
------------------------------------------------------------------------------


----------------------
SHARK INTEGRAL PACKAGE
----------------------

Number of atoms                             ...      7
Number of basis functions                   ...     62
Number of shells                            ...     30
Maximum angular momentum                    ...      2
Integral batch strategy                     ... SHARK/LIBINT Hybrid
RI-J (if used) integral strategy            ... SPLIT-RIJ (Revised 2003 algorithm where possible)
Printlevel                                  ...      1
Contraction scheme used                     ... SEGMENTED contraction
Prescreening option                         ... SCHWARTZ
   Thresh                                   ... 1.000e-09
   Tcut                                     ... 1.000e-10
   Tpresel                                  ... 1.000e-10 
Coulomb Range Separation                    ... NOT USED
Exchange Range Separation                   ... NOT USED
Multipole approximations                    ... NOT USED
Finite Nucleus Model                        ... NOT USED
CABS basis                                  ... NOT available
Auxiliary Coulomb fitting basis             ... AVAILABLE
   # of basis functions in Aux-J            ...    229
   # of shells in Aux-J                     ...     75
   Maximum angular momentum in Aux-J        ...      4
Auxiliary J/K fitting basis                 ... NOT available
Auxiliary Correlation fitting basis         ... NOT available
Auxiliary 'external' fitting basis          ... NOT available

Checking pre-screening integrals            ... done (  0.0 sec) Dimension = 30
Check shell pair data                       ... done (  0.0 sec)
Shell pair information
Shell pair cut-off parameter TPreSel        ...   1.0e-10
Total number of shell pairs                 ...       465
Shell pairs after pre-screening             ...       462
Total number of primitive shell pairs       ...      1891
Primitive shell pairs kept                  ...      1510
          la=0 lb=0:    168 shell pairs
          la=1 lb=0:    144 shell pairs
          la=1 lb=1:     36 shell pairs
          la=2 lb=0:     72 shell pairs
          la=2 lb=1:     32 shell pairs
          la=2 lb=2:     10 shell pairs

Calculating one electron integrals          ... done (  0.0 sec)
Calculating RI/J V-Matrix + Cholesky decomp.... done (  0.0 sec)
Calculating Nuclear repulsion               ... done (  0.0 sec) ENN=    126.478412823850 Eh

Diagonalization of the overlap matrix:
Smallest eigenvalue                        ... 6.696e-03
Time for diagonalization                   ...    0.000 sec
Threshold for overlap eigenvalues          ... 1.000e-07
Number of eigenvalues below threshold      ... 0
Time for construction of square roots      ...    0.000 sec
Total time needed                          ...    0.001 sec

-------------------
DFT GRID GENERATION
-------------------

General Integration Accuracy     IntAcc      ... 4.159
Radial Grid Type                 RadialGrid  ... OptM3 with GC (2021)
Angular Grid (max. ang.)         AngularGrid ... 3 (Lebedev-194)
Angular grid pruning method      GridPruning ... 4 (adaptive)
Weight generation scheme         WeightScheme... mBecke (2022)
Basis function cutoff            BFCut       ... 1.0000e-10
Integration weight cutoff        WCut        ... 1.0000e-14
Partially contracted basis set               ... off
Rotationally invariant grid construction     ... off
Angular grids for H and He will be reduced by one unit

Total number of grid points                  ...    17618
Total number of batches                      ...      279
Average number of points per batch           ...       63
Average number of grid points per atom       ...     2517
Initializing property integral containers    ... done (  0.0 sec)

SHARK setup successfully completed in   0.1 seconds

Maximum memory used throughout the entire STARTUP-calculation: 9.7 MB
-------------------------------------------------------------------------------
                                 ORCA GUESS
                   Start orbitals & Density for SCF / CASSCF
-------------------------------------------------------------------------------

------------
SCF SETTINGS
------------
Hamiltonian:
 Density Functional     Method          .... DFT(GTOs)
 Exchange Functional    Exchange        .... PBE
   PBE kappa parameter   XKappa         ....  0.804000
   PBE mue parameter    XMuePBE         ....  0.219520
 Correlation Functional Correlation     .... PBE
   PBE beta parameter  CBetaPBE         ....  0.066725
 LDA part of GGA corr.  LDAOpt          .... PW91-LDA
 Gradients option       PostSCFGGA      .... off
   NL short-range parameter             ....  6.400000
 RI-approximation to the Coulomb term is turned on
   Number of AuxJ basis functions       .... 229


General Settings:
 Integral files         IntName         .... sp
 Hartree-Fock type      HFTyp           .... RHF
 Total Charge           Charge          ....    0
 Multiplicity           Mult            ....    1
 Number of Electrons    NEL             ....   32
 Basis Dimension        Dim             ....   62
 Nuclear Repulsion      ENuc            ....    126.4784128239 Eh

Convergence Acceleration:
 AO-DIIS                CNVDIIS         .... on
   Start iteration      DIISMaxIt       ....    12
   Startup error        DIISStart       ....  0.200000
   # of expansion vecs  DIISMaxEq       ....     5
   Bias factor          DIISBfac        ....   1.050
   Max. coefficient     DIISMaxC        ....  10.000
 MO-DIIS                CNVKDIIS        .... off
 Trust-Rad. Augm. Hess. CNVTRAH         .... auto
   Auto Start mean grad. ratio tolernc. ....  1.125000
   Auto Start start iteration           ....     1
   Auto Start num. interpolation iter.  ....    10
   Max. Number of Micro iterations      ....    24
   Max. Number of Macro iterations      .... Maxiter - #DIIS iter
   Number of Davidson start vectors     ....     2
   Converg. threshold    (grad. norm)   ....   1.000e-04
   Grad. Scal. Fac. for Micro threshold ....   0.100
   Minimum threshold for Micro iter.    ....   1.000e-02
   NR start threshold (gradient norm)   ....   1.000e-04
   Initial trust radius                 ....   0.400
   Minimum AH scaling param. (alpha)    ....   1.000
   Maximum AH scaling param. (alpha)    .... 1000.000
   Quad. conv. algorithm                .... NR
   White noise on init. David. guess    .... on
   Maximum white noise                  ....   0.010
   Pseudo random numbers                .... off
   Inactive MOs                         .... canonical
   Orbital update algorithm             .... Taylor
   Preconditioner                       .... Diag
   Full preconditioner red. dimension   ....   250
 SOSCF                  CNVSOSCF        .... on
   Start iteration      SOSCFMaxIt      ....   150
   Startup grad/error   SOSCFStart      ....  0.003300
   Hessian update       SOSCFHessUp     .... L-BFGS
 Level Shifting         CNVShift        .... on
   Level shift para.    LevelShift      ....    0.2500
   Turn off err/grad.   ShiftErr        ....    0.0010
 Zerner damping         CNVZerner       .... off
 Static damping         CNVDamp         .... on
   Fraction old density DampFac         ....    0.7000
   Max. Damping (<1)    DampMax         ....    0.9800
   Min. Damping (>=0)   DampMin         ....    0.0000
   Turn off err/grad.   DampErr         ....    0.1000

SCF Procedure:
 Maximum # iterations   MaxIter         ....   125
 SCF integral mode      SCFMode         .... Direct
   Integral package                     .... SHARK and LIBINT hybrid scheme
 Reset frequency        DirectResetFreq ....    20
 Integral Threshold     Thresh          ....  1.000e-09 Eh
 Primitive CutOff       TCut            ....  1.000e-10 Eh

Convergence Tolerance:
 Convergence Check Mode ConvCheckMode   .... Total+1el-Energy
 Convergence forced     ConvForced      .... 0
 Energy Change          TolE            ....  1.000e-05 Eh
 1-El. energy change                    ....  1.000e-02 Eh
 Orbital Gradient       TolG            ....  1.000e-04
 Orbital Rotation angle TolX            ....  1.000e-04
 DIIS Error             TolErr          ....  5.000e-04

---------------------
INITIAL GUESS: MOREAD
---------------------
Guess MOs are being read from file: sp.ges
Input Geometry matches current geometry (good)
Input basis set matches current basis set (good)
Occupation numbers will be reassigned to an Aufbau configuration
MOs were renormalized
MOs were reorthogonalized (Cholesky)
                      ------------------
                      INITIAL GUESS DONE (   0.0 sec)
                      ------------------
             **** ENERGY FILE WAS UPDATED (sp.en.tmp) ****
Finished Guess after   0.0 sec
Maximum memory used throughout the entire GUESS-calculation: 6.4 MB

-------------------------------------------------------------------------------------------
                                      ORCA LEAN-SCF
                              memory conserving SCF solver
-------------------------------------------------------------------------------------------

----------------------------------------D-I-I-S--------------------------------------------
Iteration    Energy (Eh)           Delta-E    RMSDP     MaxDP     DIISErr   Damp  Time(sec)
-------------------------------------------------------------------------------------------
               ***  Starting incremental Fock matrix formation  ***
                              *** Initializing SOSCF ***
---------------------------------------S-O-S-C-F--------------------------------------
Iteration    Energy (Eh)           Delta-E    RMSDP     MaxDP     MaxGrad    Time(sec)
--------------------------------------------------------------------------------------
    1    -244.5688142144192909     0.00e+00  4.81e-05  7.94e-04  9.57e-05     0.0
               *** Restarting incremental Fock matrix formation ***
    2    -244.5688138143295021     4.00e-07  9.48e-05  1.61e-03  4.05e-04     0.0
    3    -244.5688093719642495     4.44e-06  6.99e-05  1.10e-03  1.03e-03     0.0
                 **** Energy Check signals convergence ****

               *****************************************************
               *                     SUCCESS                       *
               *           SCF CONVERGED AFTER   3 CYCLES          *
               *****************************************************

             **** ENERGY FILE WAS UPDATED (sp.en.tmp) ****

----------------
TOTAL SCF ENERGY
----------------

Total Energy       :       -244.56880937196425 Eh           -6655.05564 eV

Components:
Nuclear Repulsion  :        126.47841282385011 Eh            3441.65258 eV
Electronic Energy  :       -371.04722219581436 Eh          -10096.70822 eV
One Electron Energy:       -584.17100164462272 Eh          -15896.10110 eV
Two Electron Energy:        213.12377944880839 Eh            5799.39287 eV

Virial components:
Potential Energy   :       -487.78356134168303 Eh          -13273.26550 eV
Kinetic Energy     :        243.21475196971878 Eh            6618.20986 eV
Virial Ratio       :          2.00556733253752

DFT components:
N(Alpha)           :       16.000099739856 electrons
N(Beta)            :       16.000099739856 electrons
N(Total)           :       32.000199479713 electrons
E(X)               :      -29.235032632152 Eh       
E(C)               :       -1.086340866620 Eh       
E(XC)              :      -30.321373498772 Eh       

---------------
SCF CONVERGENCE
---------------

  Last Energy change         ...   -4.4424e-06  Tolerance :   1.0000e-05
  Last MAX-Density change    ...    1.0996e-03  Tolerance :   1.0000e-03
  Last RMS-Density change    ...    6.9868e-05  Tolerance :   1.0000e-04
  Last DIIS Error            ...    4.0688e-04  Tolerance :   5.0000e-04
  Last Orbital Gradient      ...    1.0257e-03  Tolerance :   1.0000e-04
  Last Orbital Rotation      ...    6.9692e-04  Tolerance :   1.0000e-04


----------------
ORBITAL ENERGIES
----------------

  NO   OCC          E(Eh)            E(eV) 
   0   2.0000     -18.783136      -511.1151 
   1   2.0000     -18.781546      -511.0718 
   2   2.0000     -14.211479      -386.7140 
   3   2.0000      -9.945433      -270.6290 
   4   2.0000      -1.141367       -31.0582 
   5   2.0000      -0.972974       -26.4760 
   6   2.0000      -0.744158       -20.2496 
   7   2.0000      -0.550427       -14.9779 
   8   2.0000      -0.507917       -13.8211 
   9   2.0000      -0.480346       -13.0709 
  10   2.0000      -0.456513       -12.4224 
  11   2.0000      -0.401461       -10.9243 
  12   2.0000      -0.386698       -10.5226 
  13   2.0000      -0.277875        -7.5614 
  14   2.0000      -0.256429        -6.9778 
  15   2.0000      -0.237420        -6.4605 
  16   0.0000      -0.094308        -2.5663 
  17   0.0000       0.038985         1.0608 
  18   0.0000       0.083213         2.2643 
  19   0.0000       0.085314         2.3215 
  20   0.0000       0.094028         2.5586 
  21   0.0000       0.238703         6.4954 
  22   0.0000       0.328478         8.9383 
  23   0.0000       0.379009        10.3134 
  24   0.0000       0.410516        11.1707 
  25   0.0000       0.411313        11.1924 
  26   0.0000       0.530659        14.4400 
*Only the first 10 virtual orbitals were printed.

                    ********************************
                    * MULLIKEN POPULATION ANALYSIS *
                    ********************************

-----------------------
MULLIKEN ATOMIC CHARGES
-----------------------
   0 C :   -0.183440
   1 N :    0.173844
   2 O :   -0.215581
   3 O :   -0.216459
   4 H :    0.157789
   5 H :    0.141928
   6 H :    0.141919
Sum of atomic charges:    0.0000000

--------------------------------
MULLIKEN REDUCED ORBITAL CHARGES
--------------------------------
  0 C s       :     3.128563  s :     3.128563
      pz      :     1.111748  p :     3.020210
      px      :     0.813053
      py      :     1.095410
      dz2     :     0.007651  d :     0.034667
      dxz     :     0.004934
      dyz     :     0.004746
      dx2y2   :     0.012014
      dxy     :     0.005322

  1 N s       :     3.321742  s :     3.321742
      pz      :     1.208457  p :     3.384218
      px      :     1.158120
      py      :     1.017641
      dz2     :     0.004714  d :     0.120196
      dxz     :     0.006299
      dyz     :     0.028568
      dx2y2   :     0.045314
      dxy     :     0.035301

  2 O s       :     3.862281  s :     3.862281
      pz      :     1.385849  p :     4.330478
      px      :     1.679581
      py      :     1.265049
      dz2     :     0.002677  d :     0.022821
      dxz     :     0.001584
      dyz     :     0.005545
      dx2y2   :     0.006109
      dxy     :     0.006907

  3 O s       :     3.862304  s :     3.862304
      pz      :     1.386582  p :     4.331339
      px      :     1.678923
      py      :     1.265834
      dz2     :     0.002676  d :     0.022816
      dxz     :     0.001590
      dyz     :     0.005536
      dx2y2   :     0.006100
      dxy     :     0.006914

  4 H s       :     0.842211  s :     0.842211

  5 H s       :     0.858072  s :     0.858072

  6 H s       :     0.858081  s :     0.858081


------------------------
MULLIKEN OVERLAP CHARGES
------------------------
B(  0-C ,  1-N ) :   0.6992 B(  0-C ,  2-O ) :  -0.1888 B(  0-C ,  3-O ) :  -0.1888 
B(  0-C ,  4-H ) :   0.7521 B(  0-C ,  5-H ) :   0.7144 B(  0-C ,  6-H ) :   0.7145 
B(  1-N ,  2-O ) :   0.6269 B(  1-N ,  3-O ) :   0.6262 B(  2-O ,  3-O ) :  -0.2277 



                     *******************************
                     * LOEWDIN POPULATION ANALYSIS *
                     *******************************

----------------------
LOEWDIN ATOMIC CHARGES
----------------------
   0 C :   -0.289090
   1 N :    0.229526
   2 O :   -0.184201
   3 O :   -0.185048
   4 H :    0.150784
   5 H :    0.139016
   6 H :    0.139014

-------------------------------
LOEWDIN REDUCED ORBITAL CHARGES
-------------------------------
  0 C s       :     2.978391  s :     2.978391
      pz      :     1.154382  p :     3.226629
      px      :     0.912903
      py      :     1.159345
      dz2     :     0.018098  d :     0.084070
      dxz     :     0.011997
      dyz     :     0.011770
      dx2y2   :     0.028918
      dxy     :     0.013287

  1 N s       :     3.044847  s :     3.044847
      pz      :     1.148191  p :     3.466424
      px      :     1.185034
      py      :     1.133199
      dz2     :     0.012499  d :     0.259203
      dxz     :     0.009630
      dyz     :     0.051182
      dx2y2   :     0.104477
      dxy     :     0.081415

  2 O s       :     3.613618  s :     3.613618
      pz      :     1.397345  p :     4.525896
      px      :     1.720525
      py      :     1.408027
      dz2     :     0.006738  d :     0.044688
      dxz     :     0.002114
      dyz     :     0.008068
      dx2y2   :     0.011713
      dxy     :     0.016055

  3 O s       :     3.613673  s :     3.613673
      pz      :     1.398058  p :     4.526697
      px      :     1.720028
      py      :     1.408611
      dz2     :     0.006737  d :     0.044678
      dxz     :     0.002123
      dyz     :     0.008055
      dx2y2   :     0.011683
      dxy     :     0.016080

  4 H s       :     0.849216  s :     0.849216

  5 H s       :     0.860984  s :     0.860984

  6 H s       :     0.860986  s :     0.860986


---------------------------------
LOEWDIN BOND ORDERS (THRESH 0.050000)
---------------------------------
B(  0-C ,  1-N ) :   1.0291 B(  0-C ,  2-O ) :   0.1279 B(  0-C ,  3-O ) :   0.1279 
B(  0-C ,  4-H ) :   0.9277 B(  0-C ,  5-H ) :   0.9362 B(  0-C ,  6-H ) :   0.9362 
B(  1-N ,  2-O ) :   1.9305 B(  1-N ,  3-O ) :   1.9299 B(  2-O ,  3-O ) :   0.4318 


------------------------------------------
LOEWDIN REDUCED ORBITAL POPULATIONS PER MO
-------------------------------------------
THRESHOLD FOR PRINTING IS 0.1%%
                      0         1         2         3         4         5   
                 -18.78314 -18.78155 -14.21148  -9.94543  -1.14137  -0.97297
                   2.00000   2.00000   2.00000   2.00000   2.00000   2.00000
                  --------  --------  --------  --------  --------  --------
 0 C  s               0.0       0.0       0.0      99.7       2.0       0.0
 0 C  px              0.0       0.0       0.1       0.0       3.7       0.0
 0 C  py              0.0       0.0       0.0       0.0       0.0       0.5
 0 C  dx2y2           0.0       0.0       0.0       0.0       0.1       0.0
 1 N  s               0.0       0.0      99.6       0.0      37.8       0.0
 1 N  px              0.0       0.0       0.0       0.1       2.9       0.0
 1 N  py              0.1       0.1       0.0       0.0       0.0      39.4
 1 N  dz2             0.0       0.0       0.0       0.0       0.5       0.0
 1 N  dx2y2           0.0       0.0       0.0       0.0       0.3       0.0
 1 N  dxy             0.0       0.0       0.0       0.0       0.0       1.4
 2 O  s               0.0      99.9       0.0       0.0      18.4      25.7
 2 O  px              0.0       0.0       0.0       0.0       1.2       1.3
 2 O  py              0.0       0.0       0.1       0.0       5.9       2.1
 2 O  dx2y2           0.0       0.0       0.0       0.0       0.1       0.0
 2 O  dxy             0.0       0.0       0.0       0.0       0.2       0.2
 3 O  s              99.9       0.0       0.0       0.0      18.6      25.6
 3 O  px              0.0       0.0       0.0       0.0       1.2       1.3
 3 O  py              0.0       0.0       0.1       0.0       5.9       2.1
 3 O  dx2y2           0.0       0.0       0.0       0.0       0.1       0.0
 3 O  dxy             0.0       0.0       0.0       0.0       0.2       0.2
 4 H  s               0.0       0.0       0.0       0.1       0.3       0.0
 5 H  s               0.0       0.0       0.0       0.1       0.3       0.0
 6 H  s               0.0       0.0       0.0       0.1       0.3       0.0

                      6         7         8         9        10        11   
                  -0.74416  -0.55043  -0.50792  -0.48035  -0.45651  -0.40146
                   2.00000   2.00000   2.00000   2.00000   2.00000   2.00000
                  --------  --------  --------  --------  --------  --------
 0 C  s              32.5      11.8       0.0       1.0       0.0       0.0
 0 C  pz              0.0       0.0      13.6       0.0       0.0       0.0
 0 C  px              2.1      19.7       0.0      10.0       0.0       0.0
 0 C  py              0.0       0.0       0.0       0.0      11.9      44.0
 0 C  dz2             0.0       0.2       0.1       0.1       0.0       0.0
 0 C  dxz             0.0       0.0       0.1       0.0       0.0       0.0
 0 C  dyz             0.0       0.0       0.0       0.0       0.1       0.4
 0 C  dx2y2           0.2       0.8       0.0       0.2       0.0       0.0
 0 C  dxy             0.0       0.0       0.0       0.0       0.0       0.4
 1 N  s               3.8       8.7       0.0       1.6       0.0       0.0
 1 N  pz              0.0       0.0      51.3       0.0       0.0       0.0
 1 N  px             31.8       6.0       0.0      16.3       0.0       0.0
 1 N  py              0.0       0.0       0.0       0.0      12.0       4.3
 1 N  dx2y2           0.4       0.0       0.0       0.2       0.0       0.0
 1 N  dxy             0.0       0.0       0.0       0.0       0.2       0.6
 2 O  s               3.8       7.9       0.0      11.1      12.5       1.2
 2 O  pz              0.0       0.0      14.3       0.0       0.0       0.0
 2 O  px              1.4       3.3       0.0       0.2      10.8       0.7
 2 O  py              0.2       3.1       0.0      21.0      11.9       6.9
 2 O  dyz             0.0       0.0       0.3       0.0       0.0       0.0
 2 O  dx2y2           0.1       0.0       0.0       0.4       0.0       0.0
 2 O  dxy             0.0       0.1       0.0       0.0       0.2       0.0
 3 O  s               3.8       8.0       0.0      11.5      11.9       1.1
 3 O  pz              0.0       0.0      14.4       0.0       0.0       0.0
 3 O  px              1.4       3.3       0.0       0.2      10.9       0.7
 3 O  py              0.2       3.2       0.0      21.7      11.3       6.8
 3 O  dyz             0.0       0.0       0.3       0.0       0.0       0.0
 3 O  dx2y2           0.1       0.0       0.0       0.4       0.0       0.0
 3 O  dxy             0.0       0.2       0.0       0.0       0.2       0.0
 4 H  s               6.3       7.9       3.4       1.7       0.0       0.0
 5 H  s               5.9       7.8       1.0       1.2       2.9      16.3
 6 H  s               5.9       7.8       1.0       1.2       3.0      16.3

                     12        13        14        15        16        17   
                  -0.38670  -0.27788  -0.25643  -0.23742  -0.09431   0.03898
                   2.00000   2.00000   2.00000   2.00000   0.00000   0.00000
                  --------  --------  --------  --------  --------  --------
 0 C  s               0.0       0.0       1.8       0.0       0.0      23.1
 0 C  pz             43.9       0.0       0.1       0.0       0.0       0.5
 0 C  px              0.1       0.0      10.0       0.0       0.0       7.7
 0 C  py              0.0       0.1       0.0       1.4       0.0       0.0
 0 C  dz2             0.4       0.0       0.0       0.0       0.1       0.2
 0 C  dxz             0.5       0.0       0.0       0.0       1.2       0.0
 0 C  dx2y2           0.1       0.0       0.1       0.0       0.0       0.2
 0 C  dxy             0.0       0.0       0.0       0.2       0.0       0.0
 1 N  s               0.0       0.0       0.7       0.0       0.0       0.0
 1 N  pz              6.1       0.0       0.0       0.0      37.3       0.0
 1 N  px              0.0       0.0       2.1       0.0       0.0       1.4
 1 N  py              0.0       0.0       0.0       0.8       0.0       0.0
 1 N  dz2             0.0       0.0       0.0       0.0       0.0       0.2
 1 N  dxz             0.5       0.0       0.0       0.0       0.7       0.0
 1 N  dyz             0.0       2.6       0.0       0.0       0.0       0.0
 1 N  dx2y2           0.0       0.0       4.3       0.0       0.0       0.0
 1 N  dxy             0.0       0.0       0.0       1.9       0.0       0.0
 2 O  s               0.0       0.0       0.2       0.1       0.0       0.3
 2 O  pz              6.8      48.6       0.0       0.1      27.4       0.0
 2 O  px              0.0       0.0      37.2      30.0       0.0       0.2
 2 O  py              0.0       0.0       1.3      17.8       0.0       0.0
 2 O  dxz             0.0       0.0       0.0       0.0       0.1       0.0
 2 O  dyz             0.1       0.0       0.0       0.0       0.4       0.0
 3 O  s               0.0       0.0       0.2       0.1       0.0       0.3
 3 O  pz              6.9      48.5       0.0       0.1      27.4       0.0
 3 O  px              0.0       0.0      39.3      27.8       0.0       0.2
 3 O  py              0.0       0.0       1.6      17.5       0.0       0.0
 3 O  dxz             0.0       0.0       0.0       0.0       0.1       0.0
 3 O  dyz             0.1       0.0       0.0       0.0       0.4       0.0
 4 H  s              22.5       0.0       0.2       0.0       3.2      29.6
 5 H  s               5.9       0.0       0.4       1.2       0.8      17.9
 6 H  s               5.9       0.0       0.4       1.2       0.8      17.8

                     18        19        20        21        22        23   
                   0.08321   0.08531   0.09403   0.23870   0.32848   0.37901
                   0.00000   0.00000   0.00000   0.00000   0.00000   0.00000
                  --------  --------  --------  --------  --------  --------
 0 C  s               0.0       3.3       2.5       2.0       0.0       0.0
 0 C  pz              0.0       5.4      21.9       0.6       0.0      45.8
 0 C  px              0.0      38.1       8.8      12.0       0.0       0.0
 0 C  py             25.8       0.0       0.0       0.0       0.4       0.0
 0 C  dz2             0.0       0.6       2.4       0.3       0.0       7.4
 0 C  dxz             0.0       0.0       0.1       0.0       0.0       1.6
 0 C  dyz             1.5       0.0       0.0       0.0       0.2       0.0
 0 C  dx2y2           0.0       7.1       0.4       0.1       0.0       2.4
 0 C  dxy             0.6       0.0       0.0       0.0       6.5       0.0
 1 N  s               0.0      12.8       3.1      16.7       0.0       0.4
 1 N  pz              0.0       0.4       1.5       0.0       0.0       6.6
 1 N  px              0.0      10.5       3.2      12.5       0.0       0.2
 1 N  py              1.5       0.0       0.0       0.0      30.0       0.0
 1 N  dz2             0.0       1.5       0.1       8.2       0.0       0.0
 1 N  dxz             0.0       0.1       0.2       0.0       0.0       0.8
 1 N  dx2y2           0.0       0.2       0.0       2.3       0.0       0.1
 1 N  dxy             1.0       0.0       0.0       0.0       9.1       0.0
 2 O  s               0.1       0.0       0.1       7.0       5.6       0.2
 2 O  pz              0.2       0.2       0.6       0.0       0.0       0.3
 2 O  px              0.5       0.9       0.5       0.2       7.3       0.2
 2 O  py              0.3       0.9       0.0      12.9       4.4       0.1
 2 O  dz2             0.0       0.0       0.0       0.3       0.6       0.0
 2 O  dyz             0.0       0.0       0.0       0.0       0.0       0.1
 2 O  dx2y2           0.0       0.0       0.0       1.6       0.0       0.0
 2 O  dxy             0.0       0.4       0.1       0.2       1.8       0.0
 3 O  s               0.1       0.0       0.1       7.0       5.6       0.2
 3 O  pz              0.2       0.2       0.6       0.0       0.0       0.3
 3 O  px              0.5       0.9       0.5       0.2       7.3       0.2
 3 O  py              0.3       0.9       0.0      12.9       4.3       0.1
 3 O  dz2             0.0       0.0       0.0       0.3       0.6       0.0
 3 O  dyz             0.0       0.0       0.0       0.0       0.0       0.1
 3 O  dx2y2           0.0       0.0       0.0       1.6       0.0       0.0
 3 O  dxy             0.0       0.4       0.1       0.2       1.8       0.0
 4 H  s               0.0       9.8      27.2       0.9       0.0      20.5
 5 H  s              33.8       2.4      12.9       0.0       7.2       6.1
 6 H  s              33.5       2.8      12.9       0.0       7.2       6.0

                     24        25        26        27        28        29   
                   0.41052   0.41131   0.53066   0.59922   0.60101   0.60694
                   0.00000   0.00000   0.00000   0.00000   0.00000   0.00000
                  --------  --------  --------  --------  --------  --------
 0 C  s              11.1       0.0       7.9       0.0      48.6       0.9
 0 C  pz              0.1       0.0       0.4       0.0       2.1      54.8
 0 C  px             52.3       0.1       2.4       0.0      19.7       0.9
 0 C  py              0.1      53.5       0.0      45.0       0.0       0.0
 0 C  dz2             0.0       0.0       0.4       0.0       0.1       0.3
 0 C  dxz             0.0       0.0       0.1       0.0       0.0       2.0
 0 C  dyz             0.0      10.0       0.0       0.4       0.0       0.0
 0 C  dx2y2           0.2       0.0       0.7       0.0       0.3       0.4
 0 C  dxy             0.0       0.2       0.0       3.1       0.0       0.0
 1 N  s               2.0       0.0      46.9       0.0       1.8       0.0
 1 N  pz              0.0       0.0       0.1       0.0       0.1       1.0
 1 N  px             18.0       0.0       3.8       0.0       0.1       0.3
 1 N  py              0.0       6.0       0.0      11.9       0.0       0.0
 1 N  dz2             0.4       0.0       0.7       0.0       0.1       0.0
 1 N  dx2y2           2.7       0.0       0.1       0.0       0.0       0.0
 1 N  dxy             0.0       0.4       0.0       0.0       0.0       0.0
 2 O  s               0.1       0.5       2.4       0.2       0.2       0.4
 2 O  pz              0.0       0.2       0.0       0.5       0.0       0.0
 2 O  px              0.6       1.4       1.6       0.5       0.0       0.1
 2 O  py              2.8       1.9       1.4       1.3       0.3       0.4
 2 O  dz2             0.1       0.1       0.6       0.3       0.0       0.0
 2 O  dx2y2           0.9       0.2       0.2       0.1       0.0       0.0
 2 O  dxy             0.1       0.7       1.0       0.3       0.0       0.0
 3 O  s               0.1       0.4       2.4       0.2       0.2       0.4
 3 O  pz              0.0       0.2       0.0       0.6       0.0       0.0
 3 O  px              0.7       1.3       1.6       0.5       0.0       0.1
 3 O  py              3.2       1.5       1.4       1.3       0.3       0.4
 3 O  dz2             0.1       0.1       0.6       0.3       0.0       0.0
 3 O  dx2y2           1.0       0.1       0.2       0.1       0.0       0.0
 3 O  dxy             0.1       0.7       1.0       0.3       0.0       0.0
 4 H  s               0.6       0.0      11.5       0.0      13.4      16.6
 5 H  s               1.0      10.6       5.3      16.9       5.9      10.4
 6 H  s               1.7       9.8       5.3      16.1       6.6      10.4

                     30        31        32        33        34        35   
                   0.69557   0.70585   0.75939   0.85506   0.86079   0.91933
                   0.00000   0.00000   0.00000   0.00000   0.00000   0.00000
                  --------  --------  --------  --------  --------  --------
 0 C  s              15.0       9.8       0.0       0.4       0.0       0.0
 0 C  pz              0.9       1.8       0.0       0.4       0.0       0.0
 0 C  px              1.0       0.6       0.0       0.4       0.0       0.0
 0 C  py              0.0       0.0       5.2       0.0       1.4       1.0
 0 C  dz2             1.5       1.1       0.0       0.0       0.0       0.0
 0 C  dxz             0.2       0.3       0.0       0.0       0.0       0.0
 0 C  dyz             0.0       0.0       5.3       0.0       1.0       0.1
 0 C  dx2y2           0.1       0.7       0.0       0.0       0.0       0.0
 0 C  dxy             0.0       0.0       3.3       0.0       3.0       0.4
 1 N  s               3.4       1.8       0.0       2.5       0.0       0.0
 1 N  pz             29.4      42.3       0.0       0.0       0.0       0.0
 1 N  px              9.5       7.6       0.0       0.1       0.0       0.0
 1 N  py              0.0       0.0      54.0       0.0       3.0       0.9
 1 N  dz2             0.2       0.1       0.0       1.4       0.0       0.0
 1 N  dyz             0.0       0.0       0.0       0.0       0.0       0.1
 1 N  dx2y2           0.0       0.1       0.0       0.5       0.0       0.0
 1 N  dxy             0.0       0.0       1.1       0.0       3.1       0.2
 2 O  s               0.1       0.5       5.6       6.4       8.7       0.1
 2 O  pz              2.3       7.2       0.2       0.0       1.0      47.0
 2 O  px              8.1       3.8       0.0       3.8      13.4       0.1
 2 O  py              0.8       0.5       4.5      31.9      24.1       0.5
 2 O  dz2             0.1       0.1       0.4       0.2       0.2       0.0
 2 O  dyz             0.0       0.0       0.0       0.0       0.0       0.2
 2 O  dx2y2           0.0       0.0       0.9       0.1       0.5       0.0
 2 O  dxy             0.0       0.1       0.2       0.5       0.1       0.0
 3 O  s               0.1       0.5       5.6       7.8       7.3       0.1
 3 O  pz              2.3       7.2       0.2       0.1       1.0      48.1
 3 O  px              8.1       3.8       0.0       5.2      12.1       0.1
 3 O  py              0.8       0.5       4.5      37.0      18.8       0.5
 3 O  dz2             0.1       0.1       0.4       0.2       0.1       0.0
 3 O  dyz             0.0       0.0       0.0       0.0       0.0       0.2
 3 O  dx2y2           0.0       0.0       0.9       0.2       0.5       0.0
 3 O  dxy             0.0       0.1       0.2       0.5       0.1       0.0
 4 H  s               9.8       0.6       0.0       0.1       0.0       0.0
 5 H  s               3.1       4.5       3.8       0.2       0.3       0.3
 6 H  s               3.1       4.5       3.8       0.2       0.3       0.3

                     36        37        38        39        40        41   
                   0.95247   0.97438   1.02457   1.04584   1.23910   1.33050
                   0.00000   0.00000   0.00000   0.00000   0.00000   0.00000
                  --------  --------  --------  --------  --------  --------
 0 C  s               3.1       7.8       0.0       3.3       5.7       0.0
 0 C  pz              0.3       0.2       0.0       0.8       0.7       0.0
 0 C  px              0.3       0.8       0.0       0.7       0.3       0.0
 0 C  py              0.0       0.0       1.6       0.0       0.0       2.2
 0 C  dz2             0.6       0.2       0.0       0.6       1.2       0.0
 0 C  dxz             1.8       1.3       0.0       0.0       1.7       0.0
 0 C  dyz             0.0       0.0       0.8       0.0       0.0       0.2
 0 C  dx2y2           0.1       0.0       0.0       1.3       0.5       0.0
 0 C  dxy             0.0       0.0       0.1       0.0       0.0      10.4
 1 N  s               9.9       8.8       0.0      11.6       0.9       0.0
 1 N  pz              8.6       5.2       0.0       1.5       0.7       0.0
 1 N  px              1.7       0.5       0.0      39.1      10.1       0.0
 1 N  py              0.0       0.0       1.9       0.0       0.0       1.9
 1 N  dz2             1.8       1.6       0.0       3.2       0.1       0.0
 1 N  dxz             0.4       0.3       0.0       0.0       1.2       0.0
 1 N  dx2y2           0.3       0.0       0.0       7.1       0.3       0.0
 1 N  dxy             0.0       0.0       0.8       0.0       0.0       0.0
 2 O  s               1.4       0.9       0.0       1.4      28.1      28.3
 2 O  pz             23.4      14.6       0.0       1.2       0.1       0.0
 2 O  px              6.1      14.2      32.2       7.9       3.0       1.9
 2 O  py              3.5       3.7      13.6       0.1       1.8       7.5
 2 O  dz2             0.1       0.3       0.1       0.0       0.4       2.2
 2 O  dxz             0.2       0.1       0.0       0.0       0.0       0.0
 2 O  dyz             0.3       0.2       0.0       0.1       0.2       0.0
 2 O  dx2y2           0.1       0.4       1.3       1.1       3.6       0.2
 2 O  dxy             0.1       0.0       0.2       3.4       0.4       2.6
 3 O  s               1.4       0.9       0.0       1.4      28.3      28.1
 3 O  pz             22.6      14.3       0.0       1.2       0.1       0.0
 3 O  px              6.2      14.5      32.0       7.7       3.0       1.9
 3 O  py              3.5       3.8      13.5       0.1       1.8       7.5
 3 O  dz2             0.1       0.3       0.1       0.0       0.4       2.2
 3 O  dxz             0.2       0.1       0.0       0.0       0.0       0.0
 3 O  dyz             0.3       0.2       0.0       0.1       0.2       0.0
 3 O  dx2y2           0.1       0.5       1.3       1.1       3.6       0.2
 3 O  dxy             0.1       0.0       0.3       3.4       0.4       2.6
 4 H  s               0.6       1.1       0.0       0.3       0.9       0.0
 5 H  s               0.4       1.5       0.1       0.1       0.2       0.0
 6 H  s               0.4       1.5       0.1       0.1       0.2       0.0

                     42        43        44        45        46        47   
                   1.44974   1.68375   1.82829   1.83937   1.96585   2.04144
                   0.00000   0.00000   0.00000   0.00000   0.00000   0.00000
                  --------  --------  --------  --------  --------  --------
 0 C  s               0.4       0.0       2.5       0.0       0.0       0.0
 0 C  pz              0.3       0.0       0.0       0.0       4.7       0.0
 0 C  px              0.0       0.0       3.3       0.0       0.0       0.0
 0 C  py              0.0       0.5       0.0       2.6       0.0       2.1
 0 C  dz2             6.8       0.0      10.6       0.0      52.8       0.0
 0 C  dxz            48.1       0.0       0.0       0.0       0.8       0.0
 0 C  dyz             0.0       4.6       0.0      38.4       0.0      36.2
 0 C  dx2y2           2.7       0.0      44.9       0.0      12.8       0.0
 0 C  dxy             0.0       0.2       0.0      30.2       0.0      35.4
 1 N  s               0.3       0.0       3.3       0.0       0.8       0.0
 1 N  pz              2.9       0.0       0.0       0.0       0.6       0.0
 1 N  px              0.2       0.0       7.5       0.0       0.1       0.0
 1 N  py              0.0       0.4       0.0      11.1       0.0       3.4
 1 N  dz2             0.0       0.0       7.2       0.0       1.4       0.0
 1 N  dxz            25.9       0.0       0.0       0.0      10.5       0.0
 1 N  dyz             0.0      60.5       0.0       2.6       0.0       0.7
 1 N  dx2y2           0.0       0.0      13.7       0.0       0.3       0.0
 1 N  dxy             0.0       0.1       0.0       0.0       0.0       1.1
 2 O  s               1.5       0.1       0.3       2.6       0.4       1.5
 2 O  pz              0.9       1.0       0.0       0.0       0.0       0.0
 2 O  px              0.3       0.0       0.5       0.4       0.0       0.1
 2 O  py              0.1       0.0       0.0       0.2       0.0       0.1
 2 O  dz2             0.0       0.0       0.3       0.0       0.2       0.4
 2 O  dxz             0.1       5.2       0.0       0.5       0.0       0.2
 2 O  dyz             2.7      10.1       0.0       0.8       0.8       0.4
 2 O  dx2y2           0.2       0.0       0.3       0.5       0.0       0.4
 2 O  dxy             0.1       0.0       0.6       1.7       0.3       1.4
 3 O  s               1.5       0.1       0.2       2.6       0.4       1.5
 3 O  pz              0.9       1.0       0.0       0.0       0.0       0.0
 3 O  px              0.3       0.0       0.5       0.4       0.0       0.1
 3 O  py              0.1       0.0       0.0       0.2       0.0       0.1
 3 O  dz2             0.0       0.0       0.3       0.0       0.2       0.4
 3 O  dxz             0.1       5.3       0.0       0.5       0.0       0.2
 3 O  dyz             2.7      10.1       0.0       0.8       0.8       0.4
 3 O  dx2y2           0.2       0.0       0.3       0.5       0.0       0.4
 3 O  dxy             0.1       0.0       0.6       1.7       0.3       1.4
 4 H  s               0.6       0.0       0.6       0.0       7.9       0.0
 5 H  s               0.0       0.4       1.2       0.8       1.9       6.1
 6 H  s               0.0       0.4       1.2       0.8       1.9       6.1

                     48        49        50        51        52        53   
                   2.13132   2.26773   2.31707   2.42233   2.50900   2.53991
                   0.00000   0.00000   0.00000   0.00000   0.00000   0.00000
                  --------  --------  --------  --------  --------  --------
 0 C  s               0.0       0.0       0.2       2.6       0.0       0.0
 0 C  pz              0.2       0.0       0.1       0.0       0.0       0.0
 0 C  px              0.0       0.0       0.1       3.5       0.0       0.0
 0 C  py              0.0       0.0       0.0       0.0       0.0       0.2
 0 C  dz2             2.5       0.0       1.8       5.0       0.0       0.0
 0 C  dxz            37.2       0.0       0.2       0.0       0.0       0.0
 0 C  dyz             0.0       0.2       0.0       0.0       0.0       0.2
 0 C  dx2y2           0.7       0.0       1.0      17.7       0.0       0.0
 0 C  dxy             0.0       0.8       0.0       0.0       0.0       0.1
 1 N  s               0.1       0.0       4.5       3.9       0.0       0.0
 1 N  pz              1.5       0.0       0.0       0.0       0.0       0.0
 1 N  px              0.0       0.0       3.3       6.5       0.0       0.0
 1 N  py              0.0       6.9       0.0       0.0       0.0       0.9
 1 N  dz2             0.1       0.0      33.4       5.5       0.0       0.0
 1 N  dxz            36.3       0.0       0.0       0.0       0.0       0.0
 1 N  dx2y2           0.0       0.0      13.9      14.9       0.0       0.0
 1 N  dxy             0.0      37.5       0.0       0.0       0.0       1.1
 2 O  s               0.0       1.9       1.4       0.1       0.0       0.2
 2 O  pz              0.1       0.0       0.0       0.0       0.0       0.0
 2 O  px              0.0       0.0       1.7       0.1       0.0       0.0
 2 O  py              0.0       3.1       1.4       0.0       0.0       0.4
 2 O  dz2             0.1       0.6      10.9       9.0       0.1      35.0
 2 O  dxz             1.7       0.0       0.0       0.0      32.1       0.0
 2 O  dyz             7.7       0.0       0.0       0.0      17.1       0.1
 2 O  dx2y2           0.0      21.7       1.5       1.1       0.0       0.1
 2 O  dxy             0.0       0.0       3.6       9.5       0.1      13.0
 3 O  s               0.0       1.9       1.4       0.1       0.0       0.2
 3 O  pz              0.1       0.0       0.0       0.0       0.0       0.0
 3 O  px              0.0       0.0       1.7       0.1       0.0       0.0
 3 O  py              0.0       3.1       1.4       0.0       0.0       0.4
 3 O  dz2             0.1       0.6      11.0       9.1       0.1      35.0
 3 O  dxz             1.7       0.0       0.0       0.0      33.2       0.0
 3 O  dyz             7.7       0.0       0.0       0.0      17.2       0.1
 3 O  dx2y2           0.0      21.7       1.5       1.1       0.0       0.1
 3 O  dxy             0.0       0.0       3.6       9.6       0.1      13.0
 4 H  s               1.3       0.0       0.2       0.2       0.0       0.0
 5 H  s               0.4       0.0       0.1       0.2       0.0       0.0
 6 H  s               0.4       0.0       0.1       0.2       0.0       0.0

                     54        55        56        57        58        59   
                   2.55200   2.67034   2.95251   3.06386   3.21581   3.31878
                   0.00000   0.00000   0.00000   0.00000   0.00000   0.00000
                  --------  --------  --------  --------  --------  --------
 0 C  s               0.0       0.7       0.0       0.0       0.0       0.1
 0 C  px              0.0       1.0       0.0       0.0       0.0       0.3
 0 C  py              0.0       0.0       0.0       0.2       0.0       0.0
 0 C  dz2             0.1       2.0       0.1       0.0       0.0       0.3
 0 C  dxz             1.8       0.0       0.9       0.0       0.0       0.0
 0 C  dyz             0.0       0.0       0.0       0.1       0.3       0.0
 0 C  dx2y2           0.0       2.5       0.0       0.0       0.0       1.3
 0 C  dxy             0.0       0.0       0.0       4.5       0.0       0.0
 1 N  s               0.0       1.0       0.0       0.0       0.0       5.7
 1 N  pz              0.7       0.0       2.1       0.0       0.0       0.0
 1 N  px              0.0       1.1       0.0       0.0       0.0       2.3
 1 N  py              0.0       0.0       0.0       2.2       0.0       0.0
 1 N  dz2             0.0      24.3       0.0       0.0       0.0       4.0
 1 N  dxz             2.6       0.0      20.4       0.0       0.0       0.0
 1 N  dyz             0.0       0.0       0.0       0.0      33.5       0.0
 1 N  dx2y2           0.0       1.3       0.0       0.0       0.0      12.1
 1 N  dxy             0.0       0.0       0.0      20.7       0.0       0.0
 2 O  s               0.0       0.3       0.0       2.9       0.0       2.3
 2 O  pz              0.2       0.0       0.7       0.0       0.5       0.0
 2 O  px              0.0       0.0       0.0       1.0       0.0       0.0
 2 O  py              0.0       0.5       0.0       0.7       0.0       1.1
 2 O  dz2             0.0      18.2       0.0       4.2       0.0       4.6
 2 O  dxz            47.5       0.0       0.7       0.0      11.3       0.0
 2 O  dyz             0.2       0.0      36.7       0.0      21.3       0.0
 2 O  dx2y2           0.0       9.1       0.0       8.9       0.0      28.9
 2 O  dxy             0.0       4.9       0.0      18.1       0.0       0.0
 3 O  s               0.0       0.3       0.0       2.9       0.0       2.3
 3 O  pz              0.2       0.0       0.7       0.0       0.5       0.0
 3 O  px              0.0       0.0       0.0       1.0       0.0       0.0
 3 O  py              0.0       0.5       0.0       0.7       0.0       1.1
 3 O  dz2             0.0      18.0       0.0       4.2       0.0       4.7
 3 O  dxz            46.3       0.0       0.7       0.0      11.3       0.0
 3 O  dyz             0.1       0.0      36.8       0.0      21.2       0.0
 3 O  dx2y2           0.0       9.1       0.0       9.0       0.0      29.0
 3 O  dxy             0.0       4.9       0.0      18.1       0.0       0.0
 4 H  s               0.1       0.1       0.0       0.0       0.0       0.0
 5 H  s               0.0       0.0       0.0       0.1       0.0       0.0
 6 H  s               0.0       0.0       0.0       0.1       0.0       0.0

                     60        61   
                   3.58400   3.65355
                   0.00000   0.00000
                  --------  --------
 0 C  px              0.0       0.2
 0 C  dz2             0.0       0.1
 0 C  dx2y2           0.0       0.6
 0 C  dxy             0.5       0.0
 1 N  s               0.0       5.4
 1 N  px              0.0       1.2
 1 N  py              7.1       0.0
 1 N  dz2             0.0       3.6
 1 N  dx2y2           0.0      25.1
 1 N  dxy            19.9       0.0
 2 O  s               3.5       1.6
 2 O  px              0.2       1.0
 2 O  py              2.2       0.7
 2 O  dz2             5.8       4.3
 2 O  dx2y2          15.4       0.1
 2 O  dxy             9.0      24.2
 3 O  s               3.6       1.6
 3 O  px              0.2       1.0
 3 O  py              2.3       0.7
 3 O  dz2             5.8       4.2
 3 O  dx2y2          15.2       0.2
 3 O  dxy             9.2      24.0


                      *****************************
                      * MAYER POPULATION ANALYSIS *
                      *****************************

  NA   - Mulliken gross atomic population
  ZA   - Total nuclear charge
  QA   - Mulliken gross atomic charge
  VA   - Mayer's total valence
  BVA  - Mayer's bonded valence
  FA   - Mayer's free valence

  ATOM       NA         ZA         QA         VA         BVA        FA
  0 C      6.1834     6.0000    -0.1834     3.8368     3.8368    -0.0000
  1 N      6.8262     7.0000     0.1738     4.0785     4.0785     0.0000
  2 O      8.2156     8.0000    -0.2156     1.9670     1.9670     0.0000
  3 O      8.2165     8.0000    -0.2165     1.9662     1.9662     0.0000
  4 H      0.8422     1.0000     0.1578     0.9584     0.9584    -0.0000
  5 H      0.8581     1.0000     0.1419     0.9725     0.9725     0.0000
  6 H      0.8581     1.0000     0.1419     0.9726     0.9726    -0.0000

  Mayer bond orders larger than 0.100000
B(  0-C ,  1-N ) :   0.9250 B(  0-C ,  4-H ) :   0.9406 B(  0-C ,  5-H ) :   0.9431 
B(  0-C ,  6-H ) :   0.9431 B(  1-N ,  2-O ) :   1.5643 B(  1-N ,  3-O ) :   1.5635 
B(  2-O ,  3-O ) :   0.3141 

-------
TIMINGS
-------

Total SCF time: 0 days 0 hours 0 min 0 sec 

Total time                  ....       0.174 sec
Sum of individual times     ....       0.168 sec  ( 96.6%)

SCF preparation             ....       0.021 sec  ( 12.0%)
Fock matrix formation       ....       0.133 sec  ( 76.7%)
  Startup                   ....       0.000 sec  (  0.3% of F)
  Split-RI-J                ....       0.040 sec  ( 29.8% of F)
  XC integration            ....       0.092 sec  ( 69.1% of F)
    Basis function eval.    ....       0.040 sec  ( 43.6% of XC)
    Density eval.           ....       0.016 sec  ( 17.0% of XC)
    XC-Functional eval.     ....       0.013 sec  ( 13.8% of XC)
    XC-Potential eval.      ....       0.017 sec  ( 18.8% of XC)
Diagonalization             ....       0.000 sec  (  0.0%)
Density matrix formation    ....       0.000 sec  (  0.3%)
Total Energy calculation    ....       0.000 sec  (  0.1%)
Population analysis         ....       0.011 sec  (  6.4%)
Orbital Transformation      ....       0.001 sec  (  0.3%)
Orbital Orthonormalization  ....       0.000 sec  (  0.0%)
DIIS solution               ....       0.001 sec  (  0.4%)
  MO trafo                  ....       0.000 sec  (  0.0 % of DIIS)
  Orb grad                  ....       0.000 sec  (  0.0 % of DIIS)
  Energy W gradient         ....       0.000 sec  (  0.0 % of DIIS)
  DIIS error                ....       0.000 sec  (  8.4 % of DIIS)
  DIIS work                 ....       0.001 sec  ( 88.1 % of DIIS)
  Form Q                    ....       0.000 sec  (  0.0 % of DIIS)
  Form QpQm                 ....       0.000 sec  (  0.0 % of DIIS)
  Exp/Cayley                ....       0.000 sec  (  0.0 % of DIIS)
  Orb update                ....       0.000 sec  (  0.0 % of DIIS)
  Wake-sleep                ....       0.000 sec  (  3.4 % of DIIS)
SOSCF solution              ....       0.001 sec  (  0.6%)
  MO trafo                  ....       0.001 sec  ( 59.2 % of SOSCF)
  Orb grad                  ....       0.000 sec  (  2.2 % of SOSCF)
  Rot update                ....       0.000 sec  (  6.7 % of SOSCF)
  Step                      ....       0.000 sec  ( 29.3 % of SOSCF)
Finished LeanSCF after   0.2 sec

Maximum memory used throughout the entire LEANSCF-calculation: 6.4 MB


-------------------------------------------------------------------------------
                          DFT DISPERSION CORRECTION                            
                                                                               
                                DFTD4 V3.4.0                                   
-------------------------------------------------------------------------------
The PBE functional is recognized
Active option DFTDOPT                   ...         5   

-------------------------   ----------------
Dispersion correction           -0.003231394
-------------------------   ----------------

------------------   -----------------
gCP correction             0.032502641
------------------   -----------------

-------------------------   --------------------
FINAL SINGLE POINT ENERGY      -244.539538124797
-------------------------   --------------------


------------------------------------------------------------------------------
                              ORCA PROPERTY CALCULATIONS
------------------------------------------------------------------------------

GBWName                                 ... sp.gbw
Number of atoms                         ...      7
Number of basis functions               ...     62
Max core memory                         ...   1024 MB

Electric properties:
Dipole moment                           ... YES
Quadrupole moment                       ...  NO
Static polarizability (Dipole/Dipole)   ...  NO
Static polarizability (Dipole/Quad.)    ...  NO
Static polarizability (Quad./Quad.)     ...  NO
Static polarizability (Velocity)        ...  NO

Atomic electric properties:
Dipole moment                           ...  NO
Quadrupole moment                       ...  NO
Static polarizability                   ...  NO

Choice of electric origin               ... Center of mass
Position of electric origin             ...     0.000031     0.000000     0.000000

General magnetic properties:
Magnetizability                         ...  NO

EPR properties:
g-Tensor (aka g-matrix)                 ...  NO
Zero-Field splitting spin-orbit         ...  NO
Zero-field splitting spin-spin          ...  NO
Hyperfine couplings                     ...  NO (   0 nuclei)
Quadrupole couplings                    ...  NO (   0 nuclei)
Contact density                         ...  NO (   0 nuclei)

NMR properties:
Chemical shifts                         ...  NO (   0 nuclei)
Spin-rotation constants                 ...  NO (   0 nuclei)
Spin-spin couplings                     ...  NO (   0 nuclei,    0 pairs)

Choice of magnetic origin               ... GIAO
Position of magnetic origin             ...     0.000000     0.000000     0.000000

Properties with geometric perturbations:
SCF Hessian                             ...  NO
IR spectrum                             ...  NO
VCD spectrum                            ...  NO
X-ray spectroscopy properties:
SCF XES/XAS/RIXS spectra                ...  NO


-------------
DIPOLE MOMENT
-------------

Method             : SCF
Type of density    : Electron Density
Multiplicity       :   1
Irrep              :   0
Energy             :  -244.5688093719642495 Eh
Relativity type    : 
Basis              : AO
                                X                 Y                 Z
Electronic contribution:     -3.583865888      -0.003583827      -0.015690369
Nuclear contribution   :      4.853753348       0.002531639       0.045326012
                        -----------------------------------------
Total Dipole Moment    :      1.269887460      -0.001052188       0.029635643
                        -----------------------------------------
Magnitude (a.u.)       :      1.270233655
Magnitude (Debye)      :      3.228677365



--------------------
Rotational spectrum 
--------------------
 
Rotational constants in cm-1:             0.421375             0.360938             0.201720 
Rotational constants in MHz :         12632.506151         10820.654580          6047.400356 

Dipole components along the rotational axes: 
x,y,z [a.u.] :    -1.269887    -0.001052     0.029635 
x,y,z [Debye]:    -3.227797    -0.002675     0.075327 

 

Dipole moment calculation done in   0.0 sec 

Maximum memory used throughout the entire PROP-calculation: 4.5 MB

--------------------------------
SUGGESTED CITATIONS FOR THIS RUN
--------------------------------

Below you find a list of papers that are relevant to this ORCA run
We neither can nor want to force you to cite these papers, but we appreciate if you do
You receive ORCA, which is the product of decades of hard work by many enthusiastic individuals, for free
The only thing we kindly ask in return is that you cite our papers,
We deeply appreciate it, if you show your appreciation for ORCA by not just citing the generic ORCA reference.

Please note that relegating all ORCA citations to the supporting information does *not* help us.
SI sections are not indexed - citations you put there will not count into any citation statistics
But we need these citations in order to attract the funding resources that allow us to do what we are doing

Therefore, if you are a happy ORCA user, please consider citing a few of the papers listed below in the main body of your paper

In addition to the list printed below, the program has created the file sp.bibtex that contains the list in bibtex format
You can import this file easily into all common literature databanks and citation aid programs


List of essential papers. We consider these as the minimum necessary citations

  1. Neese,F.
     Software update: the ORCA program system, version 5.0
     WIRES Comput. Molec. Sci., 2022 12(1)e1606
     doi.org/10.1002/wcms.1606

List of papers to cite with high priority. The work reported in these papers was absolutely
necessary for this run to complete.
Our perspective: the developers of density functionals and basis sets usually get cited in chemistry papers
Good! But without the algorithms to do something with them, the functionals or basis sets would not do anything.
Hence, in our opinion, the algorithm design and method developments papers are equally worthy of getting cited

  1. Neese,F.
     An improvement of the resolution of the identity approximation for the formation of the Coulomb matrix
     J. Comp. Chem., 2003 24(14)1740-1747
     doi.org/10.1002/jcc.10318
  2. Neese,F.
     The SHARK Integral Generation and Digestion System
     J. Comp. Chem., 2022  1-16
     doi.org/10.1002/jcc.26942
  3. Caldeweyher,E.; Bannwarth,C.; Grimme,S.
     Extension of the D3 dispersion coefficient model
     J. Chem. Phys., 2017 147 034112
     doi.org/10.1063/1.4993215
  4. Caldeweyher,E.; Ehlert,S.; Hansen,A.; Neugebauer,H.; Spicher,S.; Bannwarth,C.; Grimme,S.
     A generally applicable atomic-charge dependent London dispersion correction
     J. Chem. Phys., 2019 150 154122
     doi.org/10.1063/1.5090222
  5. Caldeweyher,E.; Mewes,J.; Ehlert,S.; Grimme,S.
     Extension and evaluation of the D4 London-dispersion model for periodic systems
     Phys. Chem. Chem. Phys., 2020 22(16)8499-8512
     doi.org/10.1039/D0CP00502A
  6. Wittmann,L.; Gordiy,I.; Friede,M.; Helmich-Paris,B.; Grimme,S.; Hansen,A.; Bursch,M.
     Extension of the D3 and D4 London Dispersion Corrections to the full Actinides Series
     Phys. Chem. Chem. Phys., 2024 26(32)21379-21394
     doi.org/https://doi.org/10.1039/D4CP01514B 

List of suggested additional citations. These are papers that are important in the 'surrounding' of 
of this run, or papers that preceded the highly important papers. If you like your results we are grateful for a citation.

  1. Neese,F.
     The ORCA program system
     WIRES Comput. Molec. Sci., 2012 2(1)73-78
     doi.org/10.1002/wcms.81
  2. Neese,F.
     Software update: the ORCA program system, version 4.0
     WIRES Comput. Molec. Sci., 2018 8(1)1-6
     doi.org/10.1002/wcms.1327
  3. Neese,F.; Wennmohs,F.; Becker,U.; Riplinger,C.
     The ORCA quantum chemistry program package
     J. Chem. Phys., 2020 152 Art. No. L224108
     doi.org/10.1063/5.0004608

List of optional additional citations

  1. Neese,F.
     Approximate second-order SCF convergence for spin unrestricted wavefunctions
     Chem. Phys. Lett., 2000 325(1-3)93-98
     doi.org/10.1016/s0009-2614(00)00662-x

Timings for individual modules:

Sum of individual times          ...        0.342 sec (=   0.006 min)
Startup calculation              ...        0.095 sec (=   0.002 min)  27.8 %
SCF iterations                   ...        0.218 sec (=   0.004 min)  63.6 %
Property calculations            ...        0.029 sec (=   0.000 min)   8.5 %
                             ****ORCA TERMINATED NORMALLY****
TOTAL RUN TIME: 0 days 0 hours 0 minutes 0 seconds 400 msec
