14
 energy: -158.383558544624 gnorm: 0.016344546187 xtb: 6.7.1 (41059b4)
C            1.58854346530393       -0.03950485351751       -0.55579683874629
C            0.66039219719264        0.37590098216657        0.59421891106331
C           -0.67041794849708       -0.37815308506757        0.59421511836331
C           -1.57847586109946        0.04131890321831       -0.55579653574629
H            2.50212714820876       -0.49125802191769       -0.17746700827864
H            1.10486294748959       -0.76808519634036       -1.20131005133233
H            1.86790447952772        0.81406329816073       -1.16789275031752
H            1.16010328401407        0.19718515478738        1.54820986788605
H            0.45116065069992        1.44585523174070        0.53703275593797
H           -0.47663584961121       -1.45176703814332        0.53720107203805
H           -1.18577047152545       -0.18592743968239        1.53844477548173
H           -2.50957859791206       -0.52057440283068       -0.53074335183519
H           -1.09948769578721       -0.13513057375988       -1.51572511497166
H           -1.81518465050436        1.10085920658782       -0.48344927891423
14
 energy: -158.384071048508 gnorm: 0.004248642678 xtb: 6.7.1 (41059b4)
C            1.59445796955552       -0.03658012133533       -0.55839441281088
C            0.66271513833493        0.37325525831994        0.60075315399115
C           -0.67495467378445       -0.37382724479499        0.60127596972225
C           -1.58370958593615        0.03774947080476       -0.55620120679157
H            2.51401973600657       -0.49474889653868       -0.18894783997866
H            1.11265747444189       -0.76726463941280       -1.21287972887876
H            1.88108914618791        0.81371093280626       -1.18035253054378
H            1.16505373488738        0.20227164810559        1.55777550807961
H            0.45397040638722        1.44762856639082        0.55413150511575
H           -0.48048280714469       -1.45203736006440        0.55325281203381
H           -1.19411544787353       -0.18988251727605        1.54847498165744
H           -2.52212294238215       -0.52208051206671       -0.54359765237680
H           -1.10459076171334       -0.13602776769130       -1.52333600319795
H           -1.82444431454301        1.10261547472693       -0.49081266505682
14
 energy: -158.384103400426 gnorm: 0.000680341445 xtb: 6.7.1 (41059b4)
C            1.59495490040996       -0.03551349827681       -0.55884803948179
C            0.66283218462156        0.37363482535430        0.60198991346952
C           -0.67550523145051       -0.37395236821442        0.60217958479901
C           -1.58430622840011        0.03652114515054       -0.55626770041903
H            2.51618468593177       -0.49637562996954       -0.19197921075247
H            1.11306559720329       -0.76565444911211       -1.21714593929357
H            1.88327990443866        0.81590287334322       -1.18131878512847
H            1.16753926925245        0.20102095991540        1.55863549817619
H            0.45846948811349        1.45068992433787        0.56067059026051
H           -0.48387126636303       -1.45467899697144        0.56079281519641
H           -1.19554613259080       -0.18864208894603        1.54991226539672
H           -2.52441093612673       -0.52356315400650       -0.54662710130938
H           -1.10520031215780       -0.13765163257821       -1.52539683935153
H           -1.82794287132167        1.10304444928321       -0.49545490502143
14
 energy: -158.384109936407 gnorm: 0.000637475342 xtb: 6.7.1 (41059b4)
C            1.59488243708811       -0.03431926727795       -0.55974801038380
C            0.66364103115576        0.37233362864416        0.60257933574026
C           -0.67631648683811       -0.37196421443111        0.60278634583011
C           -1.58417477991176        0.03495240337731       -0.55696962003022
H            2.51593602907574       -0.49701017173091       -0.19426374126863
H            1.11226075928019       -0.76230211138712       -1.22009640475773
H            1.88379485354935        0.81870738348056       -1.18003272924184
H            1.16910862849651        0.19601186191104        1.55846336905136
H            0.46162860875064        1.45014535615319        0.56485016275860
H           -0.48645254195540       -1.45337231520282        0.56552601808572
H           -1.19683822794788       -0.18341932505980        1.55002838670214
H           -2.52394711527902       -0.52603182793576       -0.54734121168251
H           -1.10462831677042       -0.14039855170834       -1.52588925512266
H           -1.82935183749011        1.10144957306325       -0.49875020542325
14
 energy: -158.384114604294 gnorm: 0.000425545506 xtb: 6.7.1 (41059b4)
C            1.59333259859495       -0.03264257029825       -0.56133580899967
C            0.66447179126517        0.37094463758025        0.60371550226789
C           -0.67701303250912       -0.36994888248138        0.60391800651638
C           -1.58245132968235        0.03307221720248       -0.55844326442573
H            2.51403483826058       -0.49770650233010       -0.19863239014245
H            1.10944502317385       -0.75705060193278       -1.22431018910103
H            1.88239674751559        0.82293724732932       -1.17772020654395
H            1.17012484239427        0.18778273581194        1.55818509970296
H            0.46557718614908        1.44940312555739        0.57166140449429
H           -0.48998153155007       -1.45194767226514        0.57260853812694
H           -1.19804244897322       -0.17460099374495        1.54951108690779
H           -2.52117703869879       -0.52931917860266       -0.54760987739397
H           -1.10179891272560       -0.14534288262595       -1.52606139304967
H           -1.82937568716380        1.09920181350087       -0.50434363008891
14
 energy: -158.384114604294 gnorm: 0.000425545506 xtb: 6.7.1 (41059b4)
C            1.59333259859495       -0.03264257029825       -0.56133580899967
C            0.66447179126517        0.37094463758025        0.60371550226789
C           -0.67701303250912       -0.36994888248138        0.60391800651638
C           -1.58245132968235        0.03307221720248       -0.55844326442573
H            2.51403483826058       -0.49770650233010       -0.19863239014245
H            1.10944502317385       -0.75705060193278       -1.22431018910103
H            1.88239674751559        0.82293724732932       -1.17772020654395
H            1.17012484239427        0.18778273581194        1.55818509970296
H            0.46557718614908        1.44940312555739        0.57166140449429
H           -0.48998153155007       -1.45194767226514        0.57260853812694
H           -1.19804244897322       -0.17460099374495        1.54951108690779
H           -2.52117703869879       -0.52931917860266       -0.54760987739397
H           -1.10179891272560       -0.14534288262595       -1.52606139304967
H           -1.82937568716380        1.09920181350087       -0.50434363008891
