
                                 *****************
                                 * O   R   C   A *
                                 *****************

                                            #,                                       
                                            ###                                      
                                            ####                                     
                                            #####                                    
                                            ######                                   
                                           ########,                                 
                                     ,,################,,,,,                         
                               ,,#################################,,                 
                          ,,##########################################,,             
                       ,#########################################, ''#####,          
                    ,#############################################,,   '####,        
                  ,##################################################,,,,####,       
                ,###########''''           ''''###############################       
              ,#####''   ,,,,##########,,,,          '''####'''          '####       
            ,##' ,,,,###########################,,,                        '##       
           ' ,,###''''                  '''############,,,                           
         ,,##''                                '''############,,,,        ,,,,,,###''
      ,#''                                            '''#######################'''  
     '                                                          ''''####''''         
             ,#######,   #######,   ,#######,      ##                                
            ,#'     '#,  ##    ##  ,#'     '#,    #''#        ,####,   ,####,        
            ##       ##  ##   ,#'  ##            #'  '#       #'       #'  '#        
            ##       ##  #######   ##           ,######,      #####,   #    #        
            '#,     ,#'  ##    ##  '#,     ,#' ,#      #,     #,   #   #,  ,#        
             '#######'   ##     ##  '#######'  #'      '#     '####' # '####'        



                #########################################################
                #                        -***-                          #
                #          Department of theory and spectroscopy        #
                #                                                       #
                #                      Frank Neese                      #
                #                                                       #
                #     Directorship, Architecture, Infrastructure        #
                #                    SHARK, DRIVERS                     #
                #        Core code/Algorithms in most modules           #
                #                                                       #
                #        Max Planck Institute fuer Kohlenforschung      #
                #                Kaiser Wilhelm Platz 1                 #
                #                 D-45470 Muelheim/Ruhr                 #
                #                      Germany                          #
                #                                                       #
                #                  All rights reserved                  #
                #                        -***-                          #
                #########################################################


                         Program Version 6.0.1  -  RELEASE   -


 With contributions from (in alphabetic order):
[Max-Planck-Institut fuer Kohlenforschung]                               
  Daniel Aravena         : Magnetic Suceptibility                        
  Michael Atanasov       : Ab Initio Ligand Field Theory (pilot matlab implementation)
  Alexander A. Auer      : GIAO ZORA, VPT2 properties, NMR spectrum      
  Ute Becker             : All parallelization in ORCA, NUMFREQ, NUMCALC 
  Giovanni Bistoni       : ED, misc. LED, open-shell LED, HFLD           
  Martin Brehm           : Molecular dynamics                            
  Dmytro Bykov           : pre 5.0 version of the SCF Hessian            
  Marcos Casanova-Páez   : Triplet and SCS-CIS(D). UHF-(DLPNO)-IP/EA/STEOM-CCSD. UHF-CVS-IP/STEOM-CCSD   
  Vijay G. Chilkuri      : MRCI spin determinant printing, contributions to CSF-ICE 
  Pauline Colinet        : FMM embedding                                 
  Dipayan Datta          : RHF DLPNO-CCSD density                        
  Achintya Kumar Dutta   : EOM-CC, STEOM-CC                              
  Nicolas Foglia         : Exact transition moments, OPA infrastructure, MCD improvements    
  Dmitry Ganyushin       : Spin-Orbit,Spin-Spin,Magnetic field MRCI      
  Miquel Garcia-Rates    : C-PCM and meta-GGA Hessian, CCSD/C-PCM, Gaussian charge scheme 
  Tiago L. C. Gouveia    : GS-ROHF, GS-ROCIS                             
  Yang Guo               : DLPNO-NEVPT2, F12-NEVPT2, CIM, IAO-localization        
  Andreas Hansen         : Spin unrestricted coupled pair/coupled cluster methods 
  Ingolf Harden          : AUTO-CI MPn and infrastructure                
  Benjamin Helmich-Paris : MC-RPA, TRAH-(SCF,CASSCF), AVAS, COSX integrals, SCF dyn. polar. 
  Lee Huntington         : MR-EOM, pCC                                   
  Robert Izsak           : Overlap fitted RIJCOSX, COSX-SCS-MP3, EOM     
  Riya Kayal             : Wick's Theorem for AUTO-CI, AUTO-CI UHF-CCSDT 
  Emily Kempfer          : AUTO-CI, RHF CISDT and CCSDT                  
  Christian Kollmar      : KDIIS, OOCD, Brueckner-CCSD(T), CCSD density, CASPT2, CASPT2-K, improved NEVPT2 
  Axel Koslowski         : Symmetry handling                             
  Simone Kossmann        : meta-GGA functionals, TD-DFT gradient, OOMP2, (MP2 Hessian; deprecated post 5.0) 
  Lucas Lang             : DCDCAS                                        
  Marvin Lechner         : AUTO-CI (C++ implementation), FIC-MRCC        
  Spencer Leger          : CASSCF response                               
  Dagmar Lenk            : GEPOL surface, SMD, ORCA-2-JSON               
  Dimitrios Liakos       : Extrapolation schemes; Compound Job, initial MDCI parallelization 
  Dimitrios Manganas     : Further ROCIS development; embedding schemes. LFT, Crystal Embedding 
  Dimitrios Pantazis     : SARC Basis sets                               
  Anastasios Papadopoulos: AUTO-CI, single reference methods and gradients 
  Taras Petrenko         : pre 6.0 DFT Hessian and TD-DFT gradient, (ASA, deprecated), ECA, 1-Electron XAS/XES, NRVS 
  Peter Pinski           : DLPNO-MP2, DLPNO-MP2 Gradient                 
  Christoph Reimann      : Effective Core Potentials                     
  Marius Retegan         : Local ZFS, SOC                                
  Christoph Riplinger    : Optimizer, TS searches, QM/MM, DLPNO-CCSD(T), (RO)-DLPNO pert. Triples 
  Michael Roemelt        : Original ROCIS implementation                 
  Masaaki Saitow         : Open-shell DLPNO-CCSD energy and density      
  Barbara Sandhoefer     : DKH picture change effects                    
  Kantharuban Sivalingam : CASSCF convergence/infrastructure, NEVPT2 and variants, FIC-MRCI 
  Bernardo de Souza      : ESD, SOC TD-DFT                               
  Georgi L. Stoychev     : AutoAux, RI-MP2 NMR, DLPNO-MP2 response, X2C  
  Van Anh Tran           : RI-MP2 g-tensors                              
  Willem Van den Heuvel  : Paramagnetic NMR                              
  Zikuan Wang            : NOTCH, Electric field optimization            
  Frank Wennmohs         : Technical directorship and infrastructure     
  Hang Xu                : AUTO-CI-Response properties                   
                                                                         
[FACCTs GmbH]                                                            
  Markus Bursch, Miquel Garcia-Rates, Christoph Riplinger, Bernardo de Souza, Georgi L. Stoychev 
                                                                 
  APM, Basis sets (HGBS, AHGBS, def-TZVP (Ac-Lr), def2-XVPD (La-Lu)), CI-OPT, improved COSX, DLPNO-Multilevel,           
  DOCKER, DRACO, updates on ESD, GOAT, IRC, LR-CPCM, MBIS, meta-GGA TD-DFT gradient, ML-optimized integration grids, 
  MM, NACMEs, nearIR, NEB, NEB-TS, NL-DFT gradient (VV10), 2- and 3-layer-ONIOM, interface openCOSMO-RS, QMMM,   
  Crystal-QMMM, SF, symmetry and pop. for TD-DFT, r2SCAN hybrids, SOLVATOR                                   
                                                                         
[Other institutions]                                                     
  V. Asgeirsson          : NEB                                           
  Christoph Bannwarth    : sTDA-DFT, sTD-DFT, PBEh-3c, B97-3c, D3        
  Sebastian Ehlert       : rSCAN, r2SCAN, r2SCAN-3c, D4, dhf basis sets  
  Marvin Friede          : D4 for Fr, Ra, Ac-Lr                          
  Lars Goerigk           : TD-DFT with DH, B97 family of functionals     
  Stefan Grimme          : VdW corrections, initial TS optimization, DFT functionals, gCP, sTDA/sTD-DF 
  Waldemar Hujo          : DFT-NL                                        
  H. Jonsson             : NEB                                           
  Holger Kruse           : gCP                                           
  Marcel Mueller         : wB97X-3c, vDZP basis set                      
  Hagen Neugebauer       : wr2SCAN                                       
  Tobias Risthaus        : range-separated hybrid DFT                    
  Lukas Wittmann         : regularized MP2, r2SCAN double-hybrids, wr2SCAN        
                                                                         
We gratefully acknowledge several colleagues who have allowed us to      
interface, adapt or use parts of their codes:                            
  Ed Valeev, F. Pavosevic, A. Kumar             : LibInt (2-el integral package), F12 methods 
  Garnet Chan, S. Sharma, J. Yang, R. Olivares  : DMRG                   
  Ulf Ekstrom                                   : XCFun DFT Library      
  Mihaly Kallay                                 : mrcc  (arbitrary order and MRCC methods)
  Frank Weinhold                                : gennbo (NPA and NBO analysis)           
  Simon Mueller                                 : openCOSMO-RS                            
  Christopher J. Cramer and Donald G. Truhlar   : smd solvation model                     
  S Lehtola, MJT Oliveira, MAL Marques          : LibXC Library                           
  Liviu Ungur et al                             : ANISO software                          


 Your calculation uses the libint2 library for the computation of 2-el integrals
 For citations please refer to: http://libint.valeyev.net

 Your ORCA version has been built with support for libXC version: 6.2.2
 For citations please refer to: https://libxc.gitlab.io

 This ORCA versions uses:
   CBLAS   interface :  Fast vector & matrix operations
   LAPACKE interface :  Fast linear algebra routines
   SCALAPACK package :  Parallel linear algebra routines
   Shared memory     :  Shared parallel matrices
   BLAS/LAPACK       :  OpenBLAS 0.3.27  USE64BITINT DYNAMIC_ARCH NO_AFFINITY Zen SINGLE_THREADED
        Core in use  :  Zen
   Copyright (c) 2011-2014, The OpenBLAS Project


Your calculation utilizes the geometrical counterpoise correction gCP
Please cite in your paper:
H.Kruse, S. Grimme J.Chem.Phys., 136, (2012), 154101 
   

Your calculation utilizes the atom-pairwise dispersion correction
based on EEQ partial charges (D4)


================================================================================

----- Orbital basis set information -----
Your calculation utilizes the basis: def2-mTZVPP
   Stefan Grimme, Andreas Hansen, Sebastian Ehlert, and Jan-Michael Mewes 
   J. Chem. Phys. 154, 064103 (2021). DOI: 10.1063/5.0040021

----- AuxJ basis set information -----
Your calculation utilizes the auxiliary basis: def2/J
   F. Weigend, Phys. Chem. Chem. Phys. 8, 1057 (2006).

================================================================================
                                        WARNINGS
                       Please study these warnings very carefully!
================================================================================

WARNING: Old DensityContainer found on disk!
         Will remove this file - 
         If you want to keep old densities, please start your calculation with a different basename. 



WARNING: SCAN, rSCAN, or r2SCAN functional requested.
  ===> : libXC variant has now been activated.



================================================================================
                                       INPUT FILE
================================================================================
NAME = sp.inp
|  1> ! r2scan-3c def2/J RI DEFGRID2 scfconv6 printgap
|  2> %output
|  3>     printlevel normal
|  4> end
|  5> * xyz 0 1
|  6> C -1.8620884509 -0.0087889151 -1.7677e-06
|  7> C -1.1612437132 -1.2015815614 -1.4254e-06
|  8> C 0.2223197183 -1.1987278292 -1.422e-07
|  9> C 0.9144171942 0.0061520929 2.2645e-06
| 10> C 0.2099308271 1.2061043374 9.58e-08
| 11> C -1.1709465268 1.1922464718 -2.8092e-06
| 12> O 2.2747871051 0.0581416532 -8.18e-07
| 13> H -2.9414274304 -0.0144629265 1.94253e-05
| 14> H -1.691100659 -2.142775933 1.18355e-05
| 15> H 0.7699073697 -2.132720883 6.101e-07
| 16> H 0.763517171 2.1315801121 4.1723e-06
| 17> H -1.7120209314 2.1267720908 1.78803e-05
| 18> H 2.6357363719 -0.836570032 4.158e-06
| 19> *
| 20> 
| 21>                          ****END OF INPUT****
================================================================================

                       ****************************
                       * Single Point Calculation *
                       ****************************

---------------------------------
CARTESIAN COORDINATES (ANGSTROEM)
---------------------------------
  C     -1.862088   -0.008789   -0.000002
  C     -1.161244   -1.201582   -0.000001
  C      0.222320   -1.198728   -0.000000
  C      0.914417    0.006152    0.000002
  C      0.209931    1.206104    0.000000
  C     -1.170947    1.192246   -0.000003
  O      2.274787    0.058142   -0.000001
  H     -2.941427   -0.014463    0.000019
  H     -1.691101   -2.142776    0.000012
  H      0.769907   -2.132721    0.000001
  H      0.763517    2.131580    0.000004
  H     -1.712021    2.126772    0.000018
  H      2.635736   -0.836570    0.000004

----------------------------
CARTESIAN COORDINATES (A.U.)
----------------------------
  NO LB      ZA    FRAG     MASS         X           Y           Z
   0 C     6.0000    0    12.011   -3.518837   -0.016609   -0.000003
   1 C     6.0000    0    12.011   -2.194433   -2.270660   -0.000003
   2 C     6.0000    0    12.011    0.420123   -2.265267   -0.000000
   3 C     6.0000    0    12.011    1.727998    0.011626    0.000004
   4 C     6.0000    0    12.011    0.396712    2.279207    0.000000
   5 C     6.0000    0    12.011   -2.212768    2.253019   -0.000005
   6 O     8.0000    0    15.999    4.298725    0.109872   -0.000002
   7 H     1.0000    0     1.008   -5.558492   -0.027331    0.000037
   8 H     1.0000    0     1.008   -3.195717   -4.049260    0.000022
   9 H     1.0000    0     1.008    1.454914   -4.030258    0.000001
  10 H     1.0000    0     1.008    1.442838    4.028103    0.000008
  11 H     1.0000    0     1.008   -3.235251    4.019017    0.000034
  12 H     1.0000    0     1.008    4.980820   -1.580888    0.000008

--------------------------------
INTERNAL COORDINATES (ANGSTROEM)
--------------------------------
 C      0   0   0     0.000000000000     0.00000000     0.00000000
 C      1   0   0     1.383451352028     0.00000000     0.00000000
 C      2   1   0     1.383566374546   120.31888093     0.00000000
 C      3   2   1     1.389508741546   119.99175405     0.00000000
 C      4   3   2     1.391469162617   119.70942739     0.00000000
 C      5   4   3     1.380946887813   119.84202099     0.00000000
 O      4   3   2     1.361362996732   122.06219665   180.00021932
 H      1   2   3     1.079353893550   120.13586156   180.00136232
 H      2   1   3     1.080090379700   120.18507041   179.99914118
 H      3   2   1     1.082679666620   120.26434856   179.99997025
 H      5   4   3     1.078407738161   118.69665660   179.99986942
 H      6   5   4     1.079860937486   119.49513447   179.99863681
 H      7   4   3     0.964776333075   109.78177100     0.00000000

---------------------------
INTERNAL COORDINATES (A.U.)
---------------------------
 C      0   0   0     0.000000000000     0.00000000     0.00000000
 C      1   0   0     2.614344174937     0.00000000     0.00000000
 C      2   1   0     2.614561535993   120.31888093     0.00000000
 C      3   2   1     2.625790982211   119.99175405     0.00000000
 C      4   3   2     2.629495641144   119.70942739     0.00000000
 C      5   4   3     2.609611423458   119.84202099     0.00000000
 O      4   3   2     2.572603232678   122.06219665   180.00021932
 H      1   2   3     2.039683260392   120.13586156   180.00136232
 H      2   1   3     2.041075017515   120.18507041   179.99914118
 H      3   2   1     2.045968060677   120.26434856   179.99997025
 H      5   4   3     2.037895285826   118.69665660   179.99986942
 H      6   5   4     2.040641434568   119.49513447   179.99863681
 H      7   4   3     1.823163050001   109.78177100     0.00000000

---------------------
BASIS SET INFORMATION
---------------------
There are 3 groups of distinct atoms

 Group   1 Type C   : 11s6p1d contracted to 5s3p1d pattern {62111/411/1}
 Group   2 Type O   : 11s6p2d contracted to 5s3p2d pattern {62111/411/11}
 Group   3 Type H   : 4s1p contracted to 2s1p pattern {31/1}

Atom   0C    basis set group =>   1
Atom   1C    basis set group =>   1
Atom   2C    basis set group =>   1
Atom   3C    basis set group =>   1
Atom   4C    basis set group =>   1
Atom   5C    basis set group =>   1
Atom   6O    basis set group =>   2
Atom   7H    basis set group =>   3
Atom   8H    basis set group =>   3
Atom   9H    basis set group =>   3
Atom  10H    basis set group =>   3
Atom  11H    basis set group =>   3
Atom  12H    basis set group =>   3
---------------------------------
AUXILIARY/J BASIS SET INFORMATION
---------------------------------
There are 3 groups of distinct atoms

 Group   1 Type C   : 12s5p4d2f1g contracted to 6s4p3d1f1g pattern {711111/2111/211/2/1}
 Group   2 Type O   : 12s5p4d2f1g contracted to 6s4p3d1f1g pattern {711111/2111/211/2/1}
 Group   3 Type H   : 5s2p1d contracted to 3s1p1d pattern {311/2/1}

Atom   0C    basis set group =>   1
Atom   1C    basis set group =>   1
Atom   2C    basis set group =>   1
Atom   3C    basis set group =>   1
Atom   4C    basis set group =>   1
Atom   5C    basis set group =>   1
Atom   6O    basis set group =>   2
Atom   7H    basis set group =>   3
Atom   8H    basis set group =>   3
Atom   9H    basis set group =>   3
Atom  10H    basis set group =>   3
Atom  11H    basis set group =>   3
Atom  12H    basis set group =>   3

Checking for AutoStart:
The File: sp.gbw exists
Trying to determine its content:
     ... Fine, the file contains calculation information
     ... Fine, the calculation information was read
     ... Fine, the file contains a basis set
     ... Fine, the basis set was read
     ... Fine, the file contains a geometry
     ... Fine, the geometry was read
     ... Fine, the file contains a set of orbitals
     ... Fine, the orbitals can be read
     => possible old guess file was deleted
     => GBW file was renamed to GES file
     => GES file is set as startup file
     => Guess is set to MORead
     ... now leaving AutoStart

------------------------------------------------------------------------------
                             ORCA STARTUP CALCULATIONS
                           -- RI-GTO INTEGRALS CHOSEN --
------------------------------------------------------------------------------
------------------------------------------------------------------------------
                   ___                                                        
                  /   \      - P O W E R E D   B Y -                         
                 /     \                                                     
                 |  |  |   _    _      __       _____    __    __             
                 |  |  |  | |  | |    /  \     |  _  \  |  |  /  |          
                  \  \/   | |  | |   /    \    | | | |  |  | /  /          
                 / \  \   | |__| |  /  /\  \   | |_| |  |  |/  /          
                |  |  |   |  __  | /  /__\  \  |    /   |      \           
                |  |  |   | |  | | |   __   |  |    \   |  |\   \          
                \     /   | |  | | |  |  |  |  | |\  \  |  | \   \       
                 \___/    |_|  |_| |__|  |__|  |_| \__\ |__|  \__/        
                                                                              
                      - O R C A' S   B I G   F R I E N D -                    
                                      &                                       
                       - I N T E G R A L  F E E D E R -                       
                                                                              
 v1 FN, 2020, v2 2021, v3 2022-2024                                           
------------------------------------------------------------------------------


----------------------
SHARK INTEGRAL PACKAGE
----------------------

Number of atoms                             ...     13
Number of basis functions                   ...    168
Number of shells                            ...     82
Maximum angular momentum                    ...      2
Integral batch strategy                     ... SHARK/LIBINT Hybrid
RI-J (if used) integral strategy            ... SPLIT-RIJ (Revised 2003 algorithm where possible)
Printlevel                                  ...      1
Contraction scheme used                     ... SEGMENTED contraction
Prescreening option                         ... SCHWARTZ
   Thresh                                   ... 1.000e-10
   Tcut                                     ... 1.000e-11
   Tpresel                                  ... 1.000e-11 
Coulomb Range Separation                    ... NOT USED
Exchange Range Separation                   ... NOT USED
Multipole approximations                    ... NOT USED
Finite Nucleus Model                        ... NOT USED
CABS basis                                  ... NOT available
Auxiliary Coulomb fitting basis             ... AVAILABLE
   # of basis functions in Aux-J            ...    409
   # of shells in Aux-J                     ...    135
   Maximum angular momentum in Aux-J        ...      4
Auxiliary J/K fitting basis                 ... NOT available
Auxiliary Correlation fitting basis         ... NOT available
Auxiliary 'external' fitting basis          ... NOT available

Checking pre-screening integrals            ... done (  0.0 sec) Dimension = 82
Check shell pair data                       ... done (  0.0 sec)
Shell pair information
Shell pair cut-off parameter TPreSel        ...   1.0e-11
Total number of shell pairs                 ...      3403
Shell pairs after pre-screening             ...      3169
Total number of primitive shell pairs       ...     12575
Primitive shell pairs kept                  ...      8608
          la=0 lb=0:   1011 shell pairs
          la=1 lb=0:   1189 shell pairs
          la=1 lb=1:    362 shell pairs
          la=2 lb=0:    360 shell pairs
          la=2 lb=1:    211 shell pairs
          la=2 lb=2:     36 shell pairs

Calculating one electron integrals          ... done (  0.0 sec)
Calculating RI/J V-Matrix + Cholesky decomp.... done (  0.0 sec)
Calculating Nuclear repulsion               ... done (  0.0 sec) ENN=    272.630387174249 Eh

Diagonalization of the overlap matrix:
Smallest eigenvalue                        ... 3.536e-05
Time for diagonalization                   ...    0.002 sec
Threshold for overlap eigenvalues          ... 1.000e-07
Number of eigenvalues below threshold      ... 0
Time for construction of square roots      ...    0.001 sec
Total time needed                          ...    0.003 sec

-------------------
DFT GRID GENERATION
-------------------

General Integration Accuracy     IntAcc      ... 4.388
Radial Grid Type                 RadialGrid  ... OptM3 with GC (2021)
Angular Grid (max. ang.)         AngularGrid ... 4 (Lebedev-302)
Angular grid pruning method      GridPruning ... 4 (adaptive)
Weight generation scheme         WeightScheme... mBecke (2022)
Basis function cutoff            BFCut       ... 1.0000e-10
Integration weight cutoff        WCut        ... 1.0000e-14
Partially contracted basis set               ... off
Rotationally invariant grid construction     ... off
Angular grids for H and He will be reduced by one unit
Diffuse basis detected: some atoms will have their outermost
                        angular grid increased by 1.

Total number of grid points                  ...    61831
Total number of batches                      ...      973
Average number of points per batch           ...       63
Average number of grid points per atom       ...     4756
Initializing property integral containers    ... done (  0.0 sec)

SHARK setup successfully completed in   0.4 seconds

Maximum memory used throughout the entire STARTUP-calculation: 27.9 MB
-------------------------------------------------------------------------------
                                 ORCA GUESS
                   Start orbitals & Density for SCF / CASSCF
-------------------------------------------------------------------------------

------------
SCF SETTINGS
------------
Hamiltonian:
 Density Functional     Method          .... DFT(GTOs)
  Functional kind                       .... Exchange
  Functional name                       .... Re-regularized SCAN exchange by Furness et al
  Functional family                     .... MGGA
  Functional refs                              
    [ 0] J. W. Furness, A. D. Kaplan, J. Ning, J. P. Perdew, and J. Sun.,  J. Phys. Chem. Lett. 11, 8208-8215 (2020), doi: 10.1021/acs.jpclett.0c02405
    [ 1] J. W. Furness, A. D. Kaplan, J. Ning, J. P. Perdew, and J. Sun.,  J. Phys. Chem. Lett. 11, 9248-9248 (2020), doi: 10.1021/acs.jpclett.0c03077
  Functional external parameters        .... 6
    Parameter  0 _c1        =  6.670000e-01 : c1 parameter        
    Parameter  1 _c2        =  8.000000e-01 : c2 parameter        
    Parameter  2 _d         =  1.240000e+00 : d parameter         
    Parameter  3 _k1        =  6.500000e-02 : k1 parameter        
    Parameter  4 _eta       =  1.000000e-03 : eta parameter       
    Parameter  5 _dp2       =  3.610000e-01 : dp2 parameter       
  Functional kind                       .... Correlation
  Functional name                       .... Re-regularized SCAN correlation by Furness et al
  Functional family                     .... MGGA
  Functional refs                              
    [ 0] J. W. Furness, A. D. Kaplan, J. Ning, J. P. Perdew, and J. Sun.,  J. Phys. Chem. Lett. 11, 8208-8215 (2020), doi: 10.1021/acs.jpclett.0c02405
    [ 1] J. W. Furness, A. D. Kaplan, J. Ning, J. P. Perdew, and J. Sun.,  J. Phys. Chem. Lett. 11, 9248-9248 (2020), doi: 10.1021/acs.jpclett.0c03077
  Functional external parameters        .... 1
    Parameter  0 _eta       =  1.000000e-03 : Regularization parameter
 Gradients option       PostSCFGGA      .... off
 RI-approximation to the Coulomb term is turned on
   Number of AuxJ basis functions       .... 409


General Settings:
 Integral files         IntName         .... sp
 Hartree-Fock type      HFTyp           .... RHF
 Total Charge           Charge          ....    0
 Multiplicity           Mult            ....    1
 Number of Electrons    NEL             ....   50
 Basis Dimension        Dim             ....  168
 Nuclear Repulsion      ENuc            ....    272.6303871742 Eh

Convergence Acceleration:
 AO-DIIS                CNVDIIS         .... on
   Start iteration      DIISMaxIt       ....    12
   Startup error        DIISStart       ....  0.200000
   # of expansion vecs  DIISMaxEq       ....     5
   Bias factor          DIISBfac        ....   1.050
   Max. coefficient     DIISMaxC        ....  10.000
 MO-DIIS                CNVKDIIS        .... off
 Trust-Rad. Augm. Hess. CNVTRAH         .... auto
   Auto Start mean grad. ratio tolernc. ....  1.125000
   Auto Start start iteration           ....     1
   Auto Start num. interpolation iter.  ....    10
   Max. Number of Micro iterations      ....    24
   Max. Number of Macro iterations      .... Maxiter - #DIIS iter
   Number of Davidson start vectors     ....     2
   Converg. threshold    (grad. norm)   ....   3.330e-04
   Grad. Scal. Fac. for Micro threshold ....   0.100
   Minimum threshold for Micro iter.    ....   1.000e-02
   NR start threshold (gradient norm)   ....   1.000e-04
   Initial trust radius                 ....   0.400
   Minimum AH scaling param. (alpha)    ....   1.000
   Maximum AH scaling param. (alpha)    .... 1000.000
   Quad. conv. algorithm                .... NR
   White noise on init. David. guess    .... on
   Maximum white noise                  ....   0.010
   Pseudo random numbers                .... off
   Inactive MOs                         .... canonical
   Orbital update algorithm             .... Taylor
   Preconditioner                       .... Diag
   Full preconditioner red. dimension   ....   250
   COSX micro iterations for RIJONX calc.... off
 SOSCF                  CNVSOSCF        .... on
   Start iteration      SOSCFMaxIt      ....   150
   Startup grad/error   SOSCFStart      ....  0.003300
   Hessian update       SOSCFHessUp     .... L-BFGS
 Level Shifting         CNVShift        .... on
   Level shift para.    LevelShift      ....    0.2500
   Turn off err/grad.   ShiftErr        ....    0.0010
 Zerner damping         CNVZerner       .... off
 Static damping         CNVDamp         .... on
   Fraction old density DampFac         ....    0.7000
   Max. Damping (<1)    DampMax         ....    0.9800
   Min. Damping (>=0)   DampMin         ....    0.0000
   Turn off err/grad.   DampErr         ....    0.1000

SCF Procedure:
 Maximum # iterations   MaxIter         ....   125
 SCF integral mode      SCFMode         .... Direct
   Integral package                     .... SHARK and LIBINT hybrid scheme
 Reset frequency        DirectResetFreq ....    20
 Integral Threshold     Thresh          ....  1.000e-10 Eh
 Primitive CutOff       TCut            ....  1.000e-11 Eh

Convergence Tolerance:
 Convergence Check Mode ConvCheckMode   .... Total+1el-Energy
 Convergence forced     ConvForced      .... 0
 Energy Change          TolE            ....  1.000e-06 Eh
 1-El. energy change                    ....  1.000e-03 Eh
 Orbital Gradient       TolG            ....  3.330e-04
 Orbital Rotation angle TolX            ....  3.330e-04
 DIIS Error             TolErr          ....  1.000e-06

---------------------
INITIAL GUESS: MOREAD
---------------------
Guess MOs are being read from file: sp.ges
Input Geometry matches current geometry (good)
Atom 0: N(Shells)= 9 and 6 - projection required
Input basis set needs projection
NBasis(read)= 110
NBasis(calc)= 168
Basis set overlap was calculated
Using GuessMode=FMatrix for the initial guess
C*T matrix was formed
Effective Fockian was calculated
Effective Fockian was diagonalized
Initial density was built
                      ------------------
                      INITIAL GUESS DONE (   0.0 sec)
                      ------------------
             **** ENERGY FILE WAS UPDATED (sp.en.tmp) ****
Finished Guess after   0.0 sec
Maximum memory used throughout the entire GUESS-calculation: 12.1 MB

-------------------------------------------------------------------------------------------
                                      ORCA LEAN-SCF
                              memory conserving SCF solver
-------------------------------------------------------------------------------------------

----------------------------------------D-I-I-S--------------------------------------------
Iteration    Energy (Eh)           Delta-E    RMSDP     MaxDP     DIISErr   Damp  Time(sec)
-------------------------------------------------------------------------------------------
               ***  Starting incremental Fock matrix formation  ***
    1    -307.2507581193040096     0.00e+00  1.20e-02  3.21e-01  6.21e-01  0.700   0.8
    2    -307.2949826224974004    -4.42e-02  8.84e-03  2.25e-01  4.37e-01  0.700   0.7
    3    -307.3262149525974110    -3.12e-02  6.26e-03  1.56e-01  3.06e-01  0.700   0.7
    4    -307.3481377950123488    -2.19e-02  4.40e-03  1.09e-01  2.14e-01  0.700   0.7
                               ***Turning on AO-DIIS***
    5    -307.3635157571462742    -1.54e-02  3.09e-03  7.59e-02  1.50e-01  0.700   0.7
    6    -307.3742959126149117    -1.08e-02  2.17e-03  5.30e-02  1.05e-01  0.700   0.7
    7    -307.3818541836736813    -7.56e-03  1.52e-03  3.70e-02  7.35e-02  0.700   0.7
    8    -307.3871505345168771    -5.30e-03  3.54e-03  8.64e-02  5.15e-02  0.000   0.6
                              *** Initializing SOSCF ***
---------------------------------------S-O-S-C-F--------------------------------------
Iteration    Energy (Eh)           Delta-E    RMSDP     MaxDP     MaxGrad    Time(sec)
--------------------------------------------------------------------------------------
    9    -307.3995265068122080    -1.24e-02  8.48e-06  1.39e-04  1.51e-04     0.7
               *** Restarting incremental Fock matrix formation ***
   10    -307.3995266561686321    -1.49e-07  6.38e-06  1.22e-04  2.74e-05     0.8
                  *** Gradient check signals convergence ***

               *****************************************************
               *                     SUCCESS                       *
               *           SCF CONVERGED AFTER  10 CYCLES          *
               *****************************************************

             **** ENERGY FILE WAS UPDATED (sp.en.tmp) ****

----------------
TOTAL SCF ENERGY
----------------

Total Energy       :       -307.39952665616863 Eh           -8364.76638 eV

Components:
Nuclear Repulsion  :        272.63038717424865 Eh            7418.64999 eV
Electronic Energy  :       -580.02991383041729 Eh          -15783.41637 eV
One Electron Energy:       -955.63362962639860 Eh          -26004.11309 eV
Two Electron Energy:        375.60371579598132 Eh           10220.69672 eV

Virial components:
Potential Energy   :       -613.61418325558020 Eh          -16697.29080 eV
Kinetic Energy     :        306.21465659941151 Eh            8332.52442 eV
Virial Ratio       :          2.00386941000772

DFT components:
N(Alpha)           :       25.000008490621 electrons
N(Beta)            :       25.000008490621 electrons
N(Total)           :       50.000016981241 electrons
E(X)               :      -41.682676715280 Eh       
E(C)               :       -1.619552554521 Eh       
E(XC)              :      -43.302229269801 Eh       

---------------
SCF CONVERGENCE
---------------

  Last Energy change         ...    1.4936e-07  Tolerance :   1.0000e-06
  Last MAX-Density change    ...    1.2244e-04  Tolerance :   1.0000e-05
  Last RMS-Density change    ...    6.3759e-06  Tolerance :   1.0000e-06
  Last DIIS Error            ...    1.5132e-04  Tolerance :   1.0000e-06
  Last Orbital Gradient      ...    2.7399e-05  Tolerance :   3.3300e-04
  Last Orbital Rotation      ...    1.3306e-04  Tolerance :   3.3300e-04


----------------
ORBITAL ENERGIES
----------------

  NO   OCC          E(Eh)            E(eV) 
   0   2.0000     -18.986749      -516.6557 
   1   2.0000     -10.098122      -274.7839 
   2   2.0000     -10.038344      -273.1572 
   3   2.0000     -10.036746      -273.1137 
   4   2.0000     -10.036341      -273.1027 
   5   2.0000     -10.030945      -272.9559 
   6   2.0000     -10.028081      -272.8780 
   7   2.0000      -1.031757       -28.0755 
   8   2.0000      -0.823268       -22.4023 
   9   2.0000      -0.721227       -19.6256 
  10   2.0000      -0.709541       -19.3076 
  11   2.0000      -0.596255       -16.2249 
  12   2.0000      -0.574336       -15.6285 
  13   2.0000      -0.518346       -14.1049 
  14   2.0000      -0.470359       -12.7991 
  15   2.0000      -0.437333       -11.9004 
  16   2.0000      -0.409539       -11.1441 
  17   2.0000      -0.394531       -10.7357 
  18   2.0000      -0.384089       -10.4516 
  19   2.0000      -0.359754        -9.7894 
  20   2.0000      -0.331079        -9.0091 
  21   2.0000      -0.314609        -8.5609 
  22   2.0000      -0.309070        -8.4102 
  23   2.0000      -0.239968        -6.5299 
  24   2.0000      -0.207644        -5.6503 
  25   0.0000      -0.034059        -0.9268 
  26   0.0000      -0.016791        -0.4569 
  27   0.0000       0.057567         1.5665 
  28   0.0000       0.087491         2.3807 
  29   0.0000       0.125463         3.4140 
  30   0.0000       0.128294         3.4910 
  31   0.0000       0.134133         3.6500 
  32   0.0000       0.137144         3.7319 
  33   0.0000       0.154640         4.2080 
  34   0.0000       0.167814         4.5664 
  35   0.0000       0.197746         5.3809 
*Only the first 10 virtual orbitals were printed.

                    ********************************
                    * MULLIKEN POPULATION ANALYSIS *
                    ********************************

-----------------------
MULLIKEN ATOMIC CHARGES
-----------------------
   0 C :   -0.191593
   1 C :   -0.126285
   2 C :   -0.330118
   3 C :    0.415896
   4 C :   -0.292049
   5 C :   -0.111651
   6 O :   -0.411499
   7 H :    0.147568
   8 H :    0.147697
   9 H :    0.137239
  10 H :    0.157950
  11 H :    0.148714
  12 H :    0.308131
Sum of atomic charges:   -0.0000000

--------------------------------
MULLIKEN REDUCED ORBITAL CHARGES
--------------------------------
  0 C s       :     3.192189  s :     3.192189
      pz      :     1.023961  p :     2.962185
      px      :     1.034170
      py      :     0.904054
      dz2     :     0.003300  d :     0.037219
      dxz     :     0.002365
      dyz     :     0.006501
      dx2y2   :     0.013277
      dxy     :     0.011775

  1 C s       :     3.166805  s :     3.166805
      pz      :     0.978861  p :     2.920983
      px      :     0.938620
      py      :     1.003502
      dz2     :     0.003319  d :     0.038498
      dxz     :     0.006762
      dyz     :     0.003571
      dx2y2   :     0.012361
      dxy     :     0.012486

  2 C s       :     3.208421  s :     3.208421
      pz      :     1.074051  p :     3.085939
      px      :     1.037769
      py      :     0.974119
      dz2     :     0.003441  d :     0.035758
      dxz     :     0.005497
      dyz     :     0.003259
      dx2y2   :     0.009942
      dxy     :     0.013618

  3 C s       :     3.082312  s :     3.082312
      pz      :     0.945406  p :     2.428195
      px      :     0.713766
      py      :     0.769022
      dz2     :     0.004885  d :     0.073598
      dxz     :     0.016710
      dyz     :     0.007373
      dx2y2   :     0.023101
      dxy     :     0.021529

  4 C s       :     3.227164  s :     3.227164
      pz      :     1.036172  p :     3.029459
      px      :     0.986240
      py      :     1.007048
      dz2     :     0.003408  d :     0.035425
      dxz     :     0.005428
      dyz     :     0.003256
      dx2y2   :     0.009716
      dxy     :     0.013618

  5 C s       :     3.166013  s :     3.166013
      pz      :     0.980722  p :     2.907175
      px      :     0.929720
      py      :     0.996733
      dz2     :     0.003300  d :     0.038463
      dxz     :     0.006601
      dyz     :     0.003596
      dx2y2   :     0.012197
      dxy     :     0.012768

  6 O s       :     3.752437  s :     3.752437
      pz      :     1.847649  p :     4.624651
      px      :     1.268732
      py      :     1.508270
      dz2     :     0.004467  d :     0.034411
      dxz     :     0.003638
      dyz     :     0.004592
      dx2y2   :     0.010735
      dxy     :     0.010978

  7 H s       :     0.832775  s :     0.832775
      pz      :     0.004466  p :     0.019658
      px      :     0.012088
      py      :     0.003104

  8 H s       :     0.832802  s :     0.832802
      pz      :     0.004160  p :     0.019501
      px      :     0.005367
      py      :     0.009974

  9 H s       :     0.843027  s :     0.843027
      pz      :     0.004641  p :     0.019733
      px      :     0.005089
      py      :     0.010003

 10 H s       :     0.822326  s :     0.822326
      pz      :     0.004386  p :     0.019724
      px      :     0.005498
      py      :     0.009840

 11 H s       :     0.831834  s :     0.831834
      pz      :     0.004111  p :     0.019452
      px      :     0.005425
      py      :     0.009916

 12 H s       :     0.648768  s :     0.648768
      pz      :     0.012264  p :     0.043101
      px      :     0.010013
      py      :     0.020824


------------------------
MULLIKEN OVERLAP CHARGES
------------------------
B(  0-C ,  1-C ) :   1.0741 B(  0-C ,  2-C ) :  -0.1806 B(  0-C ,  3-C ) :  -0.0749 
B(  0-C ,  4-C ) :  -0.1846 B(  0-C ,  5-C ) :   1.0449 B(  0-C ,  7-H ) :   0.8036 
B(  0-C , 11-H ) :  -0.0596 B(  1-C ,  2-C ) :   0.7034 B(  1-C ,  3-C ) :  -0.0854 
B(  1-C ,  5-C ) :  -0.2250 B(  1-C ,  7-H ) :  -0.0609 B(  1-C ,  8-H ) :   0.7717 
B(  2-C ,  3-C ) :   0.9427 B(  2-C ,  4-C ) :  -0.2374 B(  2-C ,  6-O ) :  -0.1447 
B(  2-C ,  9-H ) :   0.7586 B(  3-C ,  4-C ) :   1.1018 B(  3-C ,  5-C ) :  -0.1472 
B(  3-C ,  6-O ) :   0.4246 B(  3-C ,  9-H ) :  -0.0809 B(  3-C , 12-H ) :  -0.1141 
B(  4-C ,  5-C ) :   0.9244 B(  4-C , 10-H ) :   0.7929 B(  4-C , 11-H ) :  -0.0520 
B(  5-C ,  7-H ) :  -0.0607 B(  5-C , 10-H ) :  -0.0574 B(  5-C , 11-H ) :   0.7986 
B(  6-O , 12-H ) :   0.6030 


                     *******************************
                     * LOEWDIN POPULATION ANALYSIS *
                     *******************************

----------------------
LOEWDIN ATOMIC CHARGES
----------------------
   0 C :   -0.192779
   1 C :   -0.153498
   2 C :   -0.175558
   3 C :    0.181329
   4 C :   -0.145780
   5 C :   -0.152023
   6 O :   -0.494183
   7 H :    0.166752
   8 H :    0.168036
   9 H :    0.168244
  10 H :    0.179777
  11 H :    0.168345
  12 H :    0.281336

-------------------------------
LOEWDIN REDUCED ORBITAL CHARGES
-------------------------------
  0 C s       :     2.901183  s :     2.901183
      pz      :     1.015140  p :     3.210102
      px      :     1.100321
      py      :     1.094641
      dz2     :     0.005627  d :     0.081494
      dxz     :     0.003431
      dyz     :     0.011962
      dx2y2   :     0.032423
      dxy     :     0.028051

  1 C s       :     2.902642  s :     2.902642
      pz      :     0.967598  p :     3.167169
      px      :     1.094250
      py      :     1.105321
      dz2     :     0.005599  d :     0.083688
      dxz     :     0.012512
      dyz     :     0.005907
      dx2y2   :     0.029392
      dxy     :     0.030278

  2 C s       :     2.895687  s :     2.895687
      pz      :     1.047474  p :     3.201483
      px      :     1.087642
      py      :     1.066367
      dz2     :     0.005835  d :     0.078388
      dxz     :     0.009721
      dyz     :     0.005358
      dx2y2   :     0.025282
      dxy     :     0.032193

  3 C s       :     2.786091  s :     2.786091
      pz      :     0.897801  p :     2.872755
      px      :     0.884696
      py      :     1.090258
      dz2     :     0.010819  d :     0.159825
      dxz     :     0.032291
      dyz     :     0.012854
      dx2y2   :     0.053028
      dxy     :     0.050833

  4 C s       :     2.892908  s :     2.892908
      pz      :     1.019633  p :     3.175740
      px      :     1.080793
      py      :     1.075314
      dz2     :     0.005674  d :     0.077132
      dxz     :     0.009533
      dyz     :     0.005287
      dx2y2   :     0.024920
      dxy     :     0.031719

  5 C s       :     2.902554  s :     2.902554
      pz      :     0.964957  p :     3.165905
      px      :     1.097166
      py      :     1.103782
      dz2     :     0.005551  d :     0.083564
      dxz     :     0.012103
      dyz     :     0.005970
      dx2y2   :     0.028945
      dxy     :     0.030994

  6 O s       :     3.485933  s :     3.485933
      pz      :     1.811816  p :     4.747581
      px      :     1.408156
      py      :     1.527609
      dz2     :     0.031760  d :     0.260669
      dxz     :     0.064507
      dyz     :     0.005727
      dx2y2   :     0.069418
      dxy     :     0.089256

  7 H s       :     0.788267  s :     0.788267
      pz      :     0.009753  p :     0.044981
      px      :     0.028265
      py      :     0.006963

  8 H s       :     0.787614  s :     0.787614
      pz      :     0.008848  p :     0.044350
      px      :     0.012150
      py      :     0.023352

  9 H s       :     0.787132  s :     0.787132
      pz      :     0.010245  p :     0.044624
      px      :     0.011666
      py      :     0.022713

 10 H s       :     0.774992  s :     0.774992
      pz      :     0.009719  p :     0.045231
      px      :     0.012643
      py      :     0.022869

 11 H s       :     0.787323  s :     0.787323
      pz      :     0.008788  p :     0.044332
      px      :     0.012297
      py      :     0.023247

 12 H s       :     0.597162  s :     0.597162
      pz      :     0.031066  p :     0.121501
      px      :     0.026033
      py      :     0.064403


---------------------------------
LOEWDIN BOND ORDERS (THRESH 0.050000)
---------------------------------
B(  0-C ,  1-C ) :   1.5079 B(  0-C ,  2-C ) :   0.0906 B(  0-C ,  3-C ) :   0.1085 
B(  0-C ,  4-C ) :   0.0903 B(  0-C ,  5-C ) :   1.4940 B(  0-C ,  7-H ) :   0.8757 
B(  0-C ,  8-H ) :   0.0539 B(  0-C , 11-H ) :   0.0537 B(  1-C ,  2-C ) :   1.5091 
B(  1-C ,  3-C ) :   0.0938 B(  1-C ,  4-C ) :   0.1267 B(  1-C ,  5-C ) :   0.0882 
B(  1-C ,  7-H ) :   0.0543 B(  1-C ,  8-H ) :   0.8727 B(  1-C ,  9-H ) :   0.0536 
B(  2-C ,  3-C ) :   1.3322 B(  2-C ,  4-C ) :   0.0868 B(  2-C ,  5-C ) :   0.1246 
B(  2-C ,  6-O ) :   0.2219 B(  2-C ,  8-H ) :   0.0556 B(  2-C ,  9-H ) :   0.8656 
B(  3-C ,  4-C ) :   1.3181 B(  3-C ,  5-C ) :   0.0944 B(  3-C ,  6-O ) :   1.4918 
B(  3-C ,  9-H ) :   0.0557 B(  3-C , 10-H ) :   0.0547 B(  3-C , 12-H ) :   0.0504 
B(  4-C ,  5-C ) :   1.5241 B(  4-C ,  6-O ) :   0.2253 B(  4-C , 10-H ) :   0.8621 
B(  4-C , 11-H ) :   0.0554 B(  5-C ,  7-H ) :   0.0539 B(  5-C , 10-H ) :   0.0532 
B(  5-C , 11-H ) :   0.8730 B(  6-O , 12-H ) :   0.9485 

------------------------------------------
LOEWDIN REDUCED ORBITAL POPULATIONS PER MO
-------------------------------------------
THRESHOLD FOR PRINTING IS 0.1%%
                      0         1         2         3         4         5   
                 -18.98675 -10.09812 -10.03834 -10.03675 -10.03634 -10.03094
                   2.00000   2.00000   2.00000   2.00000   2.00000   2.00000
                  --------  --------  --------  --------  --------  --------
 0 C  py              0.0       0.0       0.1       0.1       0.0       0.0
 1 C  s               0.0       0.0      98.1       0.0       1.4       0.0
 1 C  px              0.0       0.0       0.0       0.0       0.1       0.0
 2 C  s               0.0       0.0       1.4       0.0      98.2       0.0
 2 C  px              0.0       0.0       0.1       0.0       0.0       0.0
 3 C  s               0.0      99.2       0.0       0.0       0.0       0.0
 3 C  py              0.0       0.0       0.0       0.0       0.1       0.1
 4 C  s               0.0       0.0       0.0       0.2       0.0      99.4
 4 C  px              0.0       0.0       0.0       0.1       0.0       0.0
 5 C  s               0.0       0.0       0.0      99.3       0.0       0.2
 5 C  px              0.0       0.0       0.0       0.0       0.0       0.1
 6 O  s              99.9       0.0       0.0       0.0       0.0       0.0
 6 O  px              0.0       0.1       0.0       0.0       0.0       0.0
 6 O  dx2y2           0.0       0.2       0.0       0.0       0.0       0.0

                      6         7         8         9        10        11   
                 -10.02808  -1.03176  -0.82327  -0.72123  -0.70954  -0.59625
                   2.00000   2.00000   2.00000   2.00000   2.00000   2.00000
                  --------  --------  --------  --------  --------  --------
 0 C  s              99.5       0.0      12.7       0.1      18.7       2.7
 0 C  px              0.0       0.0       2.9       0.0       0.2       0.6
 0 C  py              0.0       0.0       0.0       8.7       0.1       7.6
 0 C  dz2             0.0       0.0       0.1       0.0       0.1       0.0
 0 C  dxy             0.0       0.0       0.0       0.3       0.0       0.1
 1 C  s               0.1       0.1      12.9      14.9       2.8       3.1
 1 C  px              0.0       0.1       0.6       1.6       6.3       7.5
 1 C  py              0.1       0.0       2.2       0.5       2.1       0.5
 1 C  dz2             0.0       0.0       0.1       0.1       0.0       0.0
 1 C  dx2y2           0.0       0.0       0.0       0.1       0.1       0.1
 1 C  dxy             0.0       0.0       0.0       0.0       0.1       0.0
 2 C  s               0.0       0.9      11.5      13.3       6.5       6.8
 2 C  px              0.0       0.9       1.4       2.1       3.0       2.0
 2 C  py              0.0       0.8       1.6       0.9       1.4       0.7
 2 C  dz2             0.0       0.0       0.1       0.1       0.0       0.0
 2 C  dx2y2           0.0       0.0       0.0       0.1       0.1       0.0
 3 C  s               0.0      10.0       7.4       0.2      12.4       1.6
 3 C  px              0.0       9.3       6.4       0.0       2.3       1.9
 3 C  py              0.0       0.0       0.0      11.5       0.0      11.1
 3 C  dz2             0.0       0.4       0.1       0.0       0.1       0.0
 3 C  dx2y2           0.0       0.7       0.1       0.0       0.2       0.0
 3 C  dxy             0.0       0.0       0.0       0.3       0.0       0.0
 4 C  s               0.0       0.8      11.1      16.1       3.0       0.2
 4 C  px              0.0       0.8       1.2       1.1       4.8       9.9
 4 C  py              0.0       0.8       1.7       0.4       1.7       0.8
 4 C  dz2             0.0       0.0       0.1       0.1       0.0       0.0
 4 C  dx2y2           0.0       0.0       0.0       0.1       0.1       0.1
 5 C  s               0.1       0.1      12.6      11.8       6.5       7.2
 5 C  px              0.0       0.1       0.6       2.7       4.8       0.0
 5 C  py              0.1       0.0       2.2       0.8       1.7       1.9
 5 C  dz2             0.0       0.0       0.1       0.1       0.0       0.0
 5 C  dx2y2           0.0       0.0       0.0       0.1       0.1       0.0
 5 C  dxy             0.0       0.0       0.0       0.0       0.1       0.0
 6 O  s               0.0      58.8       1.7       0.0       2.7       0.0
 6 O  px              0.0       1.6       1.2       0.2       5.8       8.5
 6 O  py              0.0       1.3       0.2       0.6       0.8       8.7
 6 O  dz2             0.0       0.2       0.2       0.0       0.3       0.0
 6 O  dx2y2           0.0       0.1       0.4       0.0       1.1       0.4
 6 O  dxy             0.0       0.0       0.0       0.4       0.1       0.3
 7 H  s               0.0       0.0       1.2       0.0       3.4       1.2
 7 H  px              0.0       0.0       0.1       0.0       0.3       0.1
 8 H  s               0.0       0.0       1.2       2.6       0.5       1.4
 8 H  py              0.0       0.0       0.1       0.2       0.0       0.1
 9 H  s               0.0       0.1       1.0       2.5       1.2       3.8
 9 H  py              0.0       0.0       0.1       0.1       0.1       0.2
10 H  s               0.0       0.1       1.0       2.8       0.5       0.3
10 H  py              0.0       0.0       0.1       0.2       0.1       0.1
11 H  s               0.0       0.0       1.2       2.0       1.2       3.2
11 H  py              0.0       0.0       0.1       0.1       0.1       0.2
12 H  s               0.0       9.8       0.5       0.2       1.8       4.2
12 H  px              0.0       0.4       0.0       0.0       0.0       0.0
12 H  py              0.0       1.8       0.1       0.0       0.3       0.3

                     12        13        14        15        16        17   
                  -0.57434  -0.51835  -0.47036  -0.43733  -0.40954  -0.39453
                   2.00000   2.00000   2.00000   2.00000   2.00000   2.00000
                  --------  --------  --------  --------  --------  --------
 0 C  s               5.4       0.4       2.7       1.1       1.4       0.0
 0 C  px              1.6       1.0      18.1       1.7       6.3       0.1
 0 C  py              5.2       1.4       2.2       9.0       1.9       1.8
 0 C  dx2y2           0.0       0.1       0.0       0.1       0.0       0.0
 0 C  dxy             0.1       0.0       0.0       0.0       0.0       0.5
 1 C  s               7.5       0.9       0.6       1.4       0.5       0.3
 1 C  px              0.3       0.3       8.0      10.7       0.4       5.4
 1 C  py              4.4       8.4       0.5       0.1      14.1      11.0
 1 C  dx2y2           0.0       0.0       0.0       0.1       0.0       0.2
 1 C  dxy             0.0       0.0       0.1       0.1       0.4       0.0
 2 C  s               0.1       1.2       0.5       1.9       0.4       0.7
 2 C  px              9.9       0.0      11.5       2.4       2.0       4.8
 2 C  py              2.7      11.4       1.3       7.7       4.9      10.7
 2 C  dx2y2           0.2       0.1       0.2       0.0       0.0       0.2
 2 C  dxy             0.0       0.0       0.0       0.3       0.4       0.0
 3 C  s               4.1       0.2       0.3       0.8       2.6       0.0
 3 C  px              0.5      12.3       0.6       1.4       5.6       0.0
 3 C  py              5.5       0.0       0.8       9.1       1.1       2.5
 3 C  dx2y2           0.0       0.1       0.7       0.1       0.0       0.0
 3 C  dxy             0.1       0.1       0.1       0.0       0.0       0.6
 4 C  s               8.2       0.3       3.7       0.3       0.4       0.4
 4 C  px              0.2       0.0       3.1      10.0       1.6       4.7
 4 C  py              3.4       6.1       5.3       0.6       9.5      13.2
 4 C  dx2y2           0.0       0.2       0.1       0.1       0.2       0.2
 4 C  dxy             0.0       0.0       0.0       0.0       0.4       0.0
 5 C  s               0.3       3.7       1.6       0.6       0.4       0.5
 5 C  px             10.9       2.4       0.0       5.2       8.4       4.3
 5 C  py              2.6       7.4       1.5       5.7       6.0      10.6
 5 C  dx2y2           0.2       0.0       0.1       0.0       0.0       0.1
 5 C  dxy             0.0       0.0       0.1       0.1       0.3       0.0
 6 O  s               1.1       0.1       1.5       1.4       0.1       0.1
 6 O  px              9.3      14.0       1.2       8.6       2.9       0.2
 6 O  py              0.2       7.7       7.7       6.1       0.4       0.3
 6 O  dz2             0.0       0.1       0.3       0.0       0.0       0.0
 6 O  dx2y2           0.4       0.2       0.1       0.0       0.4       0.0
 6 O  dxy             0.8       0.2       0.0       0.8       0.2       0.0
 7 H  s               2.8       0.0      10.9       2.2       0.9       0.1
 7 H  px              0.2       0.0       0.5       0.1       0.0       0.0
 8 H  s               4.4       2.5       0.6       3.1       7.7       6.9
 8 H  px              0.1       0.1       0.0       0.0       0.1       0.0
 8 H  py              0.2       0.1       0.0       0.2       0.1       0.1
 9 H  s               0.1       3.8       3.8       4.0       5.2       6.0
 9 H  px              0.0       0.1       0.0       0.2       0.0       0.0
 9 H  py              0.0       0.1       0.2       0.0       0.1       0.1
10 H  s               4.4       0.5       7.2       1.0       3.4       7.5
10 H  px              0.1       0.0       0.1       0.0       0.1       0.0
10 H  py              0.2       0.0       0.2       0.1       0.0       0.1
11 H  s               0.1       6.6       0.0       1.1       8.0       5.5
11 H  px              0.0       0.1       0.0       0.1       0.0       0.0
11 H  py              0.0       0.3       0.0       0.0       0.2       0.1
12 H  s               1.7       5.2       2.0       0.0       0.6       0.1
12 H  px              0.0       0.0       0.0       0.1       0.0       0.0
12 H  py              0.2       0.3       0.0       0.1       0.0       0.0

                     18        19        20        21        22        23   
                  -0.38409  -0.35975  -0.33108  -0.31461  -0.30907  -0.23997
                   2.00000   2.00000   2.00000   2.00000   2.00000   2.00000
                  --------  --------  --------  --------  --------  --------
 0 C  s               0.0       0.1       0.1       0.0       0.0       0.0
 0 C  pz              2.9       0.0       0.0      22.0       0.0       0.1
 0 C  px              0.0       5.6      16.3       0.0       0.4       0.0
 0 C  py              0.0       6.2       1.7       0.0       8.8       0.0
 0 C  dxz             0.0       0.0       0.0       0.1       0.0       0.0
 0 C  dyz             0.0       0.0       0.0       0.0       0.0       0.6
 0 C  dx2y2           0.0       0.2       1.1       0.0       0.0       0.0
 0 C  dxy             0.0       0.0       0.0       0.0       0.3       0.0
 1 C  s               0.0       0.3       0.1       0.0       0.1       0.0
 1 C  pz              4.2       0.0       0.0      17.5       0.0      22.5
 1 C  px              0.0       0.7      11.8       0.0       0.9       0.0
 1 C  py              0.0       1.2       2.3       0.0       8.0       0.0
 1 C  dxz             0.0       0.0       0.0       0.0       0.0       0.2
 1 C  dyz             0.0       0.0       0.0       0.1       0.0       0.0
 1 C  dx2y2           0.0       0.1       0.5       0.0       0.1       0.0
 1 C  dxy             0.0       0.0       0.0       0.0       0.7       0.0
 2 C  s               0.0       0.9       0.2       0.0       0.1       0.0
 2 C  pz             10.6       0.0       0.0       4.9       0.0      25.4
 2 C  px              0.0       1.4      10.8       0.0       2.2       0.0
 2 C  py              0.0       0.2       0.7       0.0       8.3       0.0
 2 C  dxz             0.0       0.0       0.0       0.2       0.0       0.2
 2 C  dyz             0.1       0.0       0.0       0.0       0.0       0.0
 2 C  dx2y2           0.0       0.2       0.2       0.0       0.0       0.0
 2 C  dxy             0.0       0.0       0.2       0.0       0.6       0.0
 3 C  s               0.0       0.1       0.2       0.0       0.0       0.0
 3 C  pz             29.2       0.0       0.0       0.5       0.0       0.0
 3 C  px              0.0       2.0       1.5       0.0       0.4       0.0
 3 C  py              0.0       0.5       0.5       0.0      11.7       0.0
 3 C  dxz             0.1       0.0       0.0       0.7       0.0       0.0
 3 C  dyz             0.0       0.0       0.0       0.0       0.0       0.6
 3 C  dx2y2           0.0       0.0       0.7       0.0       0.0       0.0
 3 C  dxy             0.0       0.5       0.0       0.0       0.8       0.0
 4 C  s               0.0       0.1       0.4       0.0       0.2       0.0
 4 C  pz              9.8       0.0       0.0       4.4       0.0      23.9
 4 C  px              0.0       8.5       7.4       0.0       0.5       0.0
 4 C  py              0.0       1.0       0.3       0.0       8.8       0.0
 4 C  dxz             0.0       0.0       0.0       0.2       0.0       0.2
 4 C  dyz             0.1       0.0       0.0       0.0       0.0       0.0
 4 C  dx2y2           0.0       0.0       0.1       0.0       0.0       0.0
 4 C  dxy             0.0       0.1       0.0       0.0       0.8       0.0
 5 C  s               0.0       0.0       0.2       0.0       0.1       0.0
 5 C  pz              4.0       0.0       0.0      16.6       0.0      25.0
 5 C  px              0.0       6.5       8.4       0.0       0.3       0.0
 5 C  py              0.0       4.8       1.0       0.0       8.7       0.0
 5 C  dxz             0.0       0.0       0.0       0.0       0.0       0.2
 5 C  dyz             0.0       0.0       0.0       0.1       0.0       0.0
 5 C  dx2y2           0.0       0.1       0.6       0.0       0.0       0.0
 5 C  dxy             0.0       0.1       0.2       0.0       0.6       0.0
 6 O  s               0.0       5.6       0.2       0.0       1.2       0.0
 6 O  pz             36.9       0.0       0.0      31.8       0.0       0.0
 6 O  px              0.0       8.2       5.7       0.0       2.8       0.0
 6 O  py              0.0      31.5       2.8       0.0       8.2       0.0
 6 O  dz2             0.0       0.2       0.1       0.0       0.0       0.0
 6 O  dxz             1.2       0.0       0.0       0.0       0.0       0.0
 6 O  dyz             0.1       0.0       0.0       0.0       0.0       0.2
 6 O  dx2y2           0.0       0.1       0.0       0.0       0.0       0.0
 6 O  dxy             0.0       0.7       0.0       0.0       0.9       0.0
 7 H  s               0.0       3.5      12.8       0.0       0.3       0.0
 7 H  pz              0.0       0.0       0.0       0.2       0.0       0.0
 7 H  px              0.0       0.0       0.1       0.0       0.0       0.0
 8 H  s               0.0       0.7       0.4       0.0       7.4       0.0
 8 H  pz              0.0       0.0       0.0       0.1       0.0       0.2
 9 H  s               0.0       0.6       4.3       0.0       3.1       0.0
 9 H  pz              0.1       0.0       0.0       0.0       0.0       0.3
10 H  s               0.0       3.7       0.2       0.0       6.1       0.0
10 H  pz              0.1       0.0       0.0       0.0       0.0       0.3
10 H  py              0.0       0.1       0.0       0.0       0.0       0.0
11 H  s               0.0       0.3       5.2       0.0       4.9       0.0
11 H  pz              0.0       0.0       0.0       0.1       0.0       0.3
11 H  px              0.0       0.1       0.0       0.0       0.1       0.0
12 H  s               0.0       2.7       0.1       0.0       1.1       0.0
12 H  pz              0.6       0.0       0.0       0.5       0.0       0.0
12 H  px              0.0       0.4       0.1       0.0       0.1       0.0

                     24        25        26        27        28        29   
                  -0.20764  -0.03406  -0.01679   0.05757   0.08749   0.12546
                   2.00000   0.00000   0.00000   0.00000   0.00000   0.00000
                  --------  --------  --------  --------  --------  --------
 0 C  s               0.0       0.0       0.0       0.2       3.6       7.0
 0 C  pz             25.8       0.0      30.0       0.0       0.0       0.0
 0 C  px              0.0       0.0       0.0       0.1       2.9       2.8
 0 C  py              0.0       0.0       0.0       0.1       0.0       0.9
 0 C  dxz             0.0       0.0       0.3       0.0       0.0       0.0
 0 C  dyz             0.0       1.4       0.0       0.0       0.0       0.0
 0 C  dx2y2           0.0       0.0       0.0       0.0       1.2       0.2
 1 C  s               0.0       0.0       0.0       1.5       5.4       0.8
 1 C  pz              4.2      23.6       8.9       0.0       0.0       0.0
 1 C  px              0.0       0.0       0.0       0.4       0.9       0.3
 1 C  py              0.0       0.0       0.0       0.4       5.0       4.7
 1 C  dz2             0.0       0.0       0.0       0.1       0.1       0.2
 1 C  dxz             0.4       0.5       0.5       0.0       0.0       0.0
 1 C  dyz             0.2       0.0       0.5       0.0       0.0       0.0
 1 C  dx2y2           0.0       0.0       0.0       0.0       0.4       0.0
 1 C  dxy             0.0       0.0       0.0       0.1       1.2       0.2
 2 C  s               0.0       0.0       0.0       3.5       4.0       0.7
 2 C  pz             11.6      22.2       4.8       0.0       0.0       0.0
 2 C  px              0.0       0.0       0.0       9.5       0.9       1.9
 2 C  py              0.0       0.0       0.0       1.6       9.1      13.4
 2 C  dz2             0.0       0.0       0.0       0.0       0.1       0.3
 2 C  dxz             0.1       0.5       0.6       0.0       0.0       0.0
 2 C  dyz             0.1       0.0       0.7       0.0       0.0       0.0
 2 C  dx2y2           0.0       0.0       0.0       0.6       0.7       0.3
 2 C  dxy             0.0       0.0       0.0       0.0       1.1       0.3
 3 C  s               0.0       0.0       0.0       3.4       0.4       4.6
 3 C  pz             15.2       0.0      27.1       0.0       0.0       0.0
 3 C  px              0.0       0.0       0.0       7.1       6.3       1.9
 3 C  py              0.0       0.0       0.0       1.2       0.1       0.9
 3 C  dz2             0.0       0.0       0.0       0.4       0.1       0.4
 3 C  dxz             0.9       0.0       0.0       0.0       0.0       0.0
 3 C  dyz             0.0       1.4       0.0       0.0       0.0       0.0
 3 C  dx2y2           0.0       0.0       0.0       0.3       2.1       0.2
 3 C  dxy             0.0       0.0       0.0       0.3       0.0       0.3
 4 C  s               0.0       0.0       0.0       1.0       2.0      11.7
 4 C  pz             13.0      21.9       5.3       0.0       0.0       0.0
 4 C  px              0.0       0.0       0.0       0.8       0.5       2.0
 4 C  py              0.0       0.0       0.0       0.7       3.3       2.5
 4 C  dz2             0.0       0.0       0.0       0.0       0.1       0.2
 4 C  dxz             0.1       0.5       0.6       0.0       0.0       0.0
 4 C  dyz             0.1       0.0       0.6       0.0       0.0       0.0
 4 C  dx2y2           0.0       0.0       0.0       0.3       0.7       0.1
 4 C  dxy             0.0       0.0       0.0       0.1       0.7       0.4
 5 C  s               0.0       0.0       0.0       0.3       4.0      12.7
 5 C  pz              2.7      23.3       8.5       0.0       0.0       0.0
 5 C  px              0.0       0.0       0.0       0.3       0.6       2.4
 5 C  py              0.0       0.0       0.0       0.6       2.6       6.5
 5 C  dz2             0.0       0.0       0.0       0.1       0.1       0.1
 5 C  dxz             0.4       0.5       0.5       0.0       0.0       0.0
 5 C  dyz             0.2       0.0       0.5       0.0       0.0       0.0
 5 C  dx2y2           0.0       0.0       0.0       0.0       0.3       0.1
 5 C  dxy             0.0       0.0       0.0       0.0       0.7       0.6
 6 O  s               0.0       0.0       0.0       8.6       1.3       0.9
 6 O  pz             21.9       0.0       5.0       0.0       0.0       0.0
 6 O  px              0.0       0.0       0.0       1.9       2.6       0.9
 6 O  py              0.0       0.0       0.0       8.1       0.0       0.3
 6 O  dz2             0.0       0.0       0.0       0.3       0.1       1.3
 6 O  dxz             2.0       0.0       3.4       0.0       0.0       0.0
 6 O  dyz             0.0       1.5       0.0       0.0       0.0       0.0
 6 O  dx2y2           0.0       0.0       0.0       3.0       1.5       0.0
 6 O  dxy             0.0       0.0       0.0       2.0       0.0       0.5
 7 H  s               0.0       0.0       0.0       0.2       3.4       1.0
 7 H  pz              0.3       0.0       0.9       0.0       0.0       0.0
 7 H  px              0.0       0.0       0.0       0.0       1.1       0.8
 8 H  s               0.0       0.0       0.0       0.0       4.9       0.8
 8 H  pz              0.1       0.7       0.3       0.0       0.0       0.0
 8 H  px              0.0       0.0       0.0       0.0       0.4       0.1
 8 H  py              0.0       0.0       0.0       0.0       1.5       0.2
 9 H  s               0.0       0.0       0.0       1.1       8.4       4.0
 9 H  pz              0.1       0.7       0.2       0.0       0.0       0.0
 9 H  px              0.0       0.0       0.0       0.9       0.6       0.3
 9 H  py              0.0       0.0       0.0       0.1       2.1       1.2
10 H  s               0.0       0.0       0.0       0.4       4.8       0.8
10 H  pz              0.2       0.6       0.2       0.0       0.0       0.0
10 H  px              0.0       0.0       0.0       0.0       0.1       0.4
10 H  py              0.0       0.0       0.0       0.0       1.1       0.3
11 H  s               0.0       0.0       0.0       0.3       3.4       2.3
11 H  pz              0.0       0.7       0.3       0.0       0.0       0.0
11 H  px              0.0       0.0       0.0       0.0       0.2       0.5
11 H  py              0.0       0.0       0.0       0.0       1.0       1.2
12 H  s               0.0       0.0       0.0      30.0       0.1       0.1
12 H  pz              0.5       0.0       0.2       0.0       0.0       0.0
12 H  px              0.0       0.0       0.0       1.3       0.1       0.0
12 H  py              0.0       0.0       0.0       6.6       0.0       0.0

                     30        31        32        33        34        35   
                   0.12829   0.13413   0.13714   0.15464   0.16781   0.19775
                   0.00000   0.00000   0.00000   0.00000   0.00000   0.00000
                  --------  --------  --------  --------  --------  --------
 0 C  s               0.0       7.2       4.6       1.5       8.3       4.9
 0 C  pz             13.7       0.0       0.0       0.0       0.0       0.0
 0 C  px              0.0      23.7       0.3       0.1       2.6       8.0
 0 C  py              0.0       0.3       2.8       9.0       0.1       1.1
 0 C  dz2             0.0       0.6       0.5       0.2       0.2       1.0
 0 C  dxz             0.4       0.0       0.0       0.0       0.0       0.0
 0 C  dx2y2           0.0       0.1       0.0       0.0       1.1       1.1
 0 C  dxy             0.0       0.0       0.0       1.1       0.0       0.1
 1 C  s               0.0       0.1      16.9       3.4       4.2       3.3
 1 C  pz             13.8       0.0       0.0       0.0       0.0       0.0
 1 C  px              0.0       7.8       2.3       5.8       3.0       7.2
 1 C  py              0.0       1.3      10.8       0.3      10.1       2.6
 1 C  dz2             0.0       0.0       0.0       0.6       0.9       0.1
 1 C  dyz             0.3       0.0       0.0       0.0       0.0       0.0
 1 C  dx2y2           0.0       0.0       0.0       0.4       0.5       1.7
 1 C  dxy             0.0       0.7       0.0       0.0       0.1       0.1
 2 C  s               0.0       3.8       9.8       4.5       2.5       3.2
 2 C  pz             14.1       0.0       0.0       0.0       0.0       0.0
 2 C  px              0.0       1.1       1.1       0.4       1.7       0.2
 2 C  py              0.0       4.7       0.3       3.3       1.6       2.9
 2 C  dz2             0.0       0.0       0.7       0.0       0.0       0.5
 2 C  dxz             0.1       0.0       0.0       0.0       0.0       0.0
 2 C  dyz             0.6       0.0       0.0       0.0       0.0       0.0
 2 C  dx2y2           0.0       0.4       0.0       0.1       0.0       0.1
 2 C  dxy             0.0       0.5       0.0       0.0       0.1       0.4
 3 C  s               0.0       5.1       4.6       0.1       1.7       5.0
 3 C  pz             18.2       0.0       0.0       0.0       0.0       0.0
 3 C  px              0.0       0.5       1.4       1.0       1.6       5.0
 3 C  py              0.0       0.1       0.1       1.2       0.2       1.5
 3 C  dz2             0.0       0.8       0.7       0.0       0.0       1.0
 3 C  dx2y2           0.0       0.5       0.2       0.1       0.5       0.5
 3 C  dxy             0.0       0.0       0.0       0.1       0.0       0.3
 4 C  s               0.0       5.7       1.3       6.1       0.6       0.3
 4 C  pz             15.3       0.0       0.0       0.0       0.0       0.0
 4 C  px              0.0       1.7       0.8       7.0       2.1       4.8
 4 C  py              0.0       8.5       4.8      12.5       0.4       0.7
 4 C  dz2             0.0       0.0       0.2       0.9       0.1       0.1
 4 C  dxz             0.1       0.0       0.0       0.0       0.0       0.0
 4 C  dyz             0.6       0.0       0.0       0.0       0.0       0.0
 4 C  dx2y2           0.0       0.5       0.2       0.1       0.0       0.3
 4 C  dxy             0.0       0.1       0.5       0.1       0.2       0.0
 5 C  s               0.0       1.2       1.3       8.1       3.0       5.5
 5 C  pz             14.6       0.0       0.0       0.0       0.0       0.0
 5 C  px              0.0       2.8       4.1       8.4       2.9       0.8
 5 C  py              0.0       1.7       7.2       1.7      13.7       0.4
 5 C  dz2             0.0       0.0       0.5       0.2       0.7       0.4
 5 C  dxz             0.1       0.0       0.0       0.0       0.0       0.0
 5 C  dyz             0.3       0.0       0.0       0.0       0.0       0.0
 5 C  dx2y2           0.0       0.0       0.0       0.4       0.8       0.5
 5 C  dxy             0.0       0.3       0.3       0.3       0.1       0.1
 6 O  s               0.0       0.0       0.2       0.4       1.2       1.8
 6 O  pz              1.0       0.0       0.0       0.0       0.0       0.0
 6 O  px              0.0       0.0       1.2       0.9       0.4       4.1
 6 O  py              0.0       0.1       1.5       0.9       1.0       1.8
 6 O  dz2             0.0       1.6       2.3       0.3       0.9       1.7
 6 O  dxz             1.8       0.0       0.0       0.0       0.0       0.0
 6 O  dx2y2           0.0       0.4       1.3       1.0       1.2       3.0
 6 O  dxy             0.0       0.2       0.0       0.4       0.7       1.5
 7 H  s               0.0       5.0       0.6       0.4       0.9      11.7
 7 H  pz              0.9       0.0       0.0       0.0       0.0       0.0
 7 H  px              0.0       3.2       0.0       0.0       0.3       2.2
 7 H  py              0.0       0.0       0.2       1.2       0.0       0.0
 8 H  s               0.0       1.3       2.5       0.6       6.7       0.3
 8 H  pz              0.9       0.0       0.0       0.0       0.0       0.0
 8 H  px              0.0       0.8       0.4       0.5       0.0       0.5
 8 H  py              0.0       0.1       1.4       0.0       2.5       0.2
 9 H  s               0.0       0.7       1.2       0.7       2.8       0.4
 9 H  pz              1.0       0.0       0.0       0.0       0.0       0.0
 9 H  px              0.0       0.1       0.2       0.3       0.5       0.1
 9 H  py              0.0       0.8       0.0       0.3       0.6       0.5
10 H  s               0.0       1.5       2.3       6.7       1.4       0.2
10 H  pz              1.0       0.0       0.0       0.0       0.0       0.0
10 H  px              0.0       0.0       0.1       1.7       0.4       0.1
10 H  py              0.0       1.4       0.4       1.7       0.1       0.0
11 H  s               0.0       0.2       2.3       1.3       5.9       1.7
11 H  pz              0.9       0.0       0.0       0.0       0.0       0.0
11 H  px              0.0       0.2       0.6       0.7       0.0       0.0
11 H  py              0.0       0.1       0.5       0.2       2.8       0.0
12 H  s               0.0       0.1       2.0       0.6       3.0       1.9
12 H  pz              0.1       0.0       0.0       0.0       0.0       0.0
12 H  px              0.0       0.0       0.0       0.1       0.5       0.0
12 H  py              0.0       0.0       0.5       0.1       0.4       0.6

                     36        37        38        39        40        41   
                   0.21593   0.22270   0.22748   0.23957   0.26384   0.26646
                   0.00000   0.00000   0.00000   0.00000   0.00000   0.00000
                  --------  --------  --------  --------  --------  --------
 0 C  s               5.7       0.0       1.2       3.3       0.0       0.1
 0 C  pz              0.0      16.2       0.0       0.0       6.0       0.0
 0 C  px              9.4       0.0       0.1       0.6       0.0       0.1
 0 C  py              0.3       0.0       4.7      14.6       0.0      12.1
 0 C  dz2             0.3       0.0       0.1       0.5       0.0       0.0
 0 C  dyz             0.0       0.0       0.0       0.0       0.1       0.0
 0 C  dxy             0.0       0.0       0.8       0.5       0.0       3.8
 1 C  s               0.4       0.0       9.7       0.1       0.0       5.4
 1 C  pz              0.0      17.6       0.0       0.0       7.4       0.0
 1 C  px              0.3       0.0       1.5       2.0       0.0       2.2
 1 C  py              2.2       0.0       2.5       6.2       0.0       4.2
 1 C  dz2             0.1       0.0       1.1       0.0       0.0       0.6
 1 C  dxz             0.0       0.1       0.0       0.0       0.3       0.0
 1 C  dx2y2           0.2       0.0       0.0       0.3       0.0       0.7
 1 C  dxy             0.2       0.0       1.5       0.4       0.0       0.4
 2 C  s               4.3       0.0       4.3       4.6       0.0       1.0
 2 C  pz              0.0      21.1       0.0       0.0      31.1       0.0
 2 C  px              1.4       0.0       2.7       7.8       0.0       3.3
 2 C  py              1.3       0.0       3.7       2.1       0.0       9.5
 2 C  dz2             0.6       0.0       0.6       0.6       0.0       0.4
 2 C  dxz             0.0       0.0       0.0       0.0       0.1       0.0
 2 C  dyz             0.0       0.0       0.0       0.0       0.2       0.0
 2 C  dx2y2           0.0       0.0       0.0       0.0       0.0       0.3
 2 C  dxy             0.5       0.0       1.6       0.3       0.0       0.6
 3 C  s              10.1       0.0       1.4       2.7       0.0       0.1
 3 C  pz              0.0      15.5       0.0       0.0       2.5       0.0
 3 C  px              1.0       0.0       0.0       0.5       0.0       0.3
 3 C  py              0.2       0.0       5.1       8.3       0.0       7.8
 3 C  dz2             0.3       0.0       0.0       0.2       0.0       0.0
 3 C  dyz             0.0       0.0       0.0       0.0       0.1       0.0
 3 C  dx2y2           0.2       0.0       0.0       0.0       0.0       0.0
 3 C  dxy             0.1       0.0       0.2       0.0       0.0       0.1
 4 C  s               3.3       0.0      10.3       0.2       0.0       0.4
 4 C  pz              0.0      13.3       0.0       0.0      15.7       0.0
 4 C  px              7.9       0.0       0.2       4.9       0.0       2.6
 4 C  py              7.9       0.0       0.9       1.2       0.0      10.2
 4 C  dz2             0.3       0.0       1.5       0.0       0.0       0.2
 4 C  dxz             0.0       0.0       0.0       0.0       0.2       0.0
 4 C  dx2y2           0.1       0.0       0.0       0.3       0.0       0.6
 4 C  dxy             2.0       0.0       0.7       0.2       0.0       0.7
 5 C  s               2.4       0.0       4.4       3.2       0.0       6.8
 5 C  pz              0.0      14.1       0.0       0.0      31.5       0.0
[...]
 8 H  py              6.2       7.8       7.5       1.4       0.1       0.5
 9 H  s               0.3       0.4       2.8       0.8       0.1       3.1
 9 H  px              0.6       0.7       3.3       0.1       1.4       3.8
 9 H  py              0.6       1.7       9.4       4.1       0.1       6.7
10 H  s               0.6       0.1       2.6       0.2       0.8       2.8
10 H  px              1.0       0.2       2.9       1.2       0.3       4.0
10 H  py              1.5       0.2       9.9       0.4       3.7       5.8
11 H  s               1.7       0.3       3.7       0.1       0.2       0.5
11 H  px              1.7       0.4       4.5       0.0       0.3       0.9
11 H  py              7.3       0.9      13.3       0.0       1.3       1.3
12 H  s               0.1       0.2       0.0       0.0       0.0       0.1
12 H  px              0.0       0.0       0.0       1.6       1.7       0.0
12 H  py              0.9       1.3       0.1       1.1       0.7       0.0

                    156       157       158       159       160       161   
                   3.62155   3.64126   3.94892   4.22591   4.60457  21.39856
                   0.00000   0.00000   0.00000   0.00000   0.00000   0.00000
                  --------  --------  --------  --------  --------  --------
 0 C  s               0.0       0.0       0.4       0.1       0.0      17.7
 0 C  px              0.0       0.0       1.6       0.7       0.0       0.0
 0 C  py              3.2       0.1       0.0       0.0       0.0       0.0
 0 C  dz2             0.0       0.0       0.4       0.1       0.0       0.0
 0 C  dx2y2           0.0       0.0       9.9       3.5       0.2       0.0
 0 C  dxy             5.9       1.3       0.0       0.0       0.0       0.0
 1 C  s               0.2       0.7       0.3       0.1       0.0      18.4
 1 C  px              1.2       1.7       0.1       0.3       0.0       0.0
 1 C  py              1.6       0.9       1.0       0.4       0.0       0.0
 1 C  dz2             0.1       0.7       0.2       0.1       0.0       0.0
 1 C  dx2y2           2.6       4.0       2.0       1.1       0.0       0.0
 1 C  dxy             5.7       2.9       4.7       2.8       0.2       0.0
 2 C  s               0.2       0.6       0.1       0.2       0.1      16.7
 2 C  px              1.2       1.5       0.2       0.6       0.0       0.0
 2 C  py              2.0       0.5       0.1       0.5       0.2       0.0
 2 C  dz2             0.1       0.7       0.0       0.2       0.0       0.0
 2 C  dx2y2           5.0       5.3       0.6       1.0       0.1       0.0
 2 C  dxy             5.8       2.5       2.2       2.9       0.5       0.0
 3 C  s               0.1       0.0       3.0       1.4       0.1      12.9
 3 C  px              0.0       0.0       3.0       3.5       1.5       0.0
 3 C  py              3.2       0.0       0.0       0.0       0.2       0.0
 3 C  dz2             0.0       0.0       1.3       1.3       0.1       0.0
 3 C  dx2y2           0.0       0.0       0.4       8.4       2.9       0.0
 3 C  dxy            14.0       5.1       0.0       0.0       0.0       0.0
 4 C  s               0.3       0.6       0.1       0.1       0.2      16.0
 4 C  px              1.3       1.7       0.2       0.4       0.0       0.0
 4 C  py              2.7       0.5       0.2       0.6       0.1       0.0
 4 C  dz2             0.2       0.6       0.0       0.2       0.0       0.0
 4 C  dx2y2           4.5       5.2       1.1       0.8       0.0       0.0
 4 C  dxy             7.6       2.5       2.5       3.2       0.3       0.0
 5 C  s               0.2       0.6       0.2       0.1       0.0      17.9
 5 C  px              1.4       1.7       0.2       0.2       0.0       0.0
 5 C  py              1.5       0.7       1.1       0.5       0.0       0.0
 5 C  dz2             0.1       0.6       0.2       0.1       0.0       0.0
 5 C  dx2y2           3.5       3.4       2.3       0.8       0.0       0.0
 5 C  dxy             4.8       2.9       5.2       3.1       0.2       0.0
 6 O  s               0.0       0.0       9.5      17.9       4.4       0.1
 6 O  px              0.3       0.2      10.6       8.0       8.6       0.0
 6 O  py              0.9       1.7       0.1       2.8      13.5       0.0
 6 O  dz2             0.1       0.1       6.3      11.3       3.8       0.0
 6 O  dx2y2           0.6       0.4       5.3       2.8      24.7       0.0
 6 O  dxy             5.0       6.1       0.0       1.1       9.3       0.0
 7 H  s               0.0       0.0       2.6       0.9       0.0       0.0
 7 H  px              0.1       0.0       5.4       1.4       0.0       0.0
 7 H  py              0.0       0.3       0.0       0.0       0.0       0.0
 8 H  s               0.6       2.8       1.8       0.9       0.0       0.0
 8 H  px              0.1       2.0       1.3       0.2       0.0       0.0
 8 H  py              2.1       6.2       2.5       1.2       0.0       0.0
 9 H  s               0.5       2.4       0.4       1.2       0.1       0.0
 9 H  px              0.0       2.5       0.2       0.4       0.1       0.0
 9 H  py              1.8       4.7       0.7       1.5       0.1       0.0
10 H  s               1.0       2.6       0.6       1.2       0.1       0.0
10 H  px              0.2       2.4       0.3       0.5       0.0       0.0
10 H  py              3.1       5.2       1.0       1.5       0.1       0.0
11 H  s               0.5       2.5       2.0       0.9       0.0       0.0
11 H  px              0.0       1.7       1.4       0.3       0.0       0.0
11 H  py              1.7       5.6       2.7       1.2       0.0       0.0
12 H  s               0.0       0.0       0.0       1.5      13.1       0.0
12 H  px              1.1       0.9       0.1       0.4       1.9       0.0
12 H  py              0.1       0.4       0.1       1.8      12.5       0.0

                    162       163       164       165       166       167   
                  21.94572  21.94959  22.17301  22.18509  22.33344  43.62188
                   0.00000   0.00000   0.00000   0.00000   0.00000   0.00000
                  --------  --------  --------  --------  --------  --------
 0 C  s              22.6       8.4      22.6      10.9      17.4       0.0
 1 C  s               0.1      31.3       0.3      33.3      16.3       0.0
 2 C  s              28.0       7.1      26.2       7.2      14.3       0.0
 3 C  s              25.1      10.2      26.0       9.5      15.7       0.0
 4 C  s               0.0      34.3       0.0      31.7      17.6       0.0
 5 C  s              23.6       8.2      24.4       7.0      18.5       0.0
 6 O  s               0.1       0.0       0.0       0.0       0.0      99.9



                      *****************************
                      * MAYER POPULATION ANALYSIS *
                      *****************************

  NA   - Mulliken gross atomic population
  ZA   - Total nuclear charge
  QA   - Mulliken gross atomic charge
  VA   - Mayer's total valence
  BVA  - Mayer's bonded valence
  FA   - Mayer's free valence

  ATOM       NA         ZA         QA         VA         BVA        FA
  0 C      6.1916     6.0000    -0.1916     3.8740     3.8740    -0.0000
  1 C      6.1263     6.0000    -0.1263     3.8733     3.8733     0.0000
  2 C      6.3301     6.0000    -0.3301     3.8253     3.8253     0.0000
  3 C      5.5841     6.0000     0.4159     3.7036     3.7036    -0.0000
  4 C      6.2920     6.0000    -0.2920     3.9423     3.9423    -0.0000
  5 C      6.1117     6.0000    -0.1117     3.8050     3.8050     0.0000
  6 O      8.4115     8.0000    -0.4115     1.9932     1.9932     0.0000
  7 H      0.8524     1.0000     0.1476     0.9685     0.9685    -0.0000
  8 H      0.8523     1.0000     0.1477     0.9679     0.9679     0.0000
  9 H      0.8628     1.0000     0.1372     0.9726     0.9726     0.0000
 10 H      0.8420     1.0000     0.1580     0.9673     0.9673    -0.0000
 11 H      0.8513     1.0000     0.1487     0.9673     0.9673     0.0000
 12 H      0.6919     1.0000     0.3081     0.9059     0.9059     0.0000

  Mayer bond orders larger than 0.100000
B(  0-C ,  1-C ) :   1.4428 B(  0-C ,  5-C ) :   1.4162 B(  0-C ,  7-H ) :   0.9480 
B(  1-C ,  2-C ) :   1.4218 B(  1-C ,  8-H ) :   0.9405 B(  2-C ,  3-C ) :   1.3528 
B(  2-C ,  9-H ) :   0.9384 B(  3-C ,  4-C ) :   1.4313 B(  3-C ,  6-O ) :   0.9180 
B(  4-C ,  5-C ) :   1.4111 B(  4-C , 10-H ) :   0.9441 B(  5-C , 11-H ) :   0.9476 
B(  6-O , 12-H ) :   0.8865 

-------
TIMINGS
-------

Total SCF time: 0 days 0 hours 0 min 6 sec 

Total time                  ....       6.956 sec
Sum of individual times     ....       6.940 sec  ( 99.8%)

SCF preparation             ....       0.028 sec  (  0.4%)
Fock matrix formation       ....       6.766 sec  ( 97.3%)
  Startup                   ....       0.002 sec  (  0.0% of F)
  Split-RI-J                ....       1.287 sec  ( 19.0% of F)
  XC integration            ....       5.463 sec  ( 80.7% of F)
    Basis function eval.    ....       1.002 sec  ( 18.3% of XC)
    Density eval.           ....       1.705 sec  ( 31.2% of XC)
    XC-Functional eval.     ....       0.706 sec  ( 12.9% of XC)
    XC-Potential eval.      ....       1.947 sec  ( 35.6% of XC)
Diagonalization             ....       0.000 sec  (  0.0%)
Density matrix formation    ....       0.028 sec  (  0.4%)
Total Energy calculation    ....       0.001 sec  (  0.0%)
Population analysis         ....       0.054 sec  (  0.8%)
Orbital Transformation      ....       0.017 sec  (  0.2%)
Orbital Orthonormalization  ....       0.000 sec  (  0.0%)
DIIS solution               ....       0.042 sec  (  0.6%)
  MO trafo                  ....       0.000 sec  (  0.0 % of DIIS)
  Orb grad                  ....       0.000 sec  (  0.0 % of DIIS)
  Energy W gradient         ....       0.000 sec  (  0.0 % of DIIS)
  DIIS error                ....       0.004 sec  (  9.2 % of DIIS)
  DIIS work                 ....       0.029 sec  ( 68.2 % of DIIS)
  Form Q                    ....       0.000 sec  (  0.0 % of DIIS)
  Form QpQm                 ....       0.000 sec  (  0.0 % of DIIS)
  Exp/Cayley                ....       0.000 sec  (  0.0 % of DIIS)
  Orb update                ....       0.000 sec  (  0.0 % of DIIS)
  Wake-sleep                ....       0.000 sec  (  1.0 % of DIIS)
SOSCF solution              ....       0.004 sec  (  0.1%)
  MO trafo                  ....       0.003 sec  ( 76.7 % of SOSCF)
  Orb grad                  ....       0.000 sec  (  0.6 % of SOSCF)
  Rot update                ....       0.000 sec  (  0.3 % of SOSCF)
  Step                      ....       0.001 sec  ( 21.8 % of SOSCF)
Finished LeanSCF after   7.0 sec

Maximum memory used throughout the entire LEANSCF-calculation: 18.1 MB


-------------------------------------------------------------------------------
                          DFT DISPERSION CORRECTION                            
                                                                               
                                DFTD4 V3.4.0                                   
-------------------------------------------------------------------------------
The R2SCAN3C composite method is recognized
Using three-body term ABC
Active option DFTDOPT                   ...         5   

-------------------------   ----------------
Dispersion correction           -0.003781715
-------------------------   ----------------

------------------   -----------------
gCP correction             0.003718815
------------------   -----------------

-------------------------   --------------------
FINAL SINGLE POINT ENERGY      -307.399589555982
-------------------------   --------------------


------------------------------------------------------------------------------
                              ORCA PROPERTY CALCULATIONS
------------------------------------------------------------------------------

GBWName                                 ... sp.gbw
Number of atoms                         ...     13
Number of basis functions               ...    168
Max core memory                         ...   1024 MB

Electric properties:
Dipole moment                           ... YES
Quadrupole moment                       ...  NO
Static polarizability (Dipole/Dipole)   ...  NO
Static polarizability (Dipole/Quad.)    ...  NO
Static polarizability (Quad./Quad.)     ...  NO
Static polarizability (Velocity)        ...  NO

Atomic electric properties:
Dipole moment                           ...  NO
Quadrupole moment                       ...  NO
Static polarizability                   ...  NO

Choice of electric origin               ... Center of mass
Position of electric origin             ...    -0.000023    -0.000002     0.000000

General magnetic properties:
Magnetizability                         ...  NO

EPR properties:
g-Tensor (aka g-matrix)                 ...  NO
Zero-Field splitting spin-orbit         ...  NO
Zero-field splitting spin-spin          ...  NO
Hyperfine couplings                     ...  NO (   0 nuclei)
Quadrupole couplings                    ...  NO (   0 nuclei)
Contact density                         ...  NO (   0 nuclei)

NMR properties:
Chemical shifts                         ...  NO (   0 nuclei)
Spin-rotation constants                 ...  NO (   0 nuclei)
Spin-spin couplings                     ...  NO (   0 nuclei,    0 pairs)

Choice of magnetic origin               ... GIAO
Position of magnetic origin             ...     0.000000     0.000000     0.000000

Properties with geometric perturbations:
SCF Hessian                             ...  NO
IR spectrum                             ...  NO
VCD spectrum                            ...  NO
X-ray spectroscopy properties:
SCF XES/XAS/RIXS spectra                ...  NO


-------------
DIPOLE MOMENT
-------------

Method             : SCF
Type of density    : Electron Density
Multiplicity       :   1
Irrep              :   0
Energy             :  -307.3995266561686321 Eh
Relativity type    : 
Basis              : AO
                                X                 Y                 Z
Electronic contribution:      2.043336655       0.313167287      -0.000034226
Nuclear contribution   :     -2.007187703      -0.813637248       0.000054478
                        -----------------------------------------
Total Dipole Moment    :      0.036148952      -0.500469961       0.000020252
                        -----------------------------------------
Magnitude (a.u.)       :      0.501773782
Magnitude (Debye)      :      1.275407596



--------------------
Rotational spectrum 
--------------------
 
Rotational constants in cm-1:             0.191001             0.088254             0.060363 
Rotational constants in MHz :          5726.062124          2645.780612          1809.625984 

Dipole components along the rotational axes: 
x,y,z [a.u.] :    -0.036150    -0.500470     0.000020 
x,y,z [Debye]:    -0.091887    -1.272093     0.000051 

 

Dipole moment calculation done in   0.0 sec 

Maximum memory used throughout the entire PROP-calculation: 10.5 MB

--------------------------------
SUGGESTED CITATIONS FOR THIS RUN
--------------------------------

Below you find a list of papers that are relevant to this ORCA run
We neither can nor want to force you to cite these papers, but we appreciate if you do
You receive ORCA, which is the product of decades of hard work by many enthusiastic individuals, for free
The only thing we kindly ask in return is that you cite our papers,
We deeply appreciate it, if you show your appreciation for ORCA by not just citing the generic ORCA reference.

Please note that relegating all ORCA citations to the supporting information does *not* help us.
SI sections are not indexed - citations you put there will not count into any citation statistics
But we need these citations in order to attract the funding resources that allow us to do what we are doing

Therefore, if you are a happy ORCA user, please consider citing a few of the papers listed below in the main body of your paper

In addition to the list printed below, the program has created the file sp.bibtex that contains the list in bibtex format
You can import this file easily into all common literature databanks and citation aid programs


List of essential papers. We consider these as the minimum necessary citations

  1. Neese,F.
     Software update: the ORCA program system, version 5.0
     WIRES Comput. Molec. Sci., 2022 12(1)e1606
     doi.org/10.1002/wcms.1606
  2. Grimme,S.; Hansen,A.; Ehlert,S.; Mewes,J.
     r2SCAN-3c: A 'Swiss army knife' composite electronic-structure method
     J. Chem. Phys., 2021 154 064103
     doi.org/10.1063/5.0040021

List of papers to cite with high priority. The work reported in these papers was absolutely
necessary for this run to complete.
Our perspective: the developers of density functionals and basis sets usually get cited in chemistry papers
Good! But without the algorithms to do something with them, the functionals or basis sets would not do anything.
Hence, in our opinion, the algorithm design and method developments papers are equally worthy of getting cited

  1. Neese,F.
     An improvement of the resolution of the identity approximation for the formation of the Coulomb matrix
     J. Comp. Chem., 2003 24(14)1740-1747
     doi.org/10.1002/jcc.10318
  2. Neese,F.
     The SHARK Integral Generation and Digestion System
     J. Comp. Chem., 2022  1-16
     doi.org/10.1002/jcc.26942
  3. Lehtola,S.; Steigemann,C.; Oliveira,M.; Marques,M.
     Recent developments in Libxc - A comprehensive library of functionals for density functional theory
     Software X, 2018 7 
     doi.org/10.1016/j.softx.2017.11.002
  4. Caldeweyher,E.; Bannwarth,C.; Grimme,S.
     Extension of the D3 dispersion coefficient model
     J. Chem. Phys., 2017 147 034112
     doi.org/10.1063/1.4993215
  5. Caldeweyher,E.; Ehlert,S.; Hansen,A.; Neugebauer,H.; Spicher,S.; Bannwarth,C.; Grimme,S.
     A generally applicable atomic-charge dependent London dispersion correction
     J. Chem. Phys., 2019 150 154122
     doi.org/10.1063/1.5090222
  6. Caldeweyher,E.; Mewes,J.; Ehlert,S.; Grimme,S.
     Extension and evaluation of the D4 London-dispersion model for periodic systems
     Phys. Chem. Chem. Phys., 2020 22(16)8499-8512
     doi.org/10.1039/D0CP00502A
  7. Wittmann,L.; Gordiy,I.; Friede,M.; Helmich-Paris,B.; Grimme,S.; Hansen,A.; Bursch,M.
     Extension of the D3 and D4 London Dispersion Corrections to the full Actinides Series
     Phys. Chem. Chem. Phys., 2024 26(32)21379-21394
     doi.org/https://doi.org/10.1039/D4CP01514B 

List of suggested additional citations. These are papers that are important in the 'surrounding' of 
of this run, or papers that preceded the highly important papers. If you like your results we are grateful for a citation.

  1. Neese,F.
     The ORCA program system
     WIRES Comput. Molec. Sci., 2012 2(1)73-78
     doi.org/10.1002/wcms.81
  2. Neese,F.
     Software update: the ORCA program system, version 4.0
     WIRES Comput. Molec. Sci., 2018 8(1)1-6
     doi.org/10.1002/wcms.1327
  3. Neese,F.; Wennmohs,F.; Becker,U.; Riplinger,C.
     The ORCA quantum chemistry program package
     J. Chem. Phys., 2020 152 Art. No. L224108
     doi.org/10.1063/5.0004608

List of optional additional citations

  1. Neese,F.
     Approximate second-order SCF convergence for spin unrestricted wavefunctions
     Chem. Phys. Lett., 2000 325(1-3)93-98
     doi.org/10.1016/s0009-2614(00)00662-x

Timings for individual modules:

Sum of individual times          ...        7.437 sec (=   0.124 min)
Startup calculation              ...        0.383 sec (=   0.006 min)   5.2 %
SCF iterations                   ...        7.018 sec (=   0.117 min)  94.4 %
Property calculations            ...        0.036 sec (=   0.001 min)   0.5 %
                             ****ORCA TERMINATED NORMALLY****
TOTAL RUN TIME: 0 days 0 hours 0 minutes 7 seconds 501 msec
