
                                 *****************
                                 * O   R   C   A *
                                 *****************

                                            #,                                       
                                            ###                                      
                                            ####                                     
                                            #####                                    
                                            ######                                   
                                           ########,                                 
                                     ,,################,,,,,                         
                               ,,#################################,,                 
                          ,,##########################################,,             
                       ,#########################################, ''#####,          
                    ,#############################################,,   '####,        
                  ,##################################################,,,,####,       
                ,###########''''           ''''###############################       
              ,#####''   ,,,,##########,,,,          '''####'''          '####       
            ,##' ,,,,###########################,,,                        '##       
           ' ,,###''''                  '''############,,,                           
         ,,##''                                '''############,,,,        ,,,,,,###''
      ,#''                                            '''#######################'''  
     '                                                          ''''####''''         
             ,#######,   #######,   ,#######,      ##                                
            ,#'     '#,  ##    ##  ,#'     '#,    #''#        ,####,   ,####,        
            ##       ##  ##   ,#'  ##            #'  '#       #'       #'  '#        
            ##       ##  #######   ##           ,######,      #####,   #    #        
            '#,     ,#'  ##    ##  '#,     ,#' ,#      #,     #,   #   #,  ,#        
             '#######'   ##     ##  '#######'  #'      '#     '####' # '####'        



                #########################################################
                #                        -***-                          #
                #          Department of theory and spectroscopy        #
                #                                                       #
                #                      Frank Neese                      #
                #                                                       #
                #     Directorship, Architecture, Infrastructure        #
                #                    SHARK, DRIVERS                     #
                #        Core code/Algorithms in most modules           #
                #                                                       #
                #        Max Planck Institute fuer Kohlenforschung      #
                #                Kaiser Wilhelm Platz 1                 #
                #                 D-45470 Muelheim/Ruhr                 #
                #                      Germany                          #
                #                                                       #
                #                  All rights reserved                  #
                #                        -***-                          #
                #########################################################


                         Program Version 6.0.1  -  RELEASE   -


 With contributions from (in alphabetic order):
[Max-Planck-Institut fuer Kohlenforschung]                               
  Daniel Aravena         : Magnetic Suceptibility                        
  Michael Atanasov       : Ab Initio Ligand Field Theory (pilot matlab implementation)
  Alexander A. Auer      : GIAO ZORA, VPT2 properties, NMR spectrum      
  Ute Becker             : All parallelization in ORCA, NUMFREQ, NUMCALC 
  Giovanni Bistoni       : ED, misc. LED, open-shell LED, HFLD           
  Martin Brehm           : Molecular dynamics                            
  Dmytro Bykov           : pre 5.0 version of the SCF Hessian            
  Marcos Casanova-Páez   : Triplet and SCS-CIS(D). UHF-(DLPNO)-IP/EA/STEOM-CCSD. UHF-CVS-IP/STEOM-CCSD   
  Vijay G. Chilkuri      : MRCI spin determinant printing, contributions to CSF-ICE 
  Pauline Colinet        : FMM embedding                                 
  Dipayan Datta          : RHF DLPNO-CCSD density                        
  Achintya Kumar Dutta   : EOM-CC, STEOM-CC                              
  Nicolas Foglia         : Exact transition moments, OPA infrastructure, MCD improvements    
  Dmitry Ganyushin       : Spin-Orbit,Spin-Spin,Magnetic field MRCI      
  Miquel Garcia-Rates    : C-PCM and meta-GGA Hessian, CCSD/C-PCM, Gaussian charge scheme 
  Tiago L. C. Gouveia    : GS-ROHF, GS-ROCIS                             
  Yang Guo               : DLPNO-NEVPT2, F12-NEVPT2, CIM, IAO-localization        
  Andreas Hansen         : Spin unrestricted coupled pair/coupled cluster methods 
  Ingolf Harden          : AUTO-CI MPn and infrastructure                
  Benjamin Helmich-Paris : MC-RPA, TRAH-(SCF,CASSCF), AVAS, COSX integrals, SCF dyn. polar. 
  Lee Huntington         : MR-EOM, pCC                                   
  Robert Izsak           : Overlap fitted RIJCOSX, COSX-SCS-MP3, EOM     
  Riya Kayal             : Wick's Theorem for AUTO-CI, AUTO-CI UHF-CCSDT 
  Emily Kempfer          : AUTO-CI, RHF CISDT and CCSDT                  
  Christian Kollmar      : KDIIS, OOCD, Brueckner-CCSD(T), CCSD density, CASPT2, CASPT2-K, improved NEVPT2 
  Axel Koslowski         : Symmetry handling                             
  Simone Kossmann        : meta-GGA functionals, TD-DFT gradient, OOMP2, (MP2 Hessian; deprecated post 5.0) 
  Lucas Lang             : DCDCAS                                        
  Marvin Lechner         : AUTO-CI (C++ implementation), FIC-MRCC        
  Spencer Leger          : CASSCF response                               
  Dagmar Lenk            : GEPOL surface, SMD, ORCA-2-JSON               
  Dimitrios Liakos       : Extrapolation schemes; Compound Job, initial MDCI parallelization 
  Dimitrios Manganas     : Further ROCIS development; embedding schemes. LFT, Crystal Embedding 
  Dimitrios Pantazis     : SARC Basis sets                               
  Anastasios Papadopoulos: AUTO-CI, single reference methods and gradients 
  Taras Petrenko         : pre 6.0 DFT Hessian and TD-DFT gradient, (ASA, deprecated), ECA, 1-Electron XAS/XES, NRVS 
  Peter Pinski           : DLPNO-MP2, DLPNO-MP2 Gradient                 
  Christoph Reimann      : Effective Core Potentials                     
  Marius Retegan         : Local ZFS, SOC                                
  Christoph Riplinger    : Optimizer, TS searches, QM/MM, DLPNO-CCSD(T), (RO)-DLPNO pert. Triples 
  Michael Roemelt        : Original ROCIS implementation                 
  Masaaki Saitow         : Open-shell DLPNO-CCSD energy and density      
  Barbara Sandhoefer     : DKH picture change effects                    
  Kantharuban Sivalingam : CASSCF convergence/infrastructure, NEVPT2 and variants, FIC-MRCI 
  Bernardo de Souza      : ESD, SOC TD-DFT                               
  Georgi L. Stoychev     : AutoAux, RI-MP2 NMR, DLPNO-MP2 response, X2C  
  Van Anh Tran           : RI-MP2 g-tensors                              
  Willem Van den Heuvel  : Paramagnetic NMR                              
  Zikuan Wang            : NOTCH, Electric field optimization            
  Frank Wennmohs         : Technical directorship and infrastructure     
  Hang Xu                : AUTO-CI-Response properties                   
                                                                         
[FACCTs GmbH]                                                            
  Markus Bursch, Miquel Garcia-Rates, Christoph Riplinger, Bernardo de Souza, Georgi L. Stoychev 
                                                                 
  APM, Basis sets (HGBS, AHGBS, def-TZVP (Ac-Lr), def2-XVPD (La-Lu)), CI-OPT, improved COSX, DLPNO-Multilevel,           
  DOCKER, DRACO, updates on ESD, GOAT, IRC, LR-CPCM, MBIS, meta-GGA TD-DFT gradient, ML-optimized integration grids, 
  MM, NACMEs, nearIR, NEB, NEB-TS, NL-DFT gradient (VV10), 2- and 3-layer-ONIOM, interface openCOSMO-RS, QMMM,   
  Crystal-QMMM, SF, symmetry and pop. for TD-DFT, r2SCAN hybrids, SOLVATOR                                   
                                                                         
[Other institutions]                                                     
  V. Asgeirsson          : NEB                                           
  Christoph Bannwarth    : sTDA-DFT, sTD-DFT, PBEh-3c, B97-3c, D3        
  Sebastian Ehlert       : rSCAN, r2SCAN, r2SCAN-3c, D4, dhf basis sets  
  Marvin Friede          : D4 for Fr, Ra, Ac-Lr                          
  Lars Goerigk           : TD-DFT with DH, B97 family of functionals     
  Stefan Grimme          : VdW corrections, initial TS optimization, DFT functionals, gCP, sTDA/sTD-DF 
  Waldemar Hujo          : DFT-NL                                        
  H. Jonsson             : NEB                                           
  Holger Kruse           : gCP                                           
  Marcel Mueller         : wB97X-3c, vDZP basis set                      
  Hagen Neugebauer       : wr2SCAN                                       
  Tobias Risthaus        : range-separated hybrid DFT                    
  Lukas Wittmann         : regularized MP2, r2SCAN double-hybrids, wr2SCAN        
                                                                         
We gratefully acknowledge several colleagues who have allowed us to      
interface, adapt or use parts of their codes:                            
  Ed Valeev, F. Pavosevic, A. Kumar             : LibInt (2-el integral package), F12 methods 
  Garnet Chan, S. Sharma, J. Yang, R. Olivares  : DMRG                   
  Ulf Ekstrom                                   : XCFun DFT Library      
  Mihaly Kallay                                 : mrcc  (arbitrary order and MRCC methods)
  Frank Weinhold                                : gennbo (NPA and NBO analysis)           
  Simon Mueller                                 : openCOSMO-RS                            
  Christopher J. Cramer and Donald G. Truhlar   : smd solvation model                     
  S Lehtola, MJT Oliveira, MAL Marques          : LibXC Library                           
  Liviu Ungur et al                             : ANISO software                          


 Your calculation uses the libint2 library for the computation of 2-el integrals
 For citations please refer to: http://libint.valeyev.net

 Your ORCA version has been built with support for libXC version: 6.2.2
 For citations please refer to: https://libxc.gitlab.io

 This ORCA versions uses:
   CBLAS   interface :  Fast vector & matrix operations
   LAPACKE interface :  Fast linear algebra routines
   SCALAPACK package :  Parallel linear algebra routines
   Shared memory     :  Shared parallel matrices
   BLAS/LAPACK       :  OpenBLAS 0.3.27  USE64BITINT DYNAMIC_ARCH NO_AFFINITY Zen SINGLE_THREADED
        Core in use  :  Zen
   Copyright (c) 2011-2014, The OpenBLAS Project


Your calculation utilizes the geometrical counterpoise correction gCP
Please cite in your paper:
H.Kruse, S. Grimme J.Chem.Phys., 136, (2012), 154101 
   

Your calculation utilizes the atom-pairwise dispersion correction
based on EEQ partial charges (D4)


================================================================================

----- Orbital basis set information -----
Your calculation utilizes the basis: def2-mTZVPP
   Stefan Grimme, Andreas Hansen, Sebastian Ehlert, and Jan-Michael Mewes 
   J. Chem. Phys. 154, 064103 (2021). DOI: 10.1063/5.0040021

----- AuxJ basis set information -----
Your calculation utilizes the auxiliary basis: def2/J
   F. Weigend, Phys. Chem. Chem. Phys. 8, 1057 (2006).

================================================================================
                                        WARNINGS
                       Please study these warnings very carefully!
================================================================================

WARNING: Old DensityContainer found on disk!
         Will remove this file - 
         If you want to keep old densities, please start your calculation with a different basename. 



WARNING: SCAN, rSCAN, or r2SCAN functional requested.
  ===> : libXC variant has now been activated.



================================================================================
                                       INPUT FILE
================================================================================
NAME = sp.inp
|  1> ! r2scan-3c def2/J RI DEFGRID2 scfconv6 printgap
|  2> %output
|  3>     printlevel normal
|  4> end
|  5> * xyz 0 1
|  6> C -1.7760316808 0.6701435786 -7.3763e-05
|  7> C -0.4716576464 -0.1009750344 0.0004343695
|  8> O -0.4176886488 -1.3117658692 -0.0001507567
|  9> N 0.6422854456 0.6675245064 -0.0001332812
| 10> C 1.9602076627 0.070937103 5.26885e-05
| 11> H -1.622890531 1.7452850736 0.0155209906
| 12> H -2.3438431252 0.3964720267 -0.8864583131
| 13> H -2.3589121352 0.3726899616 0.8685912502
| 14> H 0.5707228016 1.6703285454 0.0016838061
| 15> H 2.7138382707 0.8530134428 -0.0081611874
| 16> H 2.0825202041 -0.5659024843 -0.8782564612
| 17> H 2.0890442133 -0.5534994092 0.886400046
| 18> *
| 19> 
| 20>                          ****END OF INPUT****
================================================================================

                       ****************************
                       * Single Point Calculation *
                       ****************************

---------------------------------
CARTESIAN COORDINATES (ANGSTROEM)
---------------------------------
  C     -1.776032    0.670144   -0.000074
  C     -0.471658   -0.100975    0.000434
  O     -0.417689   -1.311766   -0.000151
  N      0.642285    0.667525   -0.000133
  C      1.960208    0.070937    0.000053
  H     -1.622891    1.745285    0.015521
  H     -2.343843    0.396472   -0.886458
  H     -2.358912    0.372690    0.868591
  H      0.570723    1.670329    0.001684
  H      2.713838    0.853013   -0.008161
  H      2.082520   -0.565902   -0.878256
  H      2.089044   -0.553499    0.886400

----------------------------
CARTESIAN COORDINATES (A.U.)
----------------------------
  NO LB      ZA    FRAG     MASS         X           Y           Z
   0 C     6.0000    0    12.011   -3.356213    1.266388   -0.000139
   1 C     6.0000    0    12.011   -0.891304   -0.190815    0.000821
   2 O     8.0000    0    15.999   -0.789317   -2.478878   -0.000285
   3 N     7.0000    0    14.007    1.213744    1.261439   -0.000252
   4 C     6.0000    0    12.011    3.704256    0.134052    0.000100
   5 H     1.0000    0     1.008   -3.066819    3.298111    0.029330
   6 H     1.0000    0     1.008   -4.429222    0.749224   -1.675163
   7 H     1.0000    0     1.008   -4.457698    0.704282    1.641400
   8 H     1.0000    0     1.008    1.078510    3.156464    0.003182
   9 H     1.0000    0     1.008    5.128411    1.611962   -0.015422
  10 H     1.0000    0     1.008    3.935393   -1.069401   -1.659664
  11 H     1.0000    0     1.008    3.947721   -1.045962    1.675053

--------------------------------
INTERNAL COORDINATES (ANGSTROEM)
--------------------------------
 C      0   0   0     0.000000000000     0.00000000     0.00000000
 C      1   0   0     1.515260966016     0.00000000     0.00000000
 O      2   1   0     1.211993168591   123.14284799     0.00000000
 N      2   1   3     1.353314848308   114.80784466   179.91906112
 C      4   2   1     1.446663587295   121.04357632   180.00921383
 H      1   2   3     1.086105263026   112.48137203   179.14725445
 H      1   2   3     1.087650461025   108.76099830   300.66504039
 H      1   2   3     1.087569392520   108.77805661    57.58271602
 H      4   2   1     1.005355884479   120.51949110     0.16665463
 H      5   4   2     1.086126126353   109.58323129   179.56995351
 H      5   4   2     1.091765533520   110.02984317    58.93885565
 H      5   4   2     1.091847724129   110.08722931   300.22753728

---------------------------
INTERNAL COORDINATES (A.U.)
---------------------------
 C      0   0   0     0.000000000000     0.00000000     0.00000000
 C      1   0   0     2.863428247190     0.00000000     0.00000000
 O      2   1   0     2.290335164820   123.14284799     0.00000000
 N      2   1   3     2.557394436272   114.80784466   179.91906112
 C      4   2   1     2.733797987904   121.04357632   180.00921383
 H      1   2   3     2.052441499730   112.48137203   179.14725445
 H      1   2   3     2.055361500770   108.76099830   300.66504039
 H      1   2   3     2.055208303497   108.77805661    57.58271602
 H      4   2   1     1.899847288792   120.51949110     0.16665463
 H      5   4   2     2.052480925704   109.58323129   179.56995351
 H      5   4   2     2.063137860808   110.02984317    58.93885565
 H      5   4   2     2.063293178549   110.08722931   300.22753728

---------------------
BASIS SET INFORMATION
---------------------
There are 4 groups of distinct atoms

 Group   1 Type C   : 11s6p1d contracted to 5s3p1d pattern {62111/411/1}
 Group   2 Type O   : 11s6p2d contracted to 5s3p2d pattern {62111/411/11}
 Group   3 Type N   : 11s6p2d contracted to 5s3p2d pattern {62111/411/11}
 Group   4 Type H   : 4s1p contracted to 2s1p pattern {31/1}

Atom   0C    basis set group =>   1
Atom   1C    basis set group =>   1
Atom   2O    basis set group =>   2
Atom   3N    basis set group =>   3
Atom   4C    basis set group =>   1
Atom   5H    basis set group =>   4
Atom   6H    basis set group =>   4
Atom   7H    basis set group =>   4
Atom   8H    basis set group =>   4
Atom   9H    basis set group =>   4
Atom  10H    basis set group =>   4
Atom  11H    basis set group =>   4
---------------------------------
AUXILIARY/J BASIS SET INFORMATION
---------------------------------
There are 4 groups of distinct atoms

 Group   1 Type C   : 12s5p4d2f1g contracted to 6s4p3d1f1g pattern {711111/2111/211/2/1}
 Group   2 Type O   : 12s5p4d2f1g contracted to 6s4p3d1f1g pattern {711111/2111/211/2/1}
 Group   3 Type N   : 12s5p4d2f1g contracted to 6s4p3d1f1g pattern {711111/2111/211/2/1}
 Group   4 Type H   : 5s2p1d contracted to 3s1p1d pattern {311/2/1}

Atom   0C    basis set group =>   1
Atom   1C    basis set group =>   1
Atom   2O    basis set group =>   2
Atom   3N    basis set group =>   3
Atom   4C    basis set group =>   1
Atom   5H    basis set group =>   4
Atom   6H    basis set group =>   4
Atom   7H    basis set group =>   4
Atom   8H    basis set group =>   4
Atom   9H    basis set group =>   4
Atom  10H    basis set group =>   4
Atom  11H    basis set group =>   4

Checking for AutoStart:
The File: sp.gbw exists
Trying to determine its content:
     ... Fine, the file contains calculation information
     ... Fine, the calculation information was read
     ... Fine, the file contains a basis set
     ... Fine, the basis set was read
     ... Fine, the file contains a geometry
     ... Fine, the geometry was read
     ... Fine, the file contains a set of orbitals
     ... Fine, the orbitals can be read
     => possible old guess file was deleted
     => GBW file was renamed to GES file
     => GES file is set as startup file
     => Guess is set to MORead
     ... now leaving AutoStart

------------------------------------------------------------------------------
                             ORCA STARTUP CALCULATIONS
                           -- RI-GTO INTEGRALS CHOSEN --
------------------------------------------------------------------------------
------------------------------------------------------------------------------
                   ___                                                        
                  /   \      - P O W E R E D   B Y -                         
                 /     \                                                     
                 |  |  |   _    _      __       _____    __    __             
                 |  |  |  | |  | |    /  \     |  _  \  |  |  /  |          
                  \  \/   | |  | |   /    \    | | | |  |  | /  /          
                 / \  \   | |__| |  /  /\  \   | |_| |  |  |/  /          
                |  |  |   |  __  | /  /__\  \  |    /   |      \           
                |  |  |   | |  | | |   __   |  |    \   |  |\   \          
                \     /   | |  | | |  |  |  |  | |\  \  |  | \   \       
                 \___/    |_|  |_| |__|  |__|  |_| \__\ |__|  \__/        
                                                                              
                      - O R C A' S   B I G   F R I E N D -                    
                                      &                                       
                       - I N T E G R A L  F E E D E R -                       
                                                                              
 v1 FN, 2020, v2 2021, v3 2022-2024                                           
------------------------------------------------------------------------------


----------------------
SHARK INTEGRAL PACKAGE
----------------------

Number of atoms                             ...     12
Number of basis functions                   ...    140
Number of shells                            ...     68
Maximum angular momentum                    ...      2
Integral batch strategy                     ... SHARK/LIBINT Hybrid
RI-J (if used) integral strategy            ... SPLIT-RIJ (Revised 2003 algorithm where possible)
Printlevel                                  ...      1
Contraction scheme used                     ... SEGMENTED contraction
Prescreening option                         ... SCHWARTZ
   Thresh                                   ... 1.000e-10
   Tcut                                     ... 1.000e-11
   Tpresel                                  ... 1.000e-11 
Coulomb Range Separation                    ... NOT USED
Exchange Range Separation                   ... NOT USED
Multipole approximations                    ... NOT USED
Finite Nucleus Model                        ... NOT USED
CABS basis                                  ... NOT available
Auxiliary Coulomb fitting basis             ... AVAILABLE
   # of basis functions in Aux-J            ...    322
   # of shells in Aux-J                     ...    110
   Maximum angular momentum in Aux-J        ...      4
Auxiliary J/K fitting basis                 ... NOT available
Auxiliary Correlation fitting basis         ... NOT available
Auxiliary 'external' fitting basis          ... NOT available

Checking pre-screening integrals            ... done (  0.0 sec) Dimension = 68
Check shell pair data                       ... done (  0.0 sec)
Shell pair information
Shell pair cut-off parameter TPreSel        ...   1.0e-11
Total number of shell pairs                 ...      2346
Shell pairs after pre-screening             ...      2225
Total number of primitive shell pairs       ...      8259
Primitive shell pairs kept                  ...      5990
          la=0 lb=0:    729 shell pairs
          la=1 lb=0:    809 shell pairs
          la=1 lb=1:    240 shell pairs
          la=2 lb=0:    268 shell pairs
          la=2 lb=1:    151 shell pairs
          la=2 lb=2:     28 shell pairs

Calculating one electron integrals          ... done (  0.0 sec)
Calculating RI/J V-Matrix + Cholesky decomp.... done (  0.0 sec)
Calculating Nuclear repulsion               ... done (  0.0 sec) ENN=    181.090881154923 Eh

Diagonalization of the overlap matrix:
Smallest eigenvalue                        ... 4.301e-04
Time for diagonalization                   ...    0.001 sec
Threshold for overlap eigenvalues          ... 1.000e-07
Number of eigenvalues below threshold      ... 0
Time for construction of square roots      ...    0.000 sec
Total time needed                          ...    0.003 sec

-------------------
DFT GRID GENERATION
-------------------

General Integration Accuracy     IntAcc      ... 4.388
Radial Grid Type                 RadialGrid  ... OptM3 with GC (2021)
Angular Grid (max. ang.)         AngularGrid ... 4 (Lebedev-302)
Angular grid pruning method      GridPruning ... 4 (adaptive)
Weight generation scheme         WeightScheme... mBecke (2022)
Basis function cutoff            BFCut       ... 1.0000e-10
Integration weight cutoff        WCut        ... 1.0000e-14
Partially contracted basis set               ... off
Rotationally invariant grid construction     ... off
Angular grids for H and He will be reduced by one unit
Diffuse basis detected: some atoms will have their outermost
                        angular grid increased by 1.

Total number of grid points                  ...    53244
Total number of batches                      ...      838
Average number of points per batch           ...       63
Average number of grid points per atom       ...     4437
Initializing property integral containers    ... done (  0.0 sec)

SHARK setup successfully completed in   0.3 seconds

Maximum memory used throughout the entire STARTUP-calculation: 24.2 MB
-------------------------------------------------------------------------------
                                 ORCA GUESS
                   Start orbitals & Density for SCF / CASSCF
-------------------------------------------------------------------------------

------------
SCF SETTINGS
------------
Hamiltonian:
 Density Functional     Method          .... DFT(GTOs)
  Functional kind                       .... Exchange
  Functional name                       .... Re-regularized SCAN exchange by Furness et al
  Functional family                     .... MGGA
  Functional refs                              
    [ 0] J. W. Furness, A. D. Kaplan, J. Ning, J. P. Perdew, and J. Sun.,  J. Phys. Chem. Lett. 11, 8208-8215 (2020), doi: 10.1021/acs.jpclett.0c02405
    [ 1] J. W. Furness, A. D. Kaplan, J. Ning, J. P. Perdew, and J. Sun.,  J. Phys. Chem. Lett. 11, 9248-9248 (2020), doi: 10.1021/acs.jpclett.0c03077
  Functional external parameters        .... 6
    Parameter  0 _c1        =  6.670000e-01 : c1 parameter        
    Parameter  1 _c2        =  8.000000e-01 : c2 parameter        
    Parameter  2 _d         =  1.240000e+00 : d parameter         
    Parameter  3 _k1        =  6.500000e-02 : k1 parameter        
    Parameter  4 _eta       =  1.000000e-03 : eta parameter       
    Parameter  5 _dp2       =  3.610000e-01 : dp2 parameter       
  Functional kind                       .... Correlation
  Functional name                       .... Re-regularized SCAN correlation by Furness et al
  Functional family                     .... MGGA
  Functional refs                              
    [ 0] J. W. Furness, A. D. Kaplan, J. Ning, J. P. Perdew, and J. Sun.,  J. Phys. Chem. Lett. 11, 8208-8215 (2020), doi: 10.1021/acs.jpclett.0c02405
    [ 1] J. W. Furness, A. D. Kaplan, J. Ning, J. P. Perdew, and J. Sun.,  J. Phys. Chem. Lett. 11, 9248-9248 (2020), doi: 10.1021/acs.jpclett.0c03077
  Functional external parameters        .... 1
    Parameter  0 _eta       =  1.000000e-03 : Regularization parameter
 Gradients option       PostSCFGGA      .... off
 RI-approximation to the Coulomb term is turned on
   Number of AuxJ basis functions       .... 322


General Settings:
 Integral files         IntName         .... sp
 Hartree-Fock type      HFTyp           .... RHF
 Total Charge           Charge          ....    0
 Multiplicity           Mult            ....    1
 Number of Electrons    NEL             ....   40
 Basis Dimension        Dim             ....  140
 Nuclear Repulsion      ENuc            ....    181.0908811549 Eh

Convergence Acceleration:
 AO-DIIS                CNVDIIS         .... on
   Start iteration      DIISMaxIt       ....    12
   Startup error        DIISStart       ....  0.200000
   # of expansion vecs  DIISMaxEq       ....     5
   Bias factor          DIISBfac        ....   1.050
   Max. coefficient     DIISMaxC        ....  10.000
 MO-DIIS                CNVKDIIS        .... off
 Trust-Rad. Augm. Hess. CNVTRAH         .... auto
   Auto Start mean grad. ratio tolernc. ....  1.125000
   Auto Start start iteration           ....     1
   Auto Start num. interpolation iter.  ....    10
   Max. Number of Micro iterations      ....    24
   Max. Number of Macro iterations      .... Maxiter - #DIIS iter
   Number of Davidson start vectors     ....     2
   Converg. threshold    (grad. norm)   ....   3.330e-04
   Grad. Scal. Fac. for Micro threshold ....   0.100
   Minimum threshold for Micro iter.    ....   1.000e-02
   NR start threshold (gradient norm)   ....   1.000e-04
   Initial trust radius                 ....   0.400
   Minimum AH scaling param. (alpha)    ....   1.000
   Maximum AH scaling param. (alpha)    .... 1000.000
   Quad. conv. algorithm                .... NR
   White noise on init. David. guess    .... on
   Maximum white noise                  ....   0.010
   Pseudo random numbers                .... off
   Inactive MOs                         .... canonical
   Orbital update algorithm             .... Taylor
   Preconditioner                       .... Diag
   Full preconditioner red. dimension   ....   250
   COSX micro iterations for RIJONX calc.... off
 SOSCF                  CNVSOSCF        .... on
   Start iteration      SOSCFMaxIt      ....   150
   Startup grad/error   SOSCFStart      ....  0.003300
   Hessian update       SOSCFHessUp     .... L-BFGS
 Level Shifting         CNVShift        .... on
   Level shift para.    LevelShift      ....    0.2500
   Turn off err/grad.   ShiftErr        ....    0.0010
 Zerner damping         CNVZerner       .... off
 Static damping         CNVDamp         .... on
   Fraction old density DampFac         ....    0.7000
   Max. Damping (<1)    DampMax         ....    0.9800
   Min. Damping (>=0)   DampMin         ....    0.0000
   Turn off err/grad.   DampErr         ....    0.1000

SCF Procedure:
 Maximum # iterations   MaxIter         ....   125
 SCF integral mode      SCFMode         .... Direct
   Integral package                     .... SHARK and LIBINT hybrid scheme
 Reset frequency        DirectResetFreq ....    20
 Integral Threshold     Thresh          ....  1.000e-10 Eh
 Primitive CutOff       TCut            ....  1.000e-11 Eh

Convergence Tolerance:
 Convergence Check Mode ConvCheckMode   .... Total+1el-Energy
 Convergence forced     ConvForced      .... 0
 Energy Change          TolE            ....  1.000e-06 Eh
 1-El. energy change                    ....  1.000e-03 Eh
 Orbital Gradient       TolG            ....  3.330e-04
 Orbital Rotation angle TolX            ....  3.330e-04
 DIIS Error             TolErr          ....  1.000e-06

---------------------
INITIAL GUESS: MOREAD
---------------------
Guess MOs are being read from file: sp.ges
Input Geometry matches current geometry (good)
Atom 0: N(Shells)= 9 and 6 - projection required
Input basis set needs projection
NBasis(read)= 84
NBasis(calc)= 140
Basis set overlap was calculated
Using GuessMode=FMatrix for the initial guess
C*T matrix was formed
Effective Fockian was calculated
Effective Fockian was diagonalized
Initial density was built
                      ------------------
                      INITIAL GUESS DONE (   0.0 sec)
                      ------------------
             **** ENERGY FILE WAS UPDATED (sp.en.tmp) ****
Finished Guess after   0.0 sec
Maximum memory used throughout the entire GUESS-calculation: 10.0 MB

-------------------------------------------------------------------------------------------
                                      ORCA LEAN-SCF
                              memory conserving SCF solver
-------------------------------------------------------------------------------------------

----------------------------------------D-I-I-S--------------------------------------------
Iteration    Energy (Eh)           Delta-E    RMSDP     MaxDP     DIISErr   Damp  Time(sec)
-------------------------------------------------------------------------------------------
               ***  Starting incremental Fock matrix formation  ***
    1    -248.3401739601910947     0.00e+00  3.91e-03  1.17e-01  6.23e-01  0.700   0.5
    2    -248.3789555089602743    -3.88e-02  3.22e-03  8.61e-02  4.38e-01  0.700   0.5
    3    -248.4064610568003957    -2.75e-02  2.37e-03  6.08e-02  3.07e-01  0.700   0.5
    4    -248.4257937054456136    -1.93e-02  1.70e-03  4.28e-02  2.15e-01  0.700   0.5
                               ***Turning on AO-DIIS***
    5    -248.4393633954411200    -1.36e-02  1.24e-03  3.06e-02  1.50e-01  0.700   0.5
    6    -248.4488796112072180    -9.52e-03  8.78e-04  2.16e-02  1.05e-01  0.700   0.5
    7    -248.4555529991342553    -6.67e-03  6.19e-04  1.53e-02  7.37e-02  0.700   0.5
    8    -248.4602298226587607    -4.68e-03  1.45e-03  3.57e-02  5.16e-02  0.000   0.5
                              *** Initializing SOSCF ***
---------------------------------------S-O-S-C-F--------------------------------------
Iteration    Energy (Eh)           Delta-E    RMSDP     MaxDP     MaxGrad    Time(sec)
--------------------------------------------------------------------------------------
    9    -248.4711602992022392    -1.09e-02  1.05e-05  1.76e-04  1.42e-04     0.5
               *** Restarting incremental Fock matrix formation ***
   10    -248.4711603393526218    -4.02e-08  1.28e-05  2.26e-04  1.02e-04     0.6
   11    -248.4711599301333820     4.09e-07  9.44e-06  1.95e-04  2.83e-04     0.4
                 **** Energy Check signals convergence ****

               *****************************************************
               *                     SUCCESS                       *
               *           SCF CONVERGED AFTER  11 CYCLES          *
               *****************************************************

             **** ENERGY FILE WAS UPDATED (sp.en.tmp) ****

----------------
TOTAL SCF ENERGY
----------------

Total Energy       :       -248.47115993013338 Eh           -6761.24400 eV

Components:
Nuclear Repulsion  :        181.09088115492287 Eh            4927.73340 eV
Electronic Energy  :       -429.56204108505625 Eh          -11688.97739 eV
One Electron Energy:       -695.30191176363064 Eh          -18920.12690 eV
Two Electron Energy:        265.73987067857439 Eh            7231.14951 eV

Virial components:
Potential Energy   :       -495.96229849296401 Eh          -13495.82026 eV
Kinetic Energy     :        247.49113856283066 Eh            6734.57626 eV
Virial Ratio       :          2.00395982406883

DFT components:
N(Alpha)           :       20.000001719819 electrons
N(Beta)            :       20.000001719819 electrons
N(Total)           :       40.000003439639 electrons
E(X)               :      -33.050311735457 Eh       
E(C)               :       -1.278303804142 Eh       
E(XC)              :      -34.328615539599 Eh       

---------------
SCF CONVERGENCE
---------------

  Last Energy change         ...   -4.0922e-07  Tolerance :   1.0000e-06
  Last MAX-Density change    ...    1.9467e-04  Tolerance :   1.0000e-05
  Last RMS-Density change    ...    9.4418e-06  Tolerance :   1.0000e-06
  Last DIIS Error            ...    1.4233e-04  Tolerance :   1.0000e-06
  Last Orbital Gradient      ...    2.8324e-04  Tolerance :   3.3300e-04
  Last Orbital Rotation      ...    3.5312e-04  Tolerance :   3.3300e-04


----------------
ORBITAL ENERGIES
----------------

  NO   OCC          E(Eh)            E(eV) 
   0   2.0000     -18.905640      -514.4486 
   1   2.0000     -14.186243      -386.0273 
   2   2.0000     -10.122879      -275.4576 
   3   2.0000     -10.063421      -273.8396 
   4   2.0000     -10.033412      -273.0230 
   5   2.0000      -0.998978       -27.1836 
   6   2.0000      -0.888261       -24.1708 
   7   2.0000      -0.719374       -19.5752 
   8   2.0000      -0.655146       -17.8274 
   9   2.0000      -0.554956       -15.1011 
  10   2.0000      -0.474322       -12.9069 
  11   2.0000      -0.433283       -11.7902 
  12   2.0000      -0.429795       -11.6953 
  13   2.0000      -0.391822       -10.6620 
  14   2.0000      -0.376934       -10.2569 
  15   2.0000      -0.364345        -9.9143 
  16   2.0000      -0.358416        -9.7530 
  17   2.0000      -0.321467        -8.7476 
  18   2.0000      -0.229255        -6.2384 
  19   2.0000      -0.215629        -5.8676 
  20   0.0000       0.007030         0.1913 
  21   0.0000       0.060865         1.6562 
  22   0.0000       0.107761         2.9323 
  23   0.0000       0.113641         3.0923 
  24   0.0000       0.130074         3.5395 
  25   0.0000       0.155887         4.2419 
  26   0.0000       0.172139         4.6841 
  27   0.0000       0.180570         4.9136 
  28   0.0000       0.187916         5.1134 
  29   0.0000       0.190530         5.1846 
  30   0.0000       0.201264         5.4767 
*Only the first 10 virtual orbitals were printed.

                    ********************************
                    * MULLIKEN POPULATION ANALYSIS *
                    ********************************

-----------------------
MULLIKEN ATOMIC CHARGES
-----------------------
   0 C :   -0.524166
   1 C :    0.335800
   2 O :   -0.438401
   3 N :   -0.165258
   4 C :   -0.383062
   5 H :    0.130802
   6 H :    0.173659
   7 H :    0.173521
   8 H :    0.233997
   9 H :    0.139322
  10 H :    0.162234
  11 H :    0.161553
Sum of atomic charges:   -0.0000000

--------------------------------
MULLIKEN REDUCED ORBITAL CHARGES
--------------------------------
  0 C s       :     3.328882  s :     3.328882
      pz      :     1.122155  p :     3.170641
      px      :     1.026535
      py      :     1.021951
      dz2     :     0.005088  d :     0.024644
      dxz     :     0.006042
      dyz     :     0.001860
      dx2y2   :     0.006130
      dxy     :     0.005524

  1 C s       :     3.101657  s :     3.101657
      pz      :     0.790401  p :     2.447008
      px      :     0.891173
      py      :     0.765433
      dz2     :     0.005329  d :     0.115536
      dxz     :     0.009818
      dyz     :     0.025069
      dx2y2   :     0.023639
      dxy     :     0.051680

  2 O s       :     3.841294  s :     3.841294
      pz      :     1.471245  p :     4.575463
      px      :     1.804446
      py      :     1.299772
      dz2     :     0.003362  d :     0.021644
      dxz     :     0.001377
      dyz     :     0.008834
      dx2y2   :     0.010112
      dxy     :    -0.002042

  3 N s       :     3.356390  s :     3.356390
      pz      :     1.668859  p :     3.722957
      px      :     0.972414
      py      :     1.081684
      dz2     :     0.008568  d :     0.085911
      dxz     :     0.007704
      dyz     :     0.008171
      dx2y2   :     0.022378
      dxy     :     0.039090

  4 C s       :     3.317648  s :     3.317648
      pz      :     1.124347  p :     3.027620
      px      :     0.854523
      py      :     1.048749
      dz2     :     0.006256  d :     0.037794
      dxz     :     0.006718
      dyz     :     0.008472
      dx2y2   :     0.006252
      dxy     :     0.010097

  5 H s       :     0.850808  s :     0.850808
      pz      :     0.003761  p :     0.018390
      px      :     0.003582
      py      :     0.011048

  6 H s       :     0.807898  s :     0.807898
      pz      :     0.008630  p :     0.018443
      px      :     0.005812
      py      :     0.004001

  7 H s       :     0.808049  s :     0.808049
      pz      :     0.008443  p :     0.018430
      px      :     0.005912
      py      :     0.004075

  8 H s       :     0.733403  s :     0.733403
      pz      :     0.010088  p :     0.032600
      px      :     0.003823
      py      :     0.018690

  9 H s       :     0.842481  s :     0.842481
      pz      :     0.003919  p :     0.018196
      px      :     0.007295
      py      :     0.006983

 10 H s       :     0.819797  s :     0.819797
      pz      :     0.008639  p :     0.017969
      px      :     0.002906
      py      :     0.006424

 11 H s       :     0.820488  s :     0.820488
      pz      :     0.008730  p :     0.017960
      px      :     0.002918
      py      :     0.006311


------------------------
MULLIKEN OVERLAP CHARGES
------------------------
B(  0-C ,  1-C ) :   0.5129 B(  0-C ,  2-O ) :  -0.1207 B(  0-C ,  3-N ) :  -0.0899 
B(  0-C ,  5-H ) :   0.8538 B(  0-C ,  6-H ) :   0.7922 B(  0-C ,  7-H ) :   0.7946 
B(  1-C ,  2-O ) :   1.0479 B(  1-C ,  3-N ) :   0.5120 B(  1-C ,  4-C ) :  -0.1090 
B(  1-C ,  5-H ) :  -0.1402 B(  1-C ,  8-H ) :  -0.0698 B(  2-O ,  3-N ) :  -0.2627 
B(  2-O ,  4-C ) :   0.0892 B(  3-N ,  4-C ) :   0.3904 B(  3-N ,  8-H ) :   0.7205 
B(  3-N ,  9-H ) :  -0.0785 B(  3-N , 10-H ) :  -0.0703 B(  3-N , 11-H ) :  -0.0702 
B(  4-C ,  8-H ) :  -0.0714 B(  4-C ,  9-H ) :   0.8192 B(  4-C , 10-H ) :   0.8026 
B(  4-C , 11-H ) :   0.8018 B( 10-H , 11-H ) :  -0.0527 


                     *******************************
                     * LOEWDIN POPULATION ANALYSIS *
                     *******************************

----------------------
LOEWDIN ATOMIC CHARGES
----------------------
   0 C :   -0.352362
   1 C :    0.306248
   2 O :   -0.456312
   3 N :   -0.679215
   4 C :   -0.122264
   5 H :    0.153846
   6 H :    0.177066
   7 H :    0.177033
   8 H :    0.264777
   9 H :    0.172249
  10 H :    0.179714
  11 H :    0.179220

-------------------------------
LOEWDIN REDUCED ORBITAL CHARGES
-------------------------------
  0 C s       :     2.963402  s :     2.963402
      pz      :     1.161110  p :     3.331907
      px      :     1.068994
      py      :     1.101803
      dz2     :     0.012054  d :     0.057053
      dxz     :     0.014572
      dyz     :     0.003810
      dx2y2   :     0.015183
      dxy     :     0.011433

  1 C s       :     2.738777  s :     2.738777
      pz      :     0.740959  p :     2.705137
      px      :     0.971399
      py      :     0.992779
      dz2     :     0.014886  d :     0.249838
      dxz     :     0.016713
      dyz     :     0.046496
      dx2y2   :     0.056749
      dxy     :     0.114994

  2 O s       :     3.544240  s :     3.544240
      pz      :     1.462047  p :     4.692245
      px      :     1.753904
      py      :     1.476293
      dz2     :     0.027446  d :     0.219827
      dxz     :     0.007422
      dyz     :     0.047321
      dx2y2   :     0.060734
      dxy     :     0.076904

  3 N s       :     3.121515  s :     3.121515
      pz      :     1.606824  p :     4.029268
      px      :     1.217527
      py      :     1.204918
      dz2     :     0.055600  d :     0.528432
      dxz     :     0.092575
      dyz     :     0.048200
      dx2y2   :     0.189965
      dxy     :     0.142091

  4 C s       :     2.891199  s :     2.891199
      pz      :     1.116252  p :     3.139546
      px      :     0.950047
      py      :     1.073247
      dz2     :     0.014912  d :     0.091519
      dxz     :     0.013672
      dyz     :     0.022540
      dx2y2   :     0.014435
      dxy     :     0.025960

  5 H s       :     0.802465  s :     0.802465
      pz      :     0.008381  p :     0.043689
      px      :     0.008116
      py      :     0.027192

  6 H s       :     0.778664  s :     0.778664
      pz      :     0.021416  p :     0.044269
      px      :     0.013915
      py      :     0.008939

  7 H s       :     0.778732  s :     0.778732
      pz      :     0.020903  p :     0.044234
      px      :     0.014171
      py      :     0.009160

  8 H s       :     0.648719  s :     0.648719
      pz      :     0.024226  p :     0.086504
      px      :     0.011445
      py      :     0.050833

  9 H s       :     0.787306  s :     0.787306
      pz      :     0.008382  p :     0.040445
      px      :     0.014566
      py      :     0.017497

 10 H s       :     0.779472  s :     0.779472
      pz      :     0.020778  p :     0.040815
      px      :     0.005854
      py      :     0.014183

 11 H s       :     0.779995  s :     0.779995
      pz      :     0.021005  p :     0.040785
      px      :     0.005869
      py      :     0.013910


---------------------------------
LOEWDIN BOND ORDERS (THRESH 0.050000)
---------------------------------
B(  0-C ,  1-C ) :   0.9573 B(  0-C ,  2-O ) :   0.1943 B(  0-C ,  3-N ) :   0.1788 
B(  0-C ,  5-H ) :   0.9140 B(  0-C ,  6-H ) :   0.9053 B(  0-C ,  7-H ) :   0.9054 
B(  1-C ,  2-O ) :   2.1410 B(  1-C ,  3-N ) :   1.4358 B(  1-C ,  4-C ) :   0.0822 
B(  1-C ,  8-H ) :   0.0544 B(  2-O ,  3-N ) :   0.5074 B(  2-O ,  4-C ) :   0.0538 
B(  3-N ,  4-C ) :   1.3747 B(  3-N ,  8-H ) :   0.8781 B(  3-N ,  9-H ) :   0.1021 
B(  3-N , 10-H ) :   0.1036 B(  3-N , 11-H ) :   0.1037 B(  4-C ,  9-H ) :   0.8662 
B(  4-C , 10-H ) :   0.8514 B(  4-C , 11-H ) :   0.8517 

------------------------------------------
LOEWDIN REDUCED ORBITAL POPULATIONS PER MO
-------------------------------------------
THRESHOLD FOR PRINTING IS 0.1%%
                      0         1         2         3         4         5   
                 -18.90564 -14.18624 -10.12288 -10.06342 -10.03341  -0.99898
                   2.00000   2.00000   2.00000   2.00000   2.00000   2.00000
                  --------  --------  --------  --------  --------  --------
 0 C  s               0.0       0.0       0.0       0.0      99.7       1.5
 0 C  px              0.0       0.0       0.1       0.0       0.0       1.4
 0 C  py              0.0       0.0       0.0       0.0       0.0       0.8
 1 C  s               0.0       0.0      98.9       0.0       0.0      20.5
 1 C  px              0.0       0.1       0.0       0.0       0.1       0.7
 1 C  py              0.1       0.0       0.0       0.0       0.0       7.1
 1 C  dz2             0.0       0.0       0.0       0.0       0.0       0.7
 1 C  dx2y2           0.0       0.0       0.0       0.0       0.0       0.8
 2 O  s              99.9       0.0       0.0       0.0       0.0      42.7
 2 O  py              0.0       0.0       0.2       0.0       0.0       6.1
 2 O  dz2             0.0       0.0       0.1       0.0       0.0       0.3
 2 O  dx2y2           0.0       0.0       0.2       0.0       0.0       0.6
 3 N  s               0.0      99.8       0.0       0.0       0.0       8.2
 3 N  px              0.0       0.0       0.1       0.1       0.0       1.0
 3 N  py              0.0       0.0       0.0       0.0       0.0       1.4
 3 N  dz2             0.0       0.0       0.1       0.1       0.0       0.7
 3 N  dxy             0.0       0.0       0.2       0.1       0.0       0.9
 4 C  s               0.0       0.0       0.0      99.4       0.0       1.3
 4 C  px              0.0       0.0       0.0       0.0       0.0       1.6
 5 H  s               0.0       0.0       0.0       0.0       0.0       0.1
 8 H  s               0.0       0.0       0.0       0.0       0.0       0.8
 8 H  py              0.0       0.0       0.0       0.0       0.0       0.1

                      6         7         8         9        10        11   
                  -0.88826  -0.71937  -0.65515  -0.55496  -0.47432  -0.43328
                   2.00000   2.00000   2.00000   2.00000   2.00000   2.00000
                  --------  --------  --------  --------  --------  --------
 0 C  s               0.2      27.9      14.6       0.6       2.1       0.3
 0 C  px              0.4       0.6       1.1       1.3      13.9       0.3
 0 C  py              0.1       0.0       0.0       0.2       2.3      21.8
 0 C  dz2             0.0       0.0       0.0       0.0       0.1       0.0
 0 C  dxy             0.0       0.0       0.0       0.0       0.2       0.2
 1 C  s               0.8       5.4       0.5       4.9       3.0       1.9
 1 C  px              5.2       6.4       6.6       4.3       5.6       7.5
 1 C  py             14.3       8.3       0.4       2.4       1.8       1.4
 1 C  dx2y2           0.6       0.1       0.0       0.4       0.1       0.3
 1 C  dxy             0.4       0.0       0.4       0.0       0.0       0.0
 2 O  s              11.4       2.2       0.0       4.2       0.3       7.1
 2 O  px              0.1       0.3       0.2       1.3       2.5       4.9
 2 O  py              0.8       0.7       0.0       3.3       0.7      14.6
 2 O  dz2             0.2       0.2       0.0       0.3       0.0       0.1
 2 O  dx2y2           0.2       0.5       0.2       0.4       0.2       0.2
 2 O  dxy             0.4       0.5       0.3       0.5       0.6       0.5
 3 N  s              39.5       0.1       3.1       1.7       1.5       0.1
 3 N  px              0.3      12.2      11.1       7.2       8.5       9.7
 3 N  py              0.1       0.3       1.0      37.1      10.8       0.9
 3 N  dz2             0.1       0.0       0.5       0.0       0.4       0.1
 3 N  dx2y2           0.3       0.2       1.8       0.8       1.0       0.4
 3 N  dxy             0.4       0.4       1.1       0.1       0.0       1.1
 4 C  s               8.3      10.0      22.1       1.0       1.9       0.3
 4 C  px              3.8       0.1       1.8       0.1      20.5       5.0
 4 C  py              1.1       0.1       0.1       7.1       0.2       5.4
 4 C  dx2y2           0.1       0.0       0.0       0.0       0.2       0.1
 4 C  dxy             0.2       0.0       0.0       0.1       0.3       0.1
 5 H  s               0.1       5.8       3.0       0.5       1.8      10.3
 5 H  px              0.0       0.0       0.0       0.0       0.1       0.0
 5 H  py              0.0       0.5       0.2       0.0       0.1       0.2
 6 H  s               0.0       5.0       4.1       0.4       2.9       0.1
 6 H  pz              0.0       0.3       0.2       0.0       0.1       0.0
 6 H  px              0.0       0.1       0.1       0.0       0.0       0.0
 6 H  py              0.0       0.0       0.0       0.0       0.1       0.1
 7 H  s               0.0       4.9       4.1       0.4       2.9       0.1
 7 H  pz              0.0       0.3       0.2       0.0       0.1       0.0
 7 H  px              0.0       0.1       0.1       0.0       0.0       0.0
 7 H  py              0.0       0.0       0.0       0.0       0.1       0.1
 8 H  s               6.9       0.0       1.3      14.9       2.7       0.6
 8 H  px              0.0       0.1       0.1       0.1       0.1       0.1
 8 H  py              1.0       0.0       0.2       0.9       0.0       0.0
 9 H  s               0.9       2.2       6.7       0.0       6.5       0.1
 9 H  px              0.0       0.1       0.2       0.0       0.0       0.0
 9 H  py              0.0       0.1       0.3       0.0       0.3       0.0
10 H  s               0.7       1.8       5.6       1.5       1.4       1.6
10 H  pz              0.0       0.1       0.3       0.1       0.0       0.1
10 H  px              0.0       0.0       0.0       0.0       0.1       0.0
10 H  py              0.0       0.1       0.2       0.0       0.0       0.0
11 H  s               0.7       1.8       5.6       1.5       1.4       1.7
11 H  pz              0.0       0.1       0.3       0.1       0.1       0.1
11 H  px              0.0       0.0       0.0       0.0       0.1       0.0
11 H  py              0.0       0.1       0.1       0.0       0.0       0.0

                     12        13        14        15        16        17   
                  -0.42980  -0.39182  -0.37693  -0.36434  -0.35842  -0.32147
                   2.00000   2.00000   2.00000   2.00000   2.00000   2.00000
                  --------  --------  --------  --------  --------  --------
 0 C  s               0.0       0.0       0.0       0.1       0.0       0.0
 0 C  pz             14.5      29.5       0.0       0.0       0.0      14.0
 0 C  px              0.0       0.0       0.4      28.7       0.1       0.0
 0 C  py              0.0       0.0      14.8       5.3       7.1       0.0
 0 C  dz2             0.0       0.0       0.0       0.3       0.0       0.0
 0 C  dxz             0.0       0.2       0.0       0.0       0.0       0.5
 0 C  dyz             0.1       0.1       0.0       0.0       0.0       0.0
 0 C  dx2y2           0.0       0.0       0.2       0.1       0.2       0.0
 0 C  dxy             0.0       0.0       0.0       0.1       0.0       0.0
 1 C  s               0.0       0.0       0.4       0.2       0.3       0.0
 1 C  pz             17.7       3.2       0.0       0.0       0.0      16.2
 1 C  px              0.0       0.0       2.1       8.6       0.2       0.0
 1 C  py              0.0       0.0       2.0       1.9       9.7       0.0
 1 C  dxz             0.0       0.2       0.0       0.0       0.0       0.2
 1 C  dyz             0.0       0.0       0.0       0.0       0.0       0.5
 1 C  dx2y2           0.0       0.0       0.1       0.0       0.3       0.0
 1 C  dxy             0.0       0.0       0.1       0.2       0.1       0.0
 2 O  s               0.0       0.0       1.4       1.3       6.7       0.0
 2 O  pz              7.6       1.7       0.0       0.0       0.0      33.1
 2 O  px              0.0       0.0       0.9       3.0       0.0       0.0
 2 O  py              0.0       0.0       8.7       5.7      32.9       0.0
 2 O  dxz             0.0       0.3       0.0       0.0       0.0       0.0
 2 O  dyz             1.2       0.2       0.0       0.0       0.0       0.8
 2 O  dx2y2           0.0       0.0       0.2       0.1       0.3       0.0
 2 O  dxy             0.0       0.0       0.2       0.1       0.0       0.0
 3 N  s               0.0       0.0       0.3       0.0       0.2       0.0
 3 N  pz             19.5       3.0       0.0       0.0       0.0       5.7
 3 N  px              0.0       0.0       0.2       7.8       0.6       0.0
 3 N  py              0.0       0.0       1.3       1.3       4.2       0.0
 3 N  dz2             0.0       0.0       0.1       0.0       0.1       0.0
 3 N  dxz             0.0       2.4       0.0       0.0       0.0       1.8
 3 N  dyz             0.8       0.2       0.0       0.0       0.0       0.1
 3 N  dx2y2           0.0       0.0       1.1       1.3       2.4       0.0
 3 N  dxy             0.0       0.0       1.4       0.6       0.4       0.0
 4 C  s               0.0       0.0       0.0       0.2       0.0       0.0
 4 C  pz             20.9      24.8       0.0       0.0       0.0       7.2
 4 C  px              0.0       0.0       3.2       9.8       1.0       0.0
 4 C  py              0.0       0.0      26.6       0.1      12.6       0.0
 4 C  dz2             0.0       0.0       0.2       0.0       0.2       0.0
 4 C  dyz             0.1       0.2       0.0       0.0       0.0       0.2
 4 C  dxy             0.0       0.0       0.3       0.2       0.2       0.0
 5 H  s               0.0       0.0       7.9       5.2       4.4       0.0
 5 H  pz              0.1       0.2       0.0       0.0       0.0       0.1
 5 H  px              0.0       0.0       0.0       0.1       0.0       0.0
 5 H  py              0.0       0.0       0.1       0.1       0.0       0.0
 6 H  s               3.4       9.2       0.8       6.0       0.5       6.4
 6 H  pz              0.0       0.0       0.0       0.2       0.0       0.0
 6 H  px              0.1       0.2       0.0       0.0       0.0       0.1
 7 H  s               3.3       8.8       1.0       6.5       0.5       6.2
 7 H  pz              0.0       0.0       0.0       0.3       0.0       0.0
 7 H  px              0.1       0.2       0.0       0.0       0.0       0.1
 8 H  s               0.0       0.0       1.0       1.1       2.7       0.0
 8 H  pz              0.2       0.0       0.0       0.0       0.0       0.1
 9 H  s               0.0       0.0      13.2       2.9       6.8       0.0
 9 H  pz              0.1       0.2       0.0       0.0       0.0       0.1
 9 H  px              0.0       0.0       0.2       0.0       0.1       0.0
10 H  s               5.0       7.2       4.5       0.0       2.4       3.2
10 H  pz              0.0       0.0       0.2       0.0       0.1       0.0
10 H  py              0.1       0.2       0.0       0.0       0.0       0.1
11 H  s               4.9       7.4       4.2       0.1       2.3       3.2
11 H  pz              0.0       0.0       0.2       0.0       0.1       0.0
11 H  py              0.1       0.2       0.0       0.0       0.0       0.1

                     18        19        20        21        22        23   
                  -0.22926  -0.21563   0.00703   0.06087   0.10776   0.11364
                   2.00000   2.00000   0.00000   0.00000   0.00000   0.00000
                  --------  --------  --------  --------  --------  --------
 0 C  s               0.0       1.1       0.0      11.4       0.6      15.3
 0 C  pz              0.0       0.0       0.2       0.0       0.0       0.0
 0 C  px              0.0       5.2       0.0       2.2       0.6       6.4
 0 C  py              0.0       2.7       0.0       1.4       2.8       3.4
 0 C  dxz             0.0       0.0       2.0       0.0       0.0       0.0
 0 C  dx2y2           0.0       0.1       0.0       0.1       0.1       0.7
 0 C  dxy             0.0       0.0       0.0       0.1       0.2       0.1
 1 C  s               0.0       0.1       0.0       6.0       5.7       3.4
 1 C  pz              0.1       0.0      37.4       0.0       0.0       0.0
 1 C  px              0.0       1.2       0.0       0.4       2.0       0.4
 1 C  py              0.0       0.3       0.0       0.4       1.1       1.2
 1 C  dz2             0.0       0.0       0.0       0.7       0.5       0.7
 1 C  dxz             0.4       0.0       0.4       0.0       0.0       0.0
 1 C  dyz             1.8       0.0       0.8       0.0       0.0       0.0
 1 C  dx2y2           0.0       0.0       0.0       0.2       0.0       1.2
 1 C  dxy             0.0       4.6       0.0       0.0       0.0       0.0
 2 O  s               0.0       0.0       0.0       1.1       0.5       0.0
 2 O  pz             30.6       0.0      22.0       0.0       0.0       0.0
 2 O  px              0.0      74.4       0.0       0.6       0.2       0.2
 2 O  py              0.0       0.0       0.0       0.4       0.1       0.1
 2 O  dz2             0.0       0.0       0.0       0.5       1.7       1.2
 2 O  dyz             0.2       0.0       5.7       0.0       0.0       0.0
 2 O  dx2y2           0.0       0.0       0.0       0.4       0.2       0.3
 2 O  dxy             0.0       0.7       0.0       0.1       0.2       0.0
 3 N  s               0.0       1.6       0.0      10.4       0.6       1.7
 3 N  pz             52.1       0.0      11.5       0.0       0.0       0.0
 3 N  px              0.0       2.2       0.0       0.3       1.0       0.6
 3 N  py              0.0       1.6       0.0       6.0       2.0       4.0
 3 N  dz2             0.0       0.6       0.0       0.4      11.6       0.3
 3 N  dxz             0.4       0.0       7.1       0.0       0.0       0.0
 3 N  dyz             1.4       0.0       1.9       0.0       0.0       0.0
 3 N  dx2y2           0.0       0.2       0.0       5.7       1.2       6.7
 3 N  dxy             0.0       0.2       0.0       0.0       6.0       0.2
 4 C  s               0.0       0.1       0.0       6.2      24.7      10.0
 4 C  pz              2.9       0.0       0.0       0.0       0.0       0.0
 4 C  px              0.0       0.7       0.0       6.3       2.6      17.3
 4 C  py              0.0       0.2       0.0       7.4       3.2       2.5
 4 C  dz2             0.0       0.0       0.0       0.2       0.2       0.5
 4 C  dxz             0.6       0.0       0.3       0.0       0.0       0.0
 4 C  dyz             0.6       0.0       0.4       0.0       0.0       0.0
 4 C  dx2y2           0.0       0.0       0.0       0.1       0.1       0.6
 4 C  dxy             0.0       0.0       0.0       1.0       0.4       0.0
 5 H  s               0.0       1.1       0.0       2.3       1.3       1.1
 5 H  px              0.0       0.1       0.0       0.3       0.3       0.0
 5 H  py              0.0       0.0       0.0       1.0       0.3       0.1
 6 H  s               0.1       0.0       3.4       1.0       0.2       2.8
 6 H  pz              0.0       0.0       0.1       0.3       0.1       1.0
 6 H  px              0.0       0.1       0.2       0.0       0.0       0.6
 6 H  py              0.0       0.0       0.0       0.1       0.1       0.0
 7 H  s               0.1       0.0       3.3       1.0       0.2       2.7
 7 H  pz              0.0       0.0       0.0       0.3       0.1       1.0
 7 H  px              0.0       0.1       0.2       0.0       0.0       0.6
 7 H  py              0.0       0.0       0.0       0.1       0.1       0.0
 8 H  s               0.0       0.3       0.0      12.3       5.1       1.5
 8 H  pz              0.9       0.0       0.4       0.0       0.0       0.0
 8 H  px              0.0       0.1       0.0       0.1       0.3       0.0
 8 H  py              0.0       0.0       0.0       4.7       1.3       0.3
 9 H  s               0.0       0.0       0.0       2.7       0.9       5.0
 9 H  px              0.0       0.0       0.0       0.1       0.1       2.2
 9 H  py              0.0       0.0       0.0       1.0       0.2       0.5
10 H  s               3.8       0.0       1.2       0.7       7.0       0.3
10 H  pz              0.0       0.0       0.0       0.2       2.1       0.0
10 H  px              0.0       0.0       0.0       0.4       0.1       0.1
10 H  py              0.0       0.0       0.0       0.0       0.5       0.2
11 H  s               3.9       0.0       1.2       0.7       6.9       0.4
11 H  pz              0.0       0.0       0.0       0.2       2.1       0.0
11 H  px              0.0       0.0       0.0       0.4       0.1       0.1
11 H  py              0.0       0.0       0.0       0.0       0.4       0.2

                     24        25        26        27        28        29   
                   0.13007   0.15589   0.17214   0.18057   0.18792   0.19053
                   0.00000   0.00000   0.00000   0.00000   0.00000   0.00000
                  --------  --------  --------  --------  --------  --------
 0 C  s              19.4       0.6       0.0       0.7       0.0       0.7
 0 C  pz              0.0       0.0      16.1       0.0      10.6       0.0
 0 C  px              3.0      35.2       0.0       6.8       0.0      10.5
 0 C  py              2.7      16.4       0.0       7.6       0.1      24.3
 0 C  dz2             0.1       2.9       0.0       1.1       0.0       0.1
 0 C  dxz             0.0       0.0       0.7       0.0       1.5       0.0
 0 C  dyz             0.0       0.0       0.7       0.0       0.8       0.0
 0 C  dx2y2           0.7       0.0       0.0       2.5       0.0       0.0
 0 C  dxy             0.1       1.9       0.0       0.1       0.0       0.3
 1 C  s               1.9       5.7       0.0       0.5       0.0       0.3
 1 C  pz              0.0       0.0       8.5       0.0      10.2       0.0
 1 C  px              3.8       5.1       0.0       0.1       0.0       0.4
 1 C  py              1.1       2.7       0.0      10.6       0.0       6.3
 1 C  dz2             0.0       0.0       0.0       0.0       0.0       0.2
 1 C  dxz             0.0       0.0       0.1       0.0       0.3       0.0
 1 C  dx2y2           0.6       0.2       0.0       0.9       0.0       0.2
 1 C  dxy             0.0       0.1       0.0       0.4       0.0       0.0
 2 O  s               0.5       0.4       0.0       3.0       0.0       0.7
 2 O  pz              0.0       0.0       0.1       0.0       3.4       0.0
 2 O  px              1.4       0.4       0.0       0.5       0.0       0.1
 2 O  py              0.2       0.7       0.0       1.2       0.0       2.3
 2 O  dz2             0.1       1.8       0.0       0.1       0.0       0.1
 2 O  dxz             0.0       0.0       0.0       0.0       0.4       0.0
 2 O  dyz             0.0       0.0       0.6       0.0       0.0       0.0
 2 O  dx2y2           0.1       0.1       0.0       1.2       0.0       4.6
 2 O  dxy             0.1       0.9       0.0       0.7       0.0       0.1
 3 N  s               4.9       0.1       0.0       0.1       0.0       0.3
 3 N  pz              0.0       0.0       7.3       0.0       0.7       0.0
 3 N  px              4.7       0.2       0.0       1.3       0.0       1.5
 3 N  py              0.6       0.1       0.0       0.8       0.0       2.9
 3 N  dz2             0.2       2.0       0.0       0.2       0.0       2.6
 3 N  dxz             0.0       0.0       0.1       0.0       0.6       0.0
 3 N  dyz             0.0       0.0       9.2       0.0       2.3       0.0
 3 N  dx2y2           0.7       0.2       0.0       0.1       0.0       0.1
 3 N  dxy             0.3       1.1       0.0       0.1       0.0       1.0
 4 C  s               0.8       0.8       0.0       0.1       0.0       0.7
 4 C  pz              0.0       0.0      43.2       0.1      20.2       0.1
 4 C  px             15.9       1.5       0.0      14.7       0.0       6.3
 4 C  py             11.6       0.4       0.0      10.4       0.0       2.4
 4 C  dz2             1.1       0.0       0.0       0.2       0.0       0.4
 4 C  dxz             0.0       0.0       0.3       0.0       0.0       0.0
 4 C  dyz             0.0       0.0       0.5       0.0       1.8       0.0
 4 C  dx2y2           1.0       0.0       0.0       0.3       0.0       0.2
 4 C  dxy             0.7       0.1       0.0       0.0       0.0       1.7
 5 H  s               6.2       4.4       0.0      15.2       0.0       0.9
 5 H  pz              0.0       0.0       0.8       0.0       1.4       0.0
 5 H  px              0.2       1.0       0.0       0.0       0.0       0.1
 5 H  py              2.6       2.0       0.0       2.3       0.0       0.3
 6 H  s               2.1       3.0       3.4       2.9       7.8       0.9
 6 H  pz              1.1       0.8       0.0       1.2       0.7       0.2
 6 H  px              0.0       0.4       0.2       0.2       0.9       0.3
 6 H  py              0.5       0.0       0.1       0.5       0.5       0.4
 7 H  s               2.0       3.0       3.7       3.2       8.4       0.6
 7 H  pz              1.1       0.8       0.0       1.2       0.8       0.1
 7 H  px              0.0       0.4       0.2       0.3       1.0       0.2
 7 H  py              0.5       0.1       0.1       0.4       0.7       0.3
 8 H  s               0.0       0.7       0.0       0.5       0.0       2.5
 8 H  py              0.1       0.1       0.0       0.3       0.0       1.3
 9 H  s               0.0       1.2       0.0       1.7       0.0      13.8
 9 H  pz              0.0       0.0       0.8       0.0       1.0       0.0
 9 H  px              0.4       0.2       0.0       1.1       0.0       1.3
 9 H  py              0.7       0.4       0.0       0.2       0.0       2.5
10 H  s               1.1       0.0       1.2       0.7       8.5       0.1
10 H  pz              0.3       0.0       0.2       0.3       1.1       0.1
10 H  px              0.5       0.0       0.1       0.0       0.0       0.6
10 H  py              0.0       0.0       0.0       0.1       1.9       0.3
11 H  s               1.1       0.0       1.1       0.9       8.7       0.4
11 H  pz              0.3       0.0       0.2       0.3       1.2       0.1
11 H  px              0.5       0.0       0.1       0.0       0.0       0.7
11 H  py              0.0       0.0       0.0       0.1       2.0       0.1

                     30        31        32        33        34        35   
                   0.20126   0.20765   0.21547   0.22067   0.23771   0.27845
                   0.00000   0.00000   0.00000   0.00000   0.00000   0.00000
                  --------  --------  --------  --------  --------  --------
 0 C  s               0.0       0.7       0.0       0.5       0.1       0.0
 0 C  pz             12.5       0.0      60.6       0.0       0.0       8.1
 0 C  px              0.0       6.6       0.0       8.7       0.9       0.0
 0 C  py              0.0       6.9       0.0      19.9       4.8       0.0
 0 C  dz2             0.0       0.2       0.0       0.2       0.4       0.0
 0 C  dxz             0.9       0.0       0.1       0.0       0.0       0.2
 0 C  dyz             1.6       0.0       0.0       0.0       0.0       0.1
 0 C  dx2y2           0.0       0.1       0.0       0.2       0.5       0.0
 0 C  dxy             0.0       1.4       0.0       0.0       0.1       0.0
 1 C  s               0.0      10.4       0.0       2.6       3.6       0.0
 1 C  pz              5.1       0.0       2.2       0.0       0.0      64.4
 1 C  px              0.0       0.9       0.0       2.2       0.7       0.0
 1 C  py              0.0       5.5       0.0       2.1       1.1       0.0
 1 C  dz2             0.0       1.7       0.0       0.4       0.5       0.0
 1 C  dxz             0.0       0.0       0.1       0.0       0.0       0.5
 1 C  dx2y2           0.0       0.5       0.0       0.1       0.6       0.0
 1 C  dxy             0.0       0.0       0.0       0.5       0.0       0.0
 2 O  s               0.0       3.7       0.0       1.0       0.4       0.0
 2 O  pz              1.3       0.0       0.3       0.0       0.0       6.0
 2 O  px              0.0       1.3       0.0       0.6       4.8       0.0
 2 O  py              0.0       1.1       0.0       0.6       1.0       0.0
 2 O  dz2             0.0       2.4       0.0       0.0       1.1       0.0
 2 O  dxz             2.5       0.0       0.8       0.0       0.0       0.2
 2 O  dyz             1.6       0.0       0.2       0.0       0.0       0.8
 2 O  dx2y2           0.0       0.8       0.0       0.3       0.7       0.0
 2 O  dxy             0.0       0.1       0.0       0.7       0.8       0.0
 3 N  s               0.0       0.1       0.0       2.3       0.6       0.0
 3 N  pz              1.8       0.0       0.9       0.0       0.0       2.0
 3 N  px              0.0       1.3       0.0       3.2       0.9       0.0
 3 N  py              0.0       1.1       0.0       3.9       0.9       0.0
 3 N  dz2             0.0       0.1       0.0       4.7       7.5       0.0
 3 N  dxz             6.9       0.0       0.1       0.0       0.0       0.9
 3 N  dyz             0.1       0.0       0.0       0.0       0.0       0.7
 3 N  dx2y2           0.0       2.7       0.0       0.9       0.3       0.0
 3 N  dxy             0.0       3.4       0.0       5.7       1.1       0.0
 4 C  s               0.0       2.2       0.0       0.2       0.9       0.0
 4 C  pz             17.3       0.0      18.9       0.0       0.0       8.3
 4 C  px              0.0       3.2       0.0       2.9       4.9       0.0
 4 C  py              0.0       9.5       0.0       6.1      43.9       0.0
 4 C  dz2             0.0       2.0       0.0       0.0       0.1       0.0
 4 C  dxz             0.1       0.0       0.0       0.0       0.0       0.3
 4 C  dyz             3.3       0.0       0.1       0.0       0.0       0.1
 4 C  dx2y2           0.0       0.0       0.0       0.0       0.6       0.0
 4 C  dxy             0.0       0.5       0.0       1.0       0.4       0.0
 5 H  s               0.0       5.3       0.0       1.1       1.8       0.0
 5 H  pz              1.9       0.0       0.0       0.0       0.0       0.2
 5 H  px              0.0       1.0       0.0       0.0       0.2       0.0
 5 H  py              0.0       0.9       0.0       1.1       0.0       0.0
 6 H  s               6.4       0.3       3.1       0.2       1.5       1.2
 6 H  pz              0.2       0.0       1.4       0.0       0.2       0.2
 6 H  px              0.6       0.2       0.7       0.3       0.0       0.8
 6 H  py              0.5       0.9       0.1       0.0       0.1       0.1
 7 H  s               6.4       0.1       3.0       0.2       1.1       1.1
 7 H  pz              0.2       0.0       1.3       0.0       0.2       0.2
 7 H  px              0.6       0.2       0.8       0.3       0.0       0.8
 7 H  py              0.6       0.8       0.1       0.0       0.1       0.1
 8 H  s               0.0       0.8       0.0      12.4       0.8       0.0
 8 H  pz              0.2       0.0       0.0       0.0       0.0       0.0
 8 H  px              0.0       0.3       0.0       0.6       0.4       0.0
 8 H  py              0.0       0.0       0.0       3.8       0.3       0.0
 9 H  s               0.0       7.1       0.0       5.6       2.6       0.0
 9 H  pz              2.3       0.0       0.0       0.0       0.0       0.1
 9 H  px              0.0       0.6       0.0       1.1       0.1       0.0
 9 H  py              0.0       0.1       0.0       1.0       0.4       0.0
10 H  s              11.2       3.3       1.6       0.1       1.1       0.7
10 H  pz              0.3       1.6       0.5       0.0       0.3       0.3
10 H  px              0.0       0.1       0.1       0.3       0.1       0.3
10 H  py              1.6       0.1       0.4       0.0       1.4       0.1
11 H  s              10.0       3.6       1.5       0.1       1.1       0.7
11 H  pz              0.2       1.6       0.5       0.0       0.3       0.2
11 H  px              0.0       0.2       0.1       0.3       0.2       0.3
11 H  py              1.5       0.1       0.4       0.0       1.4       0.1

                     36        37        38        39        40        41   
                   0.28397   0.30837   0.35462   0.38291   0.40135   0.42874
                   0.00000   0.00000   0.00000   0.00000   0.00000   0.00000
                  --------  --------  --------  --------  --------  --------
 0 C  s               0.6       1.5       7.3       0.8       9.8       0.0
 0 C  pz              0.0       0.0       0.0       0.0       0.0       5.2
 0 C  px              4.8      15.4       8.2       0.1       0.6       0.0
 0 C  py              7.8       1.3       4.2       0.5       4.6       0.0
 0 C  dz2             1.4       0.1       0.2       0.0       0.0       0.0
 0 C  dyz             0.0       0.0       0.0       0.0       0.0       0.8
 0 C  dx2y2           0.1       0.1       0.0       0.0       0.0       0.0
 0 C  dxy             0.0       0.2       0.0       0.0       0.7       0.0
 1 C  s               5.9       2.9       3.7       0.1       3.3       0.0
 1 C  pz              0.0       0.0       0.0       0.0       0.0       0.8
 1 C  px             16.1       2.0       0.1       1.6      19.4       0.1
 1 C  py             10.9       6.9      11.1       0.7       3.8       0.0
 1 C  dz2             0.1       1.2       1.9       0.5       0.0       0.0
 1 C  dxz             0.0       0.0       0.0       0.0       0.0       1.4
 1 C  dx2y2           0.4       1.0       0.2       0.1       0.1       0.0
 1 C  dxy             0.0       0.1       0.1       0.0       2.1       0.0
 2 O  s               0.3       0.5       0.6       0.6       0.2       0.0
 2 O  pz              0.0       0.0       0.0       0.0       0.0       1.5
 2 O  px              1.1       2.5       0.7       0.1       3.0       0.0
 2 O  py              0.9       0.1       7.4       9.3       0.3       0.0
 2 O  dz2             0.5       1.9       1.6       3.9       0.0       0.0
 2 O  dxz             0.0       0.0       0.0       0.0       0.0      11.7
 2 O  dx2y2           0.1       1.4       0.1       1.8       1.3       0.0
 2 O  dxy             0.4       0.2       0.9       0.7      10.2       0.0
 3 N  s               1.5       2.2       0.6       1.0       3.3       0.0
 3 N  pz              0.0       0.0       0.0       0.0       0.0       7.8
 3 N  px              4.5       0.9       3.3       4.3       1.3       0.0
 3 N  py              0.3       3.5       3.0       9.6       3.1       0.0
 3 N  dz2             6.8       4.8       0.0       1.2       0.4       0.0
 3 N  dxz             0.0       0.0       0.0       0.0       0.0       1.8
 3 N  dyz             0.0       0.0       0.0       0.0       0.1      50.5
 3 N  dx2y2           0.0       2.2       2.8       2.0       0.9       0.0
 3 N  dxy            10.2       1.4      12.5       0.4       2.5       0.0
 4 C  s               0.9       2.1       0.2      28.5       1.3       0.0
 4 C  pz              0.0       0.0       0.0       0.0       0.0       3.3
 4 C  px              1.8      36.0       0.8       0.2       2.3       0.0
 4 C  py              4.0       1.7       4.4       1.1       0.6       0.0
 4 C  dz2             0.2       0.6       0.8       0.4       0.0       0.0
 4 C  dxz             0.0       0.0       0.0       0.0       0.0       1.0
 4 C  dyz             0.0       0.0       0.0       0.0       0.0       0.4
 4 C  dx2y2           0.4       0.1       1.1       0.1       0.9       0.0
 4 C  dxy             0.2       0.0       0.1       0.0       0.0       0.0
 5 H  s               0.1       0.3       6.9       0.5       1.3       0.0
 5 H  pz              0.0       0.0       0.0       0.0       0.0       0.7
 5 H  px              0.1       0.2       0.0       0.0       0.0       0.0
 5 H  py              0.0       0.1       2.4       0.1       0.0       0.0
 6 H  s               2.4       0.2       0.8       0.2       6.0       1.0
 6 H  pz              1.9       0.0       0.1       0.0       2.0       0.0
 6 H  px              0.4       0.0       0.2       0.1       0.7       0.1
 6 H  py              0.0       0.0       0.3       0.0       0.0       0.3
 7 H  s               2.3       0.2       0.9       0.2       6.2       1.1
 7 H  pz              2.0       0.0       0.1       0.0       2.0       0.0
 7 H  px              0.4       0.0       0.3       0.1       0.8       0.1
 7 H  py              0.0       0.0       0.3       0.0       0.0       0.4
 8 H  s               0.6       0.4       1.7       1.5       1.2       0.0
 8 H  pz              0.0       0.0       0.0       0.0       0.0       3.9
 8 H  px              1.2       0.4       1.7       0.0       0.4       0.0
 8 H  py              0.2       0.0       0.2       0.1       0.3       0.0
 9 H  s               0.3       2.6       1.8       4.1       0.9       0.0
 9 H  px              0.1       0.0       0.0       1.0       0.0       0.0
 9 H  py              0.3       0.0       1.2       0.3       0.8       0.0
10 H  s               2.1       0.1       0.3       7.3       0.4       2.6
10 H  pz              0.2       0.0       0.9       3.4       0.0       0.0
10 H  px              0.1       0.0       0.0       0.0       0.0       0.3
10 H  py              0.0       0.4       0.5       0.1       0.2       0.1
11 H  s               2.4       0.0       0.3       7.5       0.3       2.1
11 H  pz              0.2       0.0       0.9       3.4       0.0       0.0
11 H  px              0.1       0.0       0.0       0.0       0.0       0.3
11 H  py              0.1       0.3       0.5       0.1       0.2       0.1

                     42        43        44        45        46        47   
                   0.43602   0.43752   0.44940   0.49612   0.51573   0.55498
                   0.00000   0.00000   0.00000   0.00000   0.00000   0.00000
                  --------  --------  --------  --------  --------  --------
 0 C  s               4.7      19.0       0.0       0.2      14.6       1.8
 0 C  pz              0.0       0.0       0.8       0.0       0.0       0.0
 0 C  px              0.7      10.8       0.0       0.6       1.0       1.2
 0 C  py              2.3       5.1       0.0       0.3       0.9       1.0
 0 C  dz2             0.1       0.1       0.0       0.1       0.0       0.0
 0 C  dxz             0.0       0.0       0.7       0.0       0.0       0.0
[...]
 3 N  px              0.4       0.0       0.0       1.0       0.5       2.2
 3 N  py              1.5       0.0       0.0       0.6       6.9       1.5
 3 N  dz2             1.4       0.0       0.0       0.0       0.0      27.8
 3 N  dxz             0.0       0.1       0.5       0.0       0.0       0.0
 3 N  dyz             0.0       0.5       0.3       0.0       0.0       0.0
 3 N  dx2y2           1.2       0.0       0.0       0.3       0.4       1.0
 3 N  dxy             0.1       0.0       0.0       0.3       1.4       2.1
 4 C  s               0.1       0.0       0.0       0.0       0.2       1.9
 4 C  pz              0.0      10.8       2.4       0.0       0.0       0.0
 4 C  px              2.2       0.0       0.0       0.0       0.0       5.2
 4 C  py              9.2       0.0       0.0       0.2       0.7       2.8
 4 C  dz2            10.5       0.0       0.0       0.1       0.9       6.0
 4 C  dxz             0.0       0.9       0.3       0.0       0.0       0.0
 4 C  dyz             0.0      21.5       5.5       0.0       0.0       0.0
 4 C  dx2y2           0.5       0.0       0.0       0.1       0.8       4.8
 4 C  dxy            10.2       0.0       0.0       0.1       0.4       2.6
 5 H  s               0.1       0.0       0.0      10.0       0.1       0.0
 5 H  pz              0.0       0.1       0.2       0.0       0.0       0.0
 5 H  px              0.0       0.0       0.0       0.7       0.1       0.0
 5 H  py              0.4       0.0       0.1      22.2       0.0       0.0
 6 H  s               0.0       1.6       6.6       2.2       0.7       0.0
 6 H  pz              0.1       2.3       9.3       5.1       1.5       0.0
 6 H  px              0.0       1.3       5.1       0.7       0.3       0.0
 6 H  py              0.0       0.4       1.1       0.0       0.0       0.0
 7 H  s               0.0       1.6       5.7       3.1       0.7       0.0
 7 H  pz              0.0       2.1       7.2       6.6       1.6       0.0
 7 H  px              0.0       1.4       4.8       1.2       0.4       0.0
 7 H  py              0.0       0.5       1.3       0.1       0.0       0.0
 8 H  s               0.1       0.0       0.0       0.1       0.9       1.1
 8 H  pz              0.0       0.2       0.0       0.0       0.0       0.0
 8 H  px              0.0       0.0       0.0       0.2       1.2       0.0
 8 H  py              1.1       0.0       0.0       0.1       2.6       5.3
 9 H  s               8.9       0.0       0.0       0.1       0.4       0.0
 9 H  pz              0.0       0.5       0.1       0.0       0.0       0.0
 9 H  px             10.6       0.0       0.0       0.0       0.2       0.1
 9 H  py             10.3       0.0       0.0       0.2       0.4       0.3
10 H  s               2.1       6.9       1.6       0.0       0.3       0.8
10 H  pz              4.5       9.8       2.3       0.1       0.8       1.9
10 H  px              0.8       0.2       0.0       0.0       0.0       0.2
10 H  py              0.6       7.1       1.7       0.0       0.1       0.4
11 H  s               3.0       6.0       1.5       0.1       0.2       0.8
11 H  pz              6.2       8.4       2.2       0.2       0.7       1.9
11 H  px              0.9       0.1       0.0       0.0       0.0       0.1
11 H  py              1.1       6.4       1.6       0.0       0.0       0.4

                    132       133       134       135       136       137   
                   3.98262   4.19076   4.43545  21.90429  22.03816  22.21433
                   0.00000   0.00000   0.00000   0.00000   0.00000   0.00000
                  --------  --------  --------  --------  --------  --------
 0 C  s               0.0       0.0       0.0      82.7      16.9       0.0
 0 C  px              0.0       0.1       0.0       0.0       0.0       0.0
 0 C  py              0.1       0.3       0.0       0.0       0.0       0.0
 0 C  dx2y2           0.4       0.3       0.0       0.0       0.0       0.0
 0 C  dxy             0.0       0.6       0.0       0.0       0.0       0.0
 1 C  s               2.9       0.4       6.0       0.1       0.5      98.3
 1 C  px              3.7       2.0       0.1       0.0       0.0       0.1
 1 C  py              2.0       0.9       7.9       0.0       0.0       0.1
 1 C  dz2             1.6       0.0       1.6       0.0       0.0       0.0
 1 C  dx2y2           2.7       0.0       4.6       0.0       0.0       0.0
 1 C  dxy             7.1       6.3       0.0       0.0       0.0       0.0
 2 O  s               1.5       0.5      18.5       0.0       0.0       0.2
 2 O  px              0.0       0.9       0.0       0.0       0.0       0.0
 2 O  py              0.8       0.5      22.7       0.0       0.0       0.2
 2 O  dz2             0.9       0.2       8.6       0.0       0.0       0.0
 2 O  dx2y2           0.2       0.7      26.3       0.0       0.0       0.0
 2 O  dxy             0.9       1.8       0.2       0.0       0.0       0.0
 3 N  s               2.8       0.8       0.2       0.0       0.1       0.2
 3 N  px             20.5       0.3       0.2       0.0       0.1       0.1
 3 N  py              0.1      15.8       0.5       0.0       0.0       0.1
 3 N  dz2             3.7       1.0       0.1       0.0       0.0       0.0
 3 N  dx2y2           2.7      33.0       1.0       0.0       0.0       0.0
 3 N  dxy            28.9       3.3       0.1       0.0       0.0       0.0
 4 C  s               1.4       0.1       0.0      16.9      82.0       0.6
 4 C  px              4.0       0.6       0.1       0.0       0.0       0.0
 4 C  py              0.1       0.1       0.0       0.0       0.0       0.0
 4 C  dz2             0.4       0.0       0.0       0.0       0.0       0.0
 4 C  dx2y2           2.3       0.0       0.1       0.0       0.0       0.0
 4 C  dxy             3.2       1.5       0.2       0.0       0.0       0.0
 5 H  s               0.1       0.2       0.0       0.0       0.0       0.0
 5 H  px              0.2       0.0       0.0       0.0       0.0       0.0
 5 H  py              0.1       0.3       0.0       0.0       0.0       0.0
 8 H  s               0.7      11.3       0.2       0.0       0.0       0.0
 8 H  px              0.8       0.1       0.0       0.0       0.0       0.0
 8 H  py              1.5      15.0       0.2       0.0       0.0       0.0
 9 H  s               0.5       0.4       0.0       0.0       0.0       0.0
 9 H  px              0.1       0.2       0.0       0.0       0.0       0.0
 9 H  py              0.6       0.3       0.0       0.0       0.0       0.0

                    138       139   
                  31.88996  43.68717
                   0.00000   0.00000
                  --------  --------
 2 O  s               0.0      99.9
 3 N  s              99.8       0.0


                      *****************************
                      * MAYER POPULATION ANALYSIS *
                      *****************************

  NA   - Mulliken gross atomic population
  ZA   - Total nuclear charge
  QA   - Mulliken gross atomic charge
  VA   - Mayer's total valence
  BVA  - Mayer's bonded valence
  FA   - Mayer's free valence

  ATOM       NA         ZA         QA         VA         BVA        FA
  0 C      6.5242     6.0000    -0.5242     3.8720     3.8720     0.0000
  1 C      5.6642     6.0000     0.3358     3.8472     3.8472    -0.0000
  2 O      8.4384     8.0000    -0.4384     1.9760     1.9760    -0.0000
  3 N      7.1653     7.0000    -0.1653     3.0655     3.0655    -0.0000
  4 C      6.3831     6.0000    -0.3831     3.8499     3.8499    -0.0000
  5 H      0.8692     1.0000     0.1308     0.9696     0.9696    -0.0000
  6 H      0.8263     1.0000     0.1737     0.9574     0.9574     0.0000
  7 H      0.8265     1.0000     0.1735     0.9576     0.9576     0.0000
  8 H      0.7660     1.0000     0.2340     0.9351     0.9351     0.0000
  9 H      0.8607     1.0000     0.1393     0.9618     0.9618     0.0000
 10 H      0.8378     1.0000     0.1622     0.9553     0.9553    -0.0000
 11 H      0.8384     1.0000     0.1616     0.9552     0.9552    -0.0000

  Mayer bond orders larger than 0.100000
B(  0-C ,  1-C ) :   0.9106 B(  0-C ,  5-H ) :   0.9916 B(  0-C ,  6-H ) :   0.9529 
B(  0-C ,  7-H ) :   0.9542 B(  1-C ,  2-O ) :   1.8072 B(  1-C ,  3-N ) :   1.1691 
B(  3-N ,  4-C ) :   0.8881 B(  3-N ,  8-H ) :   0.9177 B(  4-C ,  9-H ) :   0.9729 
B(  4-C , 10-H ) :   0.9543 B(  4-C , 11-H ) :   0.9542 

-------
TIMINGS
-------

Total SCF time: 0 days 0 hours 0 min 5 sec 

Total time                  ....       5.570 sec
Sum of individual times     ....       5.547 sec  ( 99.6%)

SCF preparation             ....       0.027 sec  (  0.5%)
Fock matrix formation       ....       5.419 sec  ( 97.3%)
  Startup                   ....       0.001 sec  (  0.0% of F)
  Split-RI-J                ....       0.835 sec  ( 15.4% of F)
  XC integration            ....       4.570 sec  ( 84.3% of F)
    Basis function eval.    ....       0.890 sec  ( 19.5% of XC)
    Density eval.           ....       1.374 sec  ( 30.1% of XC)
    XC-Functional eval.     ....       0.706 sec  ( 15.5% of XC)
    XC-Potential eval.      ....       1.502 sec  ( 32.9% of XC)
Diagonalization             ....       0.000 sec  (  0.0%)
Density matrix formation    ....       0.019 sec  (  0.3%)
Total Energy calculation    ....       0.001 sec  (  0.0%)
Population analysis         ....       0.044 sec  (  0.8%)
Orbital Transformation      ....       0.004 sec  (  0.1%)
Orbital Orthonormalization  ....       0.000 sec  (  0.0%)
DIIS solution               ....       0.027 sec  (  0.5%)
  MO trafo                  ....       0.000 sec  (  0.0 % of DIIS)
  Orb grad                  ....       0.000 sec  (  0.0 % of DIIS)
  Energy W gradient         ....       0.000 sec  (  0.0 % of DIIS)
  DIIS error                ....       0.003 sec  ( 11.2 % of DIIS)
  DIIS work                 ....       0.021 sec  ( 79.4 % of DIIS)
  Form Q                    ....       0.000 sec  (  0.0 % of DIIS)
  Form QpQm                 ....       0.000 sec  (  0.0 % of DIIS)
  Exp/Cayley                ....       0.000 sec  (  0.0 % of DIIS)
  Orb update                ....       0.000 sec  (  0.0 % of DIIS)
  Wake-sleep                ....       0.000 sec  (  1.4 % of DIIS)
SOSCF solution              ....       0.005 sec  (  0.1%)
  MO trafo                  ....       0.003 sec  ( 62.2 % of SOSCF)
  Orb grad                  ....       0.000 sec  (  0.9 % of SOSCF)
  Rot update                ....       0.000 sec  (  2.3 % of SOSCF)
  Step                      ....       0.002 sec  ( 34.1 % of SOSCF)
Finished LeanSCF after   5.6 sec

Maximum memory used throughout the entire LEANSCF-calculation: 14.6 MB


-------------------------------------------------------------------------------
                          DFT DISPERSION CORRECTION                            
                                                                               
                                DFTD4 V3.4.0                                   
-------------------------------------------------------------------------------
The R2SCAN3C composite method is recognized
Using three-body term ABC
Active option DFTDOPT                   ...         5   

-------------------------   ----------------
Dispersion correction           -0.002392531
-------------------------   ----------------

------------------   -----------------
gCP correction             0.010458238
------------------   -----------------

-------------------------   --------------------
FINAL SINGLE POINT ENERGY      -248.463094223361
-------------------------   --------------------


------------------------------------------------------------------------------
                              ORCA PROPERTY CALCULATIONS
------------------------------------------------------------------------------

GBWName                                 ... sp.gbw
Number of atoms                         ...     12
Number of basis functions               ...    140
Max core memory                         ...   1024 MB

Electric properties:
Dipole moment                           ... YES
Quadrupole moment                       ...  NO
Static polarizability (Dipole/Dipole)   ...  NO
Static polarizability (Dipole/Quad.)    ...  NO
Static polarizability (Quad./Quad.)     ...  NO
Static polarizability (Velocity)        ...  NO

Atomic electric properties:
Dipole moment                           ...  NO
Quadrupole moment                       ...  NO
Static polarizability                   ...  NO

Choice of electric origin               ... Center of mass
Position of electric origin             ...     0.000012     0.000029    -0.000000

General magnetic properties:
Magnetizability                         ...  NO

EPR properties:
g-Tensor (aka g-matrix)                 ...  NO
Zero-Field splitting spin-orbit         ...  NO
Zero-field splitting spin-spin          ...  NO
Hyperfine couplings                     ...  NO (   0 nuclei)
Quadrupole couplings                    ...  NO (   0 nuclei)
Contact density                         ...  NO (   0 nuclei)

NMR properties:
Chemical shifts                         ...  NO (   0 nuclei)
Spin-rotation constants                 ...  NO (   0 nuclei)
Spin-spin couplings                     ...  NO (   0 nuclei,    0 pairs)

Choice of magnetic origin               ... GIAO
Position of magnetic origin             ...     0.000000     0.000000     0.000000

Properties with geometric perturbations:
SCF Hessian                             ...  NO
IR spectrum                             ...  NO
VCD spectrum                            ...  NO
X-ray spectroscopy properties:
SCF XES/XAS/RIXS spectra                ...  NO


-------------
DIPOLE MOMENT
-------------

Method             : SCF
Type of density    : Electron Density
Multiplicity       :   1
Irrep              :   0
Energy             :  -248.4711599301333820 Eh
Relativity type    : 
Basis              : AO
                                X                 Y                 Z
Electronic contribution:     -0.679910757      -2.198080182       0.000848679
Nuclear contribution   :      1.057906303       3.660313501      -0.000640796
                        -----------------------------------------
Total Dipole Moment    :      0.377995546       1.462233319       0.000207883
                        -----------------------------------------
Magnitude (a.u.)       :      1.510300287
Magnitude (Debye)      :      3.838878248



--------------------
Rotational spectrum 
--------------------
 
Rotational constants in cm-1:             0.337128             0.130945             0.097727 
Rotational constants in MHz :         10106.839327          3925.623156          2929.777034 

Dipole components along the rotational axes: 
x,y,z [a.u.] :     0.359040    -1.467003     0.000108 
x,y,z [Debye]:     0.912606    -3.728825     0.000275 

 

Dipole moment calculation done in   0.0 sec 

Maximum memory used throughout the entire PROP-calculation: 8.3 MB

--------------------------------
SUGGESTED CITATIONS FOR THIS RUN
--------------------------------

Below you find a list of papers that are relevant to this ORCA run
We neither can nor want to force you to cite these papers, but we appreciate if you do
You receive ORCA, which is the product of decades of hard work by many enthusiastic individuals, for free
The only thing we kindly ask in return is that you cite our papers,
We deeply appreciate it, if you show your appreciation for ORCA by not just citing the generic ORCA reference.

Please note that relegating all ORCA citations to the supporting information does *not* help us.
SI sections are not indexed - citations you put there will not count into any citation statistics
But we need these citations in order to attract the funding resources that allow us to do what we are doing

Therefore, if you are a happy ORCA user, please consider citing a few of the papers listed below in the main body of your paper

In addition to the list printed below, the program has created the file sp.bibtex that contains the list in bibtex format
You can import this file easily into all common literature databanks and citation aid programs


List of essential papers. We consider these as the minimum necessary citations

  1. Neese,F.
     Software update: the ORCA program system, version 5.0
     WIRES Comput. Molec. Sci., 2022 12(1)e1606
     doi.org/10.1002/wcms.1606
  2. Grimme,S.; Hansen,A.; Ehlert,S.; Mewes,J.
     r2SCAN-3c: A 'Swiss army knife' composite electronic-structure method
     J. Chem. Phys., 2021 154 064103
     doi.org/10.1063/5.0040021

List of papers to cite with high priority. The work reported in these papers was absolutely
necessary for this run to complete.
Our perspective: the developers of density functionals and basis sets usually get cited in chemistry papers
Good! But without the algorithms to do something with them, the functionals or basis sets would not do anything.
Hence, in our opinion, the algorithm design and method developments papers are equally worthy of getting cited

  1. Neese,F.
     An improvement of the resolution of the identity approximation for the formation of the Coulomb matrix
     J. Comp. Chem., 2003 24(14)1740-1747
     doi.org/10.1002/jcc.10318
  2. Neese,F.
     The SHARK Integral Generation and Digestion System
     J. Comp. Chem., 2022  1-16
     doi.org/10.1002/jcc.26942
  3. Lehtola,S.; Steigemann,C.; Oliveira,M.; Marques,M.
     Recent developments in Libxc - A comprehensive library of functionals for density functional theory
     Software X, 2018 7 
     doi.org/10.1016/j.softx.2017.11.002
  4. Caldeweyher,E.; Bannwarth,C.; Grimme,S.
     Extension of the D3 dispersion coefficient model
     J. Chem. Phys., 2017 147 034112
     doi.org/10.1063/1.4993215
  5. Caldeweyher,E.; Ehlert,S.; Hansen,A.; Neugebauer,H.; Spicher,S.; Bannwarth,C.; Grimme,S.
     A generally applicable atomic-charge dependent London dispersion correction
     J. Chem. Phys., 2019 150 154122
     doi.org/10.1063/1.5090222
  6. Caldeweyher,E.; Mewes,J.; Ehlert,S.; Grimme,S.
     Extension and evaluation of the D4 London-dispersion model for periodic systems
     Phys. Chem. Chem. Phys., 2020 22(16)8499-8512
     doi.org/10.1039/D0CP00502A
  7. Wittmann,L.; Gordiy,I.; Friede,M.; Helmich-Paris,B.; Grimme,S.; Hansen,A.; Bursch,M.
     Extension of the D3 and D4 London Dispersion Corrections to the full Actinides Series
     Phys. Chem. Chem. Phys., 2024 26(32)21379-21394
     doi.org/https://doi.org/10.1039/D4CP01514B 

List of suggested additional citations. These are papers that are important in the 'surrounding' of 
of this run, or papers that preceded the highly important papers. If you like your results we are grateful for a citation.

  1. Neese,F.
     The ORCA program system
     WIRES Comput. Molec. Sci., 2012 2(1)73-78
     doi.org/10.1002/wcms.81
  2. Neese,F.
     Software update: the ORCA program system, version 4.0
     WIRES Comput. Molec. Sci., 2018 8(1)1-6
     doi.org/10.1002/wcms.1327
  3. Neese,F.; Wennmohs,F.; Becker,U.; Riplinger,C.
     The ORCA quantum chemistry program package
     J. Chem. Phys., 2020 152 Art. No. L224108
     doi.org/10.1063/5.0004608

List of optional additional citations

  1. Neese,F.
     Approximate second-order SCF convergence for spin unrestricted wavefunctions
     Chem. Phys. Lett., 2000 325(1-3)93-98
     doi.org/10.1016/s0009-2614(00)00662-x

Timings for individual modules:

Sum of individual times          ...        5.961 sec (=   0.099 min)
Startup calculation              ...        0.296 sec (=   0.005 min)   5.0 %
SCF iterations                   ...        5.630 sec (=   0.094 min)  94.5 %
Property calculations            ...        0.035 sec (=   0.001 min)   0.6 %
                             ****ORCA TERMINATED NORMALLY****
TOTAL RUN TIME: 0 days 0 hours 0 minutes 6 seconds 35 msec
