12
 energy: -16.985703741165 gnorm: 0.025671395531 xtb: 6.7.1 (41059b4)
C           -1.77484854108744        0.68511204300960       -0.00002228768644
C           -0.48012950732849       -0.10910064195432       -0.00004634363746
O           -0.45340723270170       -1.33080378096551       -0.00000876822391
N            0.65040782725199        0.66094114251304       -0.00007153495244
C            1.98834881057709        0.09577420387111       -0.00002323293536
H           -1.84158335078723        1.32433991002808        0.88648110158297
H           -1.84072039086167        1.32616455619497       -0.88526727171183
H           -2.61065515891001       -0.01312683294008       -0.00110112803230
H            0.54780197058067        1.66217608142598       -0.00010413398201
H            1.88546671188061       -0.99100548924975       -0.00073045080050
H            2.54900105821238        0.39880278216643        0.89191100594452
H            2.54946732064313        0.39996020053406       -0.89126128712862
12
 energy: -16.986363503512 gnorm: 0.005984077011 xtb: 6.7.1 (41059b4)
C           -1.76316309122041        0.68407430602350       -0.00001802644914
C           -0.47460220355906       -0.11189437216026       -0.00006179891184
O           -0.44181507536324       -1.32390211679654       -0.00003395671240
N            0.64525824862075        0.65615029329329       -0.00007820186756
C            1.97532243027746        0.09566318608214       -0.00002812329325
H           -1.82080316937545        1.31674806597187        0.88542674544887
H           -1.81993386689084        1.31854935172545       -0.88422163960882
H           -2.60159620198470       -0.00661138779622       -0.00108521480354
H            0.54695664260870        1.65805768128428       -0.00007234633469
H            1.86802127471001       -0.98835646890043       -0.00070782206549
H            2.52751338671712        0.40482282825341        0.89098574528980
H            2.52799114292898        0.40593280765311       -0.89034969225531
12
 energy: -16.986411869591 gnorm: 0.001744808386 xtb: 6.7.1 (41059b4)
C           -1.76021017487241        0.68416203406947       -0.00001797364345
C           -0.47379950694678       -0.11568840736432       -0.00007292369207
O           -0.43713953180176       -1.32610967015493       -0.00006788662634
N            0.64116941725587        0.65383019915829       -0.00008261091856
C            1.97070971877903        0.09746064036333       -0.00002792411017
H           -1.81235109560017        1.31460374013274        0.88517817359268
H           -1.81148779887592        1.31638877876729       -0.88398276018683
H           -2.60243365278419       -0.00094402121389       -0.00107264683122
H            0.54592510035583        1.65635171857801       -0.00003520760684
H            1.86427358553202       -0.98589261219213       -0.00067542678055
H            2.52201349279229        0.40700705203648        0.89013693130273
H            2.52247996363552        0.40806472245327       -0.88952407606275
12
 energy: -16.986418681833 gnorm: 0.000668698030 xtb: 6.7.1 (41059b4)
C           -1.76038598129039        0.68419014224460       -0.00001764486582
C           -0.47456955005929       -0.11862530144171       -0.00009580556712
O           -0.43614347530442       -1.32910874697185       -0.00012117716630
N            0.63871093571860        0.65236339371141       -0.00008833622633
C            1.96945127655327        0.09860060140669       -0.00002405091108
H           -1.80851533090493        1.31392773079397        0.88545612725157
H           -1.80767647008042        1.31569198135023       -0.88427096200578
H           -2.60605602044767        0.00327229588688       -0.00105187321271
H            0.54675367197151        1.65534997070827        0.00001337837270
H            1.86588483254803       -0.98519178566354       -0.00062815771909
H            2.52062427529585        0.40888930851970        0.88994768211741
H            2.52107135346920        0.40987458408897       -0.88936351163082
12
 energy: -16.986419524333 gnorm: 0.000193276160 xtb: 6.7.1 (41059b4)
C           -1.76103106241763        0.68419529830821       -0.00001854948148
C           -0.47509873269161       -0.11872630333999       -0.00010553958899
O           -0.43710254588127       -1.32924729218726       -0.00015978243517
N            0.63879681645357        0.65219026347454       -0.00008580483028
C            1.97004502697052        0.09838894730879       -0.00002180823492
H           -1.80932397974967        1.31422102120364        0.88552897416427
H           -1.80850539322453        1.31597206870345       -0.88435424113608
H           -2.60663794903544        0.00322595207377       -0.00103943379010
H            0.54798943294197        1.65519250188406        0.00004897126656
H            1.86760559315303       -0.98563485667520       -0.00059638612476
H            2.52099153843032        0.40926055686248        0.89011446786984
H            2.52142077252008        0.41019601701714       -0.88955519924227
12
 energy: -16.986419594421 gnorm: 0.000077462891 xtb: 6.7.1 (41059b4)
C           -1.76102990464669        0.68419548632032       -0.00001848747215
C           -0.47515762773483       -0.11866110288045       -0.00012278020066
O           -0.43721375601195       -1.32910787833740       -0.00019776365032
N            0.63877671676028        0.65213437065319       -0.00008364160482
C            1.97005250269272        0.09831684186743       -0.00001790548338
H           -1.80950405490957        1.31427783358382        0.88546565049212
H           -1.80871034449318        1.31601250900456       -0.88430101582225
H           -2.60643700561733        0.00301432359089       -0.00102273876454
H            0.54850052616361        1.65515933345876        0.00008015838792
H            1.86771789544410       -0.98564090596495       -0.00056629435296
H            2.52087062602236        0.40932164735320        0.89009885126282
H            2.52128394379983        0.41021171598426       -0.88955836435514
