 Entering Gaussian System
 *********************************************
 Gaussian 98:
 frequency output generated by the xtb code
 *********************************************
                         Standard orientation:
 --------------------------------------------------------------------
  Center     Atomic     Atomic              Coordinates (Angstroms)
  Number     Number      Type              X           Y           Z
 --------------------------------------------------------------------
    1          6             0        0.589400    1.709254   -0.071730
    2          6             0        1.386073    0.409176   -0.243213
    3          1             0        1.645614    0.266644   -1.298114
    4          6             0        0.529302   -0.778294    0.219159
    5          1             0        0.319286   -0.686232    1.298228
    6          6             0       -0.802051   -0.749980   -0.535368
    7          1             0       -0.588599   -0.803953   -1.616603
    8          6             0       -1.480163    0.602292   -0.263097
    9          1             0       -2.399633    0.671283   -0.859166
   10          8             0       -0.664700    1.655603   -0.722437
   11          8             0       -1.740251    0.710598    1.099847
   12          8             0       -1.654376   -1.788968   -0.154974
   13          8             0        1.172126   -2.006573   -0.038215
   14          8             0        2.614824    0.437680    0.443378
   15          1             0        1.120485    2.550516   -0.519115
   16          1             0        0.447394    1.899071    1.003179
   17          1             0       -2.329951    1.457640    1.253161
   18          1             0       -1.108244   -2.580628   -0.063852
   19          1             0        2.118229   -1.875015    0.104925
   20          1             0        2.449272    0.640065    1.372881
 --------------------------------------------------------------------
     1 basis functions        1 primitive gaussians
     1 alpha electrons        1 beta electrons

 Harmonic frequencies (cm**-1), IR intensities (km*mol⁻¹),
 Raman scattering activities (A**4/amu), Raman depolarization ratios,
 reduced masses (AMU), force constants (mDyne/A) and normal coordinates:
                      1                      2                      3
                        a                      a                      a 
 Frequencies --    99.3598               108.0487               206.1499
 Red. masses --     6.3577                 5.1929                 4.9451
 Frc consts  --     0.0000                 0.0000                 0.0000
 IR Inten    --     2.7766                 1.5525                 4.5442
 Raman Activ --     0.0000                 0.0000                 0.0000
 Depolar     --     0.0000                 0.0000                 0.0000
 Atom AN      X      Y      Z        X      Y      Z        X      Y      Z
   1   6    -0.03   0.01  -0.21     0.02   0.04  -0.25     0.03  -0.08  -0.06
   2   6     0.02  -0.00   0.08    -0.04  -0.03  -0.05     0.11  -0.06   0.00
   3   1     0.10  -0.02   0.05     0.01  -0.06  -0.00     0.04  -0.04   0.01
   4   6     0.01  -0.08  -0.11    -0.09   0.05   0.07     0.07  -0.01   0.07
   5   1     0.03  -0.08  -0.02    -0.06   0.06   0.01     0.06  -0.01   0.03
   6   6    -0.06  -0.04   0.02     0.00   0.05  -0.10     0.04   0.10   0.14
   7   1    -0.05  -0.02   0.00     0.03   0.09  -0.03     0.02   0.10   0.04
   8   6     0.01  -0.02   0.05    -0.00  -0.00   0.15    -0.10   0.03   0.14
   9   1    -0.03  -0.01   0.07    -0.04   0.00   0.11    -0.01  -0.01   0.01
  10   8    -0.03  -0.11  -0.23    -0.13   0.01  -0.01    -0.02  -0.07   0.04
  11   8     0.34   0.13   0.11     0.42  -0.10   0.27    -0.32   0.36   0.09
  12   8    -0.05  -0.00   0.19     0.01  -0.09  -0.52     0.38  -0.27  -0.17
  13   8     0.01  -0.02  -0.47    -0.12  -0.02   0.40    -0.38  -0.20  -0.17
  14   8    -0.22   0.14   0.53    -0.09   0.05   0.02     0.13   0.20  -0.00
  15   1    -0.01  -0.02  -0.10    -0.00  -0.03  -0.15     0.00  -0.03  -0.04
  16   1    -0.01   0.06  -0.07     0.07   0.09  -0.08     0.03  -0.01  -0.02
  17   1     0.09   0.03   0.04     0.11  -0.04   0.13    -0.03   0.14  -0.05
  18   1    -0.03  -0.02  -0.01     0.02  -0.01  -0.10     0.17  -0.02  -0.11
  19   1    -0.01  -0.04  -0.03    -0.03  -0.00   0.12    -0.09  -0.18   0.04
  20   1    -0.15   0.04   0.12    -0.04   0.05  -0.01     0.03   0.11  -0.02
                      4                      5                      6
                        a                      a                      a 
 Frequencies --   225.0272               242.2628               260.4121
 Red. masses --     3.7268                 3.6640                 3.2920
 Frc consts  --     0.0000                 0.0000                 0.0000
 IR Inten    --     3.3759                 8.4367                 9.1008
 Raman Activ --     0.0000                 0.0000                 0.0000
 Depolar     --     0.0000                 0.0000                 0.0000
 Atom AN      X      Y      Z        X      Y      Z        X      Y      Z
   1   6    -0.18  -0.03   0.23     0.11   0.12  -0.16     0.18  -0.00  -0.32
   2   6    -0.16   0.02   0.13     0.02   0.06  -0.10     0.03  -0.12  -0.01
   3   1    -0.10   0.03   0.02     0.04   0.02  -0.02     0.03  -0.11   0.01
   4   6    -0.04  -0.07   0.12    -0.09   0.20  -0.15     0.08  -0.12   0.12
   5   1    -0.00  -0.06   0.04    -0.04   0.08  -0.05     0.05  -0.06   0.04
   6   6    -0.04  -0.06   0.10    -0.10   0.04  -0.06     0.04  -0.01   0.15
   7   1     0.01   0.04   0.03    -0.07   0.03  -0.03     0.03   0.04   0.04
   8   6    -0.02  -0.02   0.06    -0.09   0.04   0.05    -0.01  -0.02   0.14
   9   1    -0.02  -0.03   0.04    -0.02   0.05   0.01     0.02  -0.03  -0.01
  10   8     0.03  -0.17  -0.21    -0.03   0.03   0.06    -0.07   0.01   0.16
  11   8     0.15   0.50   0.06    -0.15   0.04   0.04    -0.40   0.07   0.09
  12   8    -0.06  -0.19  -0.25     0.33  -0.26   0.10    -0.27   0.12  -0.17
  13   8     0.31   0.13  -0.01     0.04   0.28   0.04     0.42   0.07  -0.08
  14   8    -0.03  -0.16  -0.14    -0.11  -0.53   0.16     0.01  -0.05   0.05
  15   1    -0.04   0.02   0.14    -0.00   0.02  -0.12     0.04  -0.07  -0.25
  16   1    -0.15  -0.06   0.06     0.09   0.09  -0.05     0.17   0.14  -0.10
  17   1     0.12   0.20  -0.04     0.01   0.05   0.01    -0.13   0.00  -0.04
  18   1    -0.02  -0.06  -0.12     0.19   0.02   0.10    -0.15  -0.04  -0.17
  19   1     0.09   0.15  -0.16     0.02   0.14  -0.09     0.10   0.09  -0.02
  20   1     0.05  -0.10  -0.01    -0.07  -0.28   0.06    -0.00   0.10  -0.01
                      7                      8                      9
                        a                      a                      a 
 Frequencies --   317.7101               324.3225               347.6740
 Red. masses --     1.1467                 1.2549                 2.0332
 Frc consts  --     0.0000                 0.0000                 0.0000
 IR Inten    --   136.2253                33.4941                73.9605
 Raman Activ --     0.0000                 0.0000                 0.0000
 Depolar     --     0.0000                 0.0000                 0.0000
 Atom AN      X      Y      Z        X      Y      Z        X      Y      Z
   1   6     0.05  -0.01  -0.00     0.02   0.04   0.07    -0.09  -0.17   0.05
   2   6    -0.01  -0.02  -0.04    -0.01   0.07  -0.00     0.12  -0.02  -0.31
   3   1     0.01  -0.01  -0.01    -0.02   0.01  -0.00     0.10   0.06  -0.08
   4   6    -0.01  -0.04  -0.04    -0.08   0.09  -0.01     0.16  -0.04  -0.32
   5   1    -0.01  -0.01  -0.01    -0.03   0.02  -0.00     0.04   0.07  -0.10
   6   6    -0.03  -0.06  -0.03    -0.06  -0.05  -0.01     0.02   0.03  -0.10
   7   1    -0.01  -0.03  -0.01    -0.02  -0.02  -0.00    -0.07   0.03  -0.05
   8   6     0.01  -0.03  -0.05    -0.01  -0.03  -0.00    -0.03   0.01   0.08
   9   1     0.01   0.02  -0.03    -0.00   0.01   0.00    -0.02  -0.03   0.03
  10   8    -0.04   0.09   0.18     0.07  -0.07  -0.02    -0.11   0.02   0.06
  11   8    -0.13  -0.13  -0.11     0.04  -0.01  -0.00    -0.06   0.22   0.09
  12   8    -0.05  -0.04   0.02    -0.01  -0.09   0.08     0.00   0.13   0.06
  13   8     0.06  -0.02   0.02     0.04   0.25  -0.16     0.20  -0.18   0.22
  14   8    -0.05   0.11   0.00     0.03  -0.25  -0.04    -0.10   0.11   0.07
  15   1     0.01  -0.01  -0.02    -0.02   0.03   0.04    -0.04   0.02   0.13
  16   1     0.07   0.01   0.01    -0.02  -0.01   0.02    -0.04  -0.19   0.04
  17   1     0.73   0.57   0.02    -0.00  -0.01   0.00    -0.06   0.02  -0.03
  18   1    -0.01  -0.01   0.05    -0.03  -0.08  -0.28    -0.06  -0.04  -0.24
  19   1     0.01  -0.01   0.07    -0.08  -0.10   0.74     0.02  -0.09   0.29
  20   1    -0.02   0.03  -0.00     0.07   0.35  -0.09    -0.17  -0.39   0.08
                     10                     11                     12
                        a                      a                      a 
 Frequencies --   354.8567               385.5882               398.9856
 Red. masses --     1.4568                 4.8840                 1.2512
 Frc consts  --     0.0000                 0.0000                 0.0000
 IR Inten    --    70.8278                15.9305               266.1524
 Raman Activ --     0.0000                 0.0000                 0.0000
 Depolar     --     0.0000                 0.0000                 0.0000
 Atom AN      X      Y      Z        X      Y      Z        X      Y      Z
   1   6     0.02  -0.15   0.06    -0.09   0.10  -0.04     0.04  -0.07   0.02
   2   6    -0.02  -0.09  -0.17    -0.31  -0.11   0.08    -0.04  -0.07  -0.06
   3   1     0.03  -0.02  -0.04    -0.13  -0.06   0.02     0.00  -0.02  -0.02
   4   6    -0.02  -0.11  -0.21     0.02  -0.22   0.19    -0.06  -0.01  -0.07
   5   1    -0.01   0.00  -0.06     0.01  -0.12   0.06    -0.05   0.01  -0.03
   6   6    -0.05  -0.02  -0.12     0.21   0.01   0.05    -0.07   0.02  -0.08
   7   1    -0.07   0.01  -0.04     0.10  -0.02   0.02    -0.06  -0.00  -0.03
   8   6     0.00   0.07   0.03     0.13   0.08  -0.11    -0.01   0.06  -0.04
   9   1     0.00   0.03   0.01     0.04  -0.05  -0.04     0.00   0.05  -0.01
  10   8     0.02   0.12   0.13    -0.20   0.44   0.11     0.05   0.11   0.06
  11   8     0.01   0.21   0.04     0.14   0.09  -0.14     0.06  -0.02  -0.06
  12   8     0.01  -0.10  -0.09     0.28   0.02   0.08     0.16  -0.03   0.25
  13   8     0.20  -0.09   0.08     0.09  -0.20  -0.10    -0.02  -0.05   0.18
  14   8    -0.18  -0.04   0.08    -0.30  -0.11  -0.12    -0.12  -0.03   0.06
  15   1     0.02  -0.01   0.09     0.05  -0.05  -0.07     0.03  -0.01   0.04
  16   1     0.01  -0.13   0.04     0.02   0.10  -0.02     0.02  -0.06   0.02
  17   1    -0.10  -0.02  -0.02    -0.05  -0.04  -0.05     0.02  -0.01   0.01
  18   1     0.11   0.11   0.52     0.08   0.00  -0.03    -0.02  -0.13  -0.64
  19   1     0.04   0.05   0.01     0.00  -0.10   0.18     0.04   0.14  -0.41
  20   1    -0.05   0.55  -0.10    -0.05  -0.12  -0.01    -0.02   0.39  -0.07
                     13                     14                     15
                        a                      a                      a 
 Frequencies --   421.9272               497.7519               517.5675
 Red. masses --     4.4042                 3.7253                 3.5208
 Frc consts  --     0.0000                 0.0000                 0.0000
 IR Inten    --    33.8290                26.7088                 3.1960
 Raman Activ --     0.0000                 0.0000                 0.0000
 Depolar     --     0.0000                 0.0000                 0.0000
 Atom AN      X      Y      Z        X      Y      Z        X      Y      Z
   1   6    -0.27  -0.15  -0.06    -0.09   0.38   0.03    -0.07  -0.04  -0.04
   2   6     0.09  -0.03   0.01     0.11   0.32   0.01     0.07  -0.10   0.37
   3   1     0.04  -0.01   0.01     0.05   0.18  -0.00     0.02  -0.04   0.10
   4   6     0.15   0.04   0.07     0.17   0.00  -0.17    -0.16  -0.16  -0.13
   5   1     0.06   0.01   0.02     0.06   0.04  -0.05    -0.20  -0.12  -0.06
   6   6     0.22   0.24   0.03     0.08  -0.22  -0.03    -0.21   0.07  -0.31
   7   1     0.09   0.09   0.01    -0.00  -0.09  -0.01    -0.14   0.02  -0.10
   8   6    -0.14  -0.03   0.02     0.08  -0.22  -0.02    -0.23   0.11  -0.07
   9   1    -0.07  -0.09   0.03     0.02  -0.12  -0.01    -0.09   0.07   0.02
  10   8    -0.32  -0.08  -0.20    -0.23   0.06   0.18    -0.20   0.10   0.01
  11   8    -0.05  -0.11   0.05     0.07   0.21  -0.07     0.05   0.07  -0.01
  12   8     0.18   0.45  -0.02    -0.19  -0.09  -0.02     0.06  -0.03   0.12
  13   8     0.01  -0.02   0.00    -0.12  -0.26   0.09     0.20  -0.12   0.04
  14   8     0.10  -0.38   0.09     0.16  -0.22   0.08     0.43   0.09  -0.01
  15   1    -0.10   0.01   0.05    -0.10   0.11  -0.09    -0.00  -0.08  -0.12
  16   1    -0.14  -0.10  -0.02     0.01   0.18  -0.00     0.00   0.12  -0.03
  17   1     0.14   0.09   0.05    -0.03   0.03  -0.12    -0.02  -0.02   0.04
  18   1     0.01   0.10   0.04    -0.11  -0.07  -0.02     0.07   0.03  -0.00
  19   1     0.01  -0.02  -0.06    -0.01  -0.11  -0.10     0.03   0.05   0.09
  20   1     0.07   0.20  -0.04     0.09   0.14  -0.01     0.23  -0.05   0.04
                     16                     17                     18
                        a                      a                      a 
 Frequencies --   543.8782               585.6468               733.5617
 Red. masses --     5.3518                 4.8604                 4.0152
 Frc consts  --     0.0000                 0.0000                 0.0000
 IR Inten    --    36.3850                22.4341                25.3248
 Raman Activ --     0.0000                 0.0000                 0.0000
 Depolar     --     0.0000                 0.0000                 0.0000
 Atom AN      X      Y      Z        X      Y      Z        X      Y      Z
   1   6    -0.02  -0.32  -0.05     0.06  -0.09   0.06    -0.06  -0.03  -0.14
   2   6     0.19  -0.16  -0.11    -0.12  -0.06   0.09     0.01  -0.09   0.05
   3   1     0.10  -0.12  -0.01    -0.07  -0.03   0.02     0.04  -0.09   0.03
   4   6    -0.00   0.16   0.18    -0.15   0.04  -0.05    -0.13  -0.02  -0.02
   5   1     0.05   0.08   0.06    -0.16  -0.01  -0.04    -0.16  -0.01  -0.03
   6   6    -0.01  -0.08   0.10     0.18  -0.04  -0.32     0.17  -0.23  -0.22
   7   1     0.08  -0.08   0.05     0.03  -0.01  -0.09     0.01  -0.10  -0.06
   8   6    -0.10  -0.09  -0.20     0.10  -0.33   0.03     0.44  -0.07   0.16
   9   1    -0.04  -0.06  -0.04     0.03  -0.12   0.00     0.10  -0.11   0.08
  10   8    -0.30   0.20   0.30     0.01  -0.39   0.32    -0.08   0.34  -0.23
  11   8     0.27   0.15  -0.23     0.04   0.22   0.00    -0.22  -0.01   0.31
  12   8    -0.12  -0.14  -0.03     0.17   0.34   0.05    -0.03  -0.06   0.05
  13   8    -0.10   0.32  -0.09    -0.12   0.17  -0.03    -0.13   0.19  -0.02
  14   8     0.18   0.03   0.10    -0.13   0.08  -0.08     0.13   0.01   0.03
  15   1    -0.04  -0.04   0.05    -0.02  -0.08  -0.13     0.07   0.04   0.16
  16   1     0.06  -0.20   0.01     0.12   0.10   0.01    -0.14  -0.17  -0.02
  17   1    -0.04  -0.04  -0.07    -0.04   0.05  -0.17    -0.01   0.07  -0.09
  18   1    -0.04  -0.04   0.00    -0.03   0.04   0.02    -0.08  -0.07   0.01
  19   1    -0.02   0.06  -0.04    -0.03   0.06  -0.02    -0.03   0.06  -0.03
  20   1    -0.01  -0.06   0.03    -0.01  -0.01  -0.01     0.06  -0.02   0.02
                     19                     20                     21
                        a                      a                      a 
 Frequencies --   898.7141               908.6190               961.5351
 Red. masses --     2.1931                 3.1424                 3.1225
 Frc consts  --     0.0000                 0.0000                 0.0000
 IR Inten    --    16.0825                18.5142                61.8244
 Raman Activ --     0.0000                 0.0000                 0.0000
 Depolar     --     0.0000                 0.0000                 0.0000
 Atom AN      X      Y      Z        X      Y      Z        X      Y      Z
   1   6     0.19   0.39  -0.12    -0.14   0.01  -0.09    -0.36  -0.09  -0.18
   2   6     0.12   0.05  -0.22    -0.01  -0.02  -0.00     0.03   0.11  -0.04
   3   1     0.03  -0.22  -0.03     0.04  -0.01   0.01     0.02  -0.03   0.00
   4   6    -0.28  -0.14   0.31    -0.20  -0.11  -0.19     0.02   0.02   0.17
   5   1    -0.14  -0.14   0.07    -0.05  -0.04  -0.04    -0.01  -0.02   0.04
   6   6    -0.07   0.01  -0.09    -0.20   0.27   0.36    -0.01  -0.05  -0.16
   7   1     0.05   0.01  -0.01    -0.20   0.24   0.06     0.07  -0.12  -0.02
   8   6    -0.14  -0.12  -0.01     0.44  -0.07   0.20     0.35   0.43  -0.16
   9   1    -0.04   0.01   0.01     0.16  -0.13  -0.03     0.11   0.33  -0.06
  10   8    -0.02  -0.09   0.06    -0.07  -0.08   0.09     0.03  -0.28   0.26
  11   8     0.02   0.02  -0.01     0.07  -0.09  -0.30    -0.05   0.03   0.08
  12   8     0.08   0.09   0.01    -0.00   0.01  -0.04    -0.02  -0.06   0.02
  13   8     0.09  -0.17  -0.06     0.00  -0.00   0.03     0.03  -0.05  -0.02
  14   8     0.07   0.02   0.04     0.09   0.02   0.03     0.01  -0.04   0.00
  15   1    -0.14   0.37   0.25    -0.08   0.04   0.01    -0.29   0.07  -0.10
  16   1    -0.02  -0.27   0.03    -0.05  -0.04  -0.02    -0.04  -0.04  -0.03
  17   1    -0.00   0.00  -0.02    -0.00  -0.01  -0.19    -0.00  -0.01   0.10
  18   1     0.04   0.04   0.00     0.15   0.10  -0.03     0.01  -0.00  -0.01
  19   1     0.00   0.06   0.01    -0.02   0.15   0.04     0.02  -0.06  -0.02
  20   1    -0.10  -0.02  -0.01     0.06  -0.01   0.02     0.00  -0.01   0.00
                     22                     23                     24
                        a                      a                      a 
 Frequencies --  1012.9468              1045.9251              1059.6938
 Red. masses --     2.6813                 2.2722                 5.7740
 Frc consts  --     0.0000                 0.0000                 0.0000
 IR Inten    --    28.2326                11.9456               233.3223
 Raman Activ --     0.0000                 0.0000                 0.0000
 Depolar     --     0.0000                 0.0000                 0.0000
 Atom AN      X      Y      Z        X      Y      Z        X      Y      Z
   1   6     0.11  -0.14  -0.33    -0.13   0.12   0.17     0.39  -0.03   0.17
   2   6    -0.03   0.24   0.37     0.06  -0.24  -0.13     0.11   0.03   0.10
   3   1     0.08  -0.09   0.14    -0.16  -0.15  -0.06     0.04   0.05   0.02
   4   6     0.22   0.24   0.03     0.28   0.14   0.30    -0.04   0.14   0.02
   5   1    -0.00  -0.02   0.00     0.03   0.05   0.07     0.04   0.04   0.01
   6   6    -0.07   0.08  -0.12    -0.22   0.16  -0.32    -0.19   0.13   0.04
   7   1    -0.12   0.09  -0.05    -0.18   0.10  -0.10     0.02  -0.09   0.03
   8   6    -0.06  -0.13   0.15     0.11  -0.12   0.16     0.29   0.06  -0.42
   9   1    -0.00   0.04   0.03    -0.00   0.02   0.09    -0.00  -0.12  -0.01
  10   8     0.07   0.04   0.10    -0.01   0.04  -0.07    -0.42  -0.15  -0.10
  11   8     0.03  -0.01  -0.11     0.01  -0.04  -0.06    -0.04  -0.01   0.29
  12   8    -0.09  -0.06   0.03    -0.13  -0.08   0.06    -0.06  -0.02  -0.01
  13   8     0.06  -0.07   0.01     0.06   0.06  -0.02     0.08  -0.10  -0.02
  14   8    -0.30  -0.04  -0.14     0.08  -0.02   0.04    -0.15   0.01  -0.08
  15   1     0.04   0.09   0.17     0.02  -0.06  -0.06     0.09  -0.01   0.03
  16   1    -0.05  -0.29  -0.04    -0.03   0.17   0.02     0.03  -0.01   0.02
  17   1    -0.01   0.00  -0.10    -0.01   0.02  -0.22    -0.01   0.02  -0.08
  18   1     0.03   0.02  -0.00     0.14   0.09  -0.03     0.19   0.13  -0.06
  19   1     0.05  -0.24  -0.04     0.06  -0.28  -0.06     0.02  -0.05  -0.01
  20   1     0.25  -0.03   0.03    -0.26   0.02  -0.05     0.02   0.01  -0.01
                     25                     26                     27
                        a                      a                      a 
 Frequencies --  1075.9401              1102.2336              1107.9533
 Red. masses --     3.4197                 2.9774                 3.1524
 Frc consts  --     0.0000                 0.0000                 0.0000
 IR Inten    --    58.2799                65.1695                 7.8378
 Raman Activ --     0.0000                 0.0000                 0.0000
 Depolar     --     0.0000                 0.0000                 0.0000
 Atom AN      X      Y      Z        X      Y      Z        X      Y      Z
   1   6    -0.13  -0.30  -0.11     0.04   0.18  -0.12     0.34  -0.18  -0.03
   2   6    -0.12   0.36  -0.16    -0.50  -0.21  -0.04    -0.24   0.32  -0.12
   3   1    -0.09   0.26  -0.07    -0.13  -0.13   0.00    -0.27   0.24  -0.10
   4   6    -0.22   0.10   0.21     0.17   0.04  -0.17     0.07  -0.16   0.13
   5   1     0.05   0.03   0.07     0.28   0.12  -0.00    -0.09  -0.10   0.02
   6   6    -0.22  -0.02  -0.02    -0.24  -0.21   0.08     0.10  -0.00  -0.12
   7   1     0.10  -0.09   0.03    -0.02  -0.12   0.02    -0.07   0.10  -0.05
   8   6    -0.01  -0.26  -0.07     0.02  -0.04  -0.11     0.07   0.22   0.22
   9   1    -0.02  -0.01   0.03     0.02   0.17  -0.04     0.00   0.04   0.06
  10   8     0.24   0.20   0.01    -0.03  -0.09   0.09    -0.31  -0.15  -0.04
  11   8    -0.00  -0.02   0.17     0.00   0.02   0.07     0.00   0.00  -0.23
  12   8     0.04   0.10  -0.02     0.14   0.19  -0.09    -0.01  -0.06   0.04
  13   8     0.10  -0.23  -0.07    -0.01   0.07   0.04    -0.05   0.07   0.02
  14   8     0.16  -0.02   0.11     0.24   0.03   0.18     0.20  -0.02   0.13
  15   1     0.07  -0.16  -0.07     0.13   0.06   0.14     0.17  -0.07   0.06
  16   1     0.02   0.01  -0.03    -0.08  -0.12  -0.01     0.01  -0.10  -0.02
  17   1    -0.01   0.03  -0.20    -0.01   0.00  -0.01     0.01  -0.02   0.09
  18   1     0.16   0.12  -0.05     0.06   0.06  -0.03    -0.08  -0.06   0.04
  19   1    -0.00   0.08   0.03     0.02  -0.10  -0.02     0.00  -0.06  -0.02
  20   1    -0.00  -0.01   0.02     0.17  -0.01   0.06    -0.10   0.01   0.00
                     28                     29                     30
                        a                      a                      a 
 Frequencies --  1130.3268              1144.0564              1165.2184
 Red. masses --     3.8308                 2.1341                 2.2303
 Frc consts  --     0.0000                 0.0000                 0.0000
 IR Inten    --   106.0553                46.7250               107.4111
 Raman Activ --     0.0000                 0.0000                 0.0000
 Depolar     --     0.0000                 0.0000                 0.0000
 Atom AN      X      Y      Z        X      Y      Z        X      Y      Z
   1   6     0.00  -0.00  -0.08     0.05   0.02   0.09     0.01   0.09   0.04
   2   6     0.08   0.10   0.02     0.23  -0.07   0.04    -0.26  -0.11  -0.14
   3   1     0.13   0.19   0.01     0.25   0.16   0.03     0.16   0.01   0.02
   4   6     0.27  -0.63   0.05    -0.12  -0.03   0.11    -0.07   0.02   0.01
   5   1     0.22  -0.16   0.06     0.26   0.13   0.07     0.24   0.17   0.03
   6   6    -0.13   0.10  -0.11    -0.21  -0.30  -0.08     0.27   0.39  -0.24
   7   1    -0.02   0.01  -0.03     0.14  -0.11   0.01     0.31   0.01   0.00
   8   6    -0.04  -0.11  -0.15     0.04   0.09   0.35    -0.03   0.05   0.09
   9   1    -0.03   0.03  -0.01    -0.03   0.31   0.17    -0.04  -0.01   0.08
  10   8     0.08   0.04   0.03    -0.19  -0.02  -0.07    -0.00  -0.09  -0.01
  11   8     0.00  -0.00   0.13     0.02  -0.03  -0.23     0.01  -0.03  -0.02
  12   8    -0.04   0.00   0.03     0.17   0.17  -0.05    -0.24  -0.27   0.16
  13   8    -0.21   0.37   0.12     0.01  -0.04  -0.03     0.00  -0.11  -0.04
  14   8    -0.08  -0.01  -0.05    -0.17   0.01  -0.10     0.03   0.03   0.09
  15   1    -0.06   0.05   0.00     0.12  -0.06   0.02     0.03   0.01   0.01
  16   1    -0.00  -0.03  -0.01    -0.09   0.09  -0.01     0.07  -0.03   0.03
  17   1    -0.01   0.02  -0.10    -0.01   0.00  -0.17     0.00   0.02  -0.15
  18   1     0.16   0.11  -0.04    -0.04  -0.01   0.01     0.04  -0.00  -0.01
  19   1    -0.04   0.09   0.02    -0.02   0.13   0.03    -0.04   0.21   0.05
  20   1     0.04  -0.01   0.00     0.09  -0.00   0.00     0.32  -0.02   0.08
                     31                     32                     33
                        a                      a                      a 
 Frequencies --  1185.3985              1210.0266              1221.0967
 Red. masses --     1.3677                 1.1894                 1.2159
 Frc consts  --     0.0000                 0.0000                 0.0000
 IR Inten    --    46.3810                21.6849                33.6100
 Raman Activ --     0.0000                 0.0000                 0.0000
 Depolar     --     0.0000                 0.0000                 0.0000
 Atom AN      X      Y      Z        X      Y      Z        X      Y      Z
   1   6    -0.00   0.07  -0.22    -0.08   0.10  -0.10     0.02  -0.02  -0.02
   2   6     0.15  -0.10   0.20     0.06  -0.08  -0.05     0.03  -0.01   0.09
   3   1    -0.27   0.11  -0.04     0.17   0.19  -0.00    -0.12  -0.02  -0.01
   4   6     0.01   0.06  -0.16    -0.07  -0.02   0.17    -0.01   0.00  -0.16
   5   1     0.01  -0.08  -0.03     0.04   0.20   0.04    -0.04  -0.08  -0.04
   6   6     0.12   0.19   0.05    -0.02  -0.02  -0.14     0.03  -0.04  -0.00
   7   1     0.17  -0.08   0.05    -0.06   0.14  -0.05     0.26  -0.51   0.08
   8   6    -0.07  -0.06  -0.06     0.05  -0.13  -0.01    -0.03   0.08   0.27
   9   1     0.02   0.27  -0.04     0.17  -0.20  -0.26    -0.05  -0.19   0.10
  10   8    -0.02  -0.07   0.17     0.01  -0.05   0.13     0.03   0.01  -0.01
  11   8     0.04  -0.02   0.07    -0.04   0.13  -0.06    -0.03   0.04  -0.18
  12   8    -0.07  -0.09   0.03    -0.07  -0.00   0.04    -0.16   0.03  -0.02
  13   8    -0.03  -0.05   0.01     0.03  -0.03  -0.05     0.00   0.06   0.04
  14   8     0.05  -0.01  -0.06    -0.03  -0.00  -0.02     0.03   0.00  -0.01
  15   1     0.26  -0.03   0.16     0.33  -0.11   0.13    -0.10   0.06  -0.01
  16   1    -0.40   0.05  -0.11    -0.25   0.08  -0.07     0.05  -0.04   0.01
  17   1    -0.00   0.03  -0.20     0.03  -0.06   0.57     0.01  -0.02   0.19
  18   1    -0.03  -0.03   0.01     0.14   0.10  -0.04     0.45   0.32  -0.15
  19   1    -0.04   0.20   0.05     0.00   0.01  -0.00     0.02  -0.09  -0.02
  20   1    -0.38   0.02  -0.09     0.04   0.00   0.00    -0.11   0.01  -0.02
                     34                     35                     36
                        a                      a                      a 
 Frequencies --  1237.3565              1258.7125              1287.0367
 Red. masses --     1.2064                 1.2612                 1.2572
 Frc consts  --     0.0000                 0.0000                 0.0000
 IR Inten    --    31.5628                35.2562                55.5676
 Raman Activ --     0.0000                 0.0000                 0.0000
 Depolar     --     0.0000                 0.0000                 0.0000
 Atom AN      X      Y      Z        X      Y      Z        X      Y      Z
   1   6     0.08  -0.09  -0.03    -0.13   0.02   0.13    -0.02   0.06  -0.06
   2   6     0.05   0.00   0.23     0.04   0.32  -0.13     0.02  -0.04  -0.05
   3   1    -0.31  -0.07  -0.01     0.06  -0.54   0.06    -0.05   0.04  -0.03
   4   6     0.04   0.11  -0.01     0.15   0.06  -0.03     0.21  -0.03   0.17
   5   1     0.51   0.03   0.09     0.05  -0.35   0.02    -0.20   0.25  -0.02
   6   6    -0.11  -0.07  -0.18     0.01  -0.01  -0.02     0.12  -0.03   0.07
   7   1    -0.08   0.12  -0.07    -0.06  -0.08  -0.01    -0.49  -0.29  -0.06
   8   6     0.09   0.01   0.02     0.03  -0.08   0.03    -0.04   0.19  -0.08
   9   1    -0.00  -0.25   0.01     0.08   0.16  -0.08    -0.21  -0.19   0.27
  10   8     0.03   0.07  -0.03    -0.08  -0.04  -0.05     0.08  -0.07   0.11
  11   8    -0.04   0.03  -0.04    -0.01   0.03  -0.01    -0.00  -0.04  -0.03
  12   8     0.04   0.00   0.02    -0.03   0.01  -0.01     0.01   0.03  -0.09
  13   8    -0.06  -0.14  -0.02    -0.09  -0.07   0.03    -0.06  -0.11  -0.09
  14   8     0.02   0.00  -0.02    -0.02  -0.02   0.00    -0.07   0.01   0.03
  15   1    -0.27   0.14  -0.05     0.33  -0.24   0.01     0.08  -0.01   0.05
  16   1     0.07  -0.06   0.01     0.11   0.02   0.05    -0.12   0.03  -0.03
  17   1     0.01  -0.02   0.20     0.00  -0.01   0.10    -0.00   0.01  -0.12
  18   1    -0.08  -0.06   0.03     0.08   0.06  -0.02     0.06   0.04  -0.03
  19   1    -0.08   0.40   0.10    -0.07   0.31   0.07    -0.07   0.34   0.07
  20   1    -0.18  -0.00  -0.03     0.03  -0.02   0.01     0.15  -0.01   0.04
                     37                     38                     39
                        a                      a                      a 
 Frequencies --  1287.9971              1321.8453              1329.0904
 Red. masses --     1.2931                 1.3721                 1.2203
 Frc consts  --     0.0000                 0.0000                 0.0000
 IR Inten    --    42.4209                10.5999                 4.1599
 Raman Activ --     0.0000                 0.0000                 0.0000
 Depolar     --     0.0000                 0.0000                 0.0000
 Atom AN      X      Y      Z        X      Y      Z        X      Y      Z
   1   6    -0.09   0.04  -0.05     0.17  -0.17   0.08    -0.17   0.09  -0.06
   2   6    -0.01   0.13  -0.05    -0.00   0.29   0.01    -0.06   0.09   0.21
   3   1     0.15  -0.18   0.05    -0.03  -0.44   0.06     0.12  -0.04   0.09
   4   6    -0.14  -0.02  -0.06    -0.16  -0.25  -0.06     0.04  -0.12  -0.03
   5   1     0.19  -0.18   0.04     0.10   0.48  -0.03    -0.10   0.39  -0.06
   6   6    -0.15   0.01  -0.05     0.16  -0.09   0.02     0.02  -0.10   0.05
   7   1     0.16   0.03   0.02    -0.04   0.10  -0.02     0.13   0.26   0.02
   8   6     0.03   0.27  -0.09    -0.10   0.04   0.03     0.09  -0.05  -0.14
   9   1    -0.23  -0.50   0.28     0.05   0.06  -0.10    -0.20   0.12   0.32
  10   8     0.13  -0.09   0.17    -0.01   0.04   0.02    -0.00  -0.04  -0.02
  11   8    -0.01  -0.04  -0.03     0.03  -0.03   0.03    -0.05   0.02  -0.04
  12   8     0.09  -0.01   0.01    -0.06   0.01   0.02    -0.05   0.00   0.04
  13   8     0.03   0.08   0.06     0.03   0.02  -0.03     0.00  -0.02  -0.05
  14   8     0.04  -0.02  -0.02     0.02  -0.00  -0.01     0.11  -0.03  -0.08
  15   1     0.22  -0.11   0.05    -0.13   0.03  -0.05     0.18  -0.07   0.08
  16   1    -0.20   0.07  -0.05    -0.35   0.20  -0.08     0.39  -0.19   0.09
  17   1    -0.00   0.01  -0.09     0.01   0.02  -0.10    -0.01  -0.01   0.08
  18   1    -0.17  -0.12   0.05     0.13   0.09  -0.04     0.09   0.07  -0.02
  19   1     0.04  -0.21  -0.05     0.03  -0.10  -0.04    -0.01   0.05   0.00
  20   1    -0.09   0.01  -0.03    -0.05  -0.01  -0.01    -0.34   0.02  -0.08
                     40                     41                     42
                        a                      a                      a 
 Frequencies --  1331.1863              1346.1785              1348.8216
 Red. masses --     1.2572                 1.3718                 1.6914
 Frc consts  --     0.0000                 0.0000                 0.0000
 IR Inten    --    39.2451                66.6347                49.7296
 Raman Activ --     0.0000                 0.0000                 0.0000
 Depolar     --     0.0000                 0.0000                 0.0000
 Atom AN      X      Y      Z        X      Y      Z        X      Y      Z
   1   6     0.14  -0.08   0.05     0.16  -0.09   0.05    -0.02   0.04  -0.03
   2   6    -0.03  -0.06  -0.13    -0.39  -0.01   0.05    -0.01  -0.08  -0.01
   3   1    -0.03  -0.02  -0.04     0.60   0.06   0.18     0.02   0.10  -0.01
   4   6     0.09   0.10  -0.03     0.13   0.13   0.05     0.05   0.16  -0.00
   5   1    -0.12  -0.21  -0.02    -0.06  -0.12   0.01    -0.03  -0.19   0.01
   6   6     0.02  -0.10   0.05     0.00   0.03  -0.01     0.14  -0.45  -0.01
   7   1     0.16   0.30   0.02    -0.11  -0.12  -0.01     0.05   0.45  -0.04
   8   6     0.14  -0.20  -0.15    -0.02  -0.02   0.05    -0.17   0.32   0.00
   9   1    -0.26   0.20   0.45     0.04  -0.00  -0.06     0.06  -0.15  -0.18
  10   8     0.04   0.08   0.05     0.00   0.03  -0.01     0.01  -0.05   0.02
  11   8    -0.09   0.07  -0.10     0.00  -0.00  -0.00     0.07  -0.08   0.09
  12   8    -0.08  -0.00   0.05     0.00   0.00  -0.02    -0.14   0.04   0.06
  13   8    -0.03  -0.01   0.01    -0.02  -0.07  -0.01    -0.04  -0.03  -0.00
  14   8    -0.05   0.02   0.05     0.19  -0.03  -0.11     0.00   0.00   0.00
  15   1    -0.17   0.06  -0.08    -0.18   0.07  -0.07     0.03  -0.01   0.00
  16   1    -0.33   0.15  -0.07    -0.18   0.06  -0.03     0.01  -0.04   0.00
  17   1    -0.00  -0.03   0.24     0.01   0.00   0.00    -0.00   0.03  -0.29
  18   1     0.11   0.08  -0.02    -0.01  -0.00   0.00     0.30   0.22  -0.09
  19   1    -0.02   0.07   0.02    -0.03   0.13   0.03    -0.03   0.10   0.02
  20   1     0.18  -0.01   0.05    -0.40   0.02  -0.11     0.01   0.00   0.00
                     43                     44                     45
                        a                      a                      a 
 Frequencies --  1358.4019              1452.7351              2841.1858
 Red. masses --     1.5115                 1.0869                 1.0675
 Frc consts  --     0.0000                 0.0000                 0.0000
 IR Inten    --    14.4614                 0.5689                27.3039
 Raman Activ --     0.0000                 0.0000                 0.0000
 Depolar     --     0.0000                 0.0000                 0.0000
 Atom AN      X      Y      Z        X      Y      Z        X      Y      Z
   1   6     0.04  -0.02   0.01    -0.06  -0.24  -0.11    -0.00   0.00   0.00
   2   6    -0.02   0.04  -0.02    -0.03  -0.01  -0.03    -0.00   0.00   0.01
   3   1    -0.06  -0.10  -0.01     0.02  -0.03   0.00    -0.00  -0.00  -0.00
   4   6     0.39  -0.07   0.02     0.01   0.02  -0.00    -0.02  -0.00   0.08
   5   1    -0.41   0.21  -0.11     0.00  -0.04   0.00     0.06  -0.02  -0.33
   6   6    -0.41   0.02  -0.05     0.00  -0.01   0.00     0.04  -0.03  -0.23
   7   1     0.48   0.05   0.09     0.00   0.01  -0.00    -0.17   0.05   0.89
   8   6     0.00   0.07   0.09     0.01   0.01  -0.01     0.01  -0.00  -0.01
   9   1     0.10  -0.20  -0.16    -0.00   0.00   0.00    -0.03   0.00  -0.02
  10   8     0.01   0.01   0.00    -0.03  -0.02  -0.01     0.00  -0.00   0.00
  11   8     0.03  -0.02   0.01     0.00   0.00   0.00    -0.00   0.00   0.00
  12   8     0.07   0.01   0.02    -0.00  -0.00   0.00     0.01   0.01  -0.01
  13   8    -0.05  -0.06  -0.05    -0.00  -0.00   0.00    -0.00   0.01   0.00
  14   8    -0.04  -0.00   0.01     0.01  -0.00   0.01     0.00   0.00   0.00
  15   1    -0.04   0.02  -0.01     0.00   0.30   0.60    -0.00  -0.00   0.00
  16   1    -0.08   0.04  -0.02     0.29   0.61  -0.07     0.00  -0.00  -0.02
  17   1     0.00   0.00  -0.03    -0.00  -0.00  -0.01     0.00  -0.00  -0.00
  18   1    -0.12  -0.08   0.05     0.00   0.00  -0.00    -0.00   0.00  -0.00
  19   1    -0.05   0.21   0.04    -0.00   0.01   0.00    -0.00   0.00  -0.00
  20   1     0.06  -0.00   0.02     0.01   0.00   0.00    -0.00  -0.00  -0.00
                     46                     47                     48
                        a                      a                      a 
 Frequencies --  2856.9851              2868.1219              2914.4581
 Red. masses --     1.0743                 1.0705                 1.0725
 Frc consts  --     0.0000                 0.0000                 0.0000
 IR Inten    --    60.3002                60.4960                50.8768
 Raman Activ --     0.0000                 0.0000                 0.0000
 Depolar     --     0.0000                 0.0000                 0.0000
 Atom AN      X      Y      Z        X      Y      Z        X      Y      Z
   1   6    -0.01   0.01   0.05     0.05  -0.03  -0.24    -0.00  -0.00   0.01
   2   6    -0.00   0.00   0.00    -0.00  -0.00   0.01     0.00  -0.00  -0.00
   3   1     0.01  -0.01  -0.04     0.02  -0.01  -0.08    -0.00   0.00   0.01
   4   6     0.04  -0.01  -0.23     0.01  -0.00  -0.05    -0.00   0.00   0.01
   5   1    -0.17   0.07   0.87    -0.03   0.01   0.17     0.00  -0.00  -0.02
   6   6     0.01  -0.01  -0.09     0.00  -0.00  -0.02     0.01  -0.00   0.01
   7   1    -0.06   0.02   0.32    -0.01   0.01   0.08     0.01  -0.00  -0.04
   8   6     0.01  -0.00  -0.00     0.01   0.00   0.00     0.22  -0.02   0.13
   9   1    -0.02   0.00  -0.01    -0.04   0.00  -0.03    -0.81   0.06  -0.52
  10   8     0.00   0.00   0.00    -0.01  -0.00  -0.01     0.01   0.01   0.00
  11   8     0.00  -0.00   0.00     0.00   0.00   0.00     0.00   0.00   0.01
  12   8     0.00   0.00  -0.00     0.00   0.00  -0.00    -0.00   0.00  -0.00
  13   8     0.01  -0.01  -0.01     0.00  -0.00  -0.00    -0.00   0.00  -0.00
  14   8    -0.00  -0.00   0.00     0.00   0.00   0.00    -0.00  -0.00  -0.00
  15   1     0.00   0.01   0.00    -0.01  -0.03  -0.02     0.01   0.01  -0.00
  16   1     0.03  -0.03  -0.19    -0.13   0.16   0.92     0.00  -0.01  -0.04
  17   1    -0.00   0.00   0.00    -0.00  -0.00  -0.00    -0.00  -0.01  -0.00
  18   1    -0.00   0.00  -0.00    -0.00   0.00  -0.00     0.00  -0.00   0.00
  19   1     0.00  -0.00  -0.00     0.00  -0.00  -0.00     0.00   0.00   0.00
  20   1     0.00   0.00   0.00     0.00  -0.00   0.00    -0.00   0.00   0.00
                     49                     50                     51
                        a                      a                      a 
 Frequencies --  2955.3200              2991.6676              3506.3811
 Red. masses --     1.0753                 1.0723                 1.0657
 Frc consts  --     0.0000                 0.0000                 0.0000
 IR Inten    --    34.4446                18.2401                35.1531
 Raman Activ --     0.0000                 0.0000                 0.0000
 Depolar     --     0.0000                 0.0000                 0.0000
 Atom AN      X      Y      Z        X      Y      Z        X      Y      Z
   1   6    -0.00  -0.02  -0.02    -0.12  -0.20   0.10    -0.00   0.00   0.00
   2   6     0.07  -0.03  -0.25    -0.01  -0.00   0.02     0.00  -0.00  -0.00
   3   1    -0.23   0.12   0.92     0.01  -0.01  -0.05    -0.00   0.00  -0.00
   4   6     0.01  -0.00  -0.02     0.00   0.00   0.00    -0.01   0.00   0.00
   5   1    -0.01   0.00   0.05     0.00   0.00  -0.01    -0.00  -0.00  -0.00
   6   6     0.00  -0.00  -0.01    -0.00   0.00  -0.00    -0.00   0.00  -0.00
   7   1    -0.00   0.00   0.02    -0.00  -0.00   0.00    -0.00   0.00   0.00
   8   6    -0.00  -0.00  -0.00    -0.00   0.00  -0.00    -0.00   0.00  -0.00
   9   1     0.00  -0.00   0.00     0.01  -0.00   0.01     0.00   0.00   0.00
  10   8    -0.00  -0.00   0.00    -0.01  -0.00  -0.00    -0.00  -0.00   0.00
  11   8     0.00   0.00   0.00     0.00  -0.00  -0.00    -0.00   0.00   0.00
  12   8     0.00  -0.00   0.00    -0.00   0.00  -0.00    -0.01   0.02  -0.00
  13   8    -0.00  -0.00   0.00    -0.00  -0.00  -0.00    -0.23  -0.03  -0.03
  14   8    -0.00  -0.00  -0.01     0.00   0.00   0.00     0.01  -0.01  -0.04
  15   1     0.03   0.04  -0.03     0.47   0.74  -0.41     0.00  -0.00   0.00
  16   1    -0.01   0.01   0.07    -0.02  -0.02   0.04    -0.00   0.00  -0.00
  17   1    -0.00  -0.00  -0.00    -0.00   0.00  -0.00     0.00  -0.00  -0.00
  18   1    -0.00   0.00  -0.00     0.00  -0.00   0.00     0.05  -0.07   0.01
  19   1     0.00   0.00  -0.00     0.00   0.00   0.00     0.94   0.12   0.14
  20   1     0.00  -0.00  -0.01    -0.00  -0.00   0.00    -0.02   0.03   0.15
                     52                     53                     54
                        a                      a                      a 
 Frequencies --  3512.3802              3514.4896              3541.5134
 Red. masses --     1.0657                 1.0652                 1.0655
 Frc consts  --     0.0000                 0.0000                 0.0000
 IR Inten    --    36.1302                 9.8643                21.1441
 Raman Activ --     0.0000                 0.0000                 0.0000
 Depolar     --     0.0000                 0.0000                 0.0000
 Atom AN      X      Y      Z        X      Y      Z        X      Y      Z
   1   6    -0.00  -0.00  -0.00    -0.00   0.00   0.00    -0.00   0.00  -0.00
   2   6    -0.00  -0.00  -0.00    -0.00  -0.00  -0.01    -0.00   0.00   0.00
   3   1    -0.00   0.00  -0.00    -0.01   0.00   0.00    -0.00  -0.00  -0.00
   4   6    -0.00   0.00   0.00     0.00  -0.00   0.00     0.00  -0.00  -0.00
   5   1     0.00  -0.00  -0.00    -0.00  -0.00   0.00     0.00   0.00   0.00
   6   6    -0.00  -0.01   0.00     0.00   0.00  -0.00     0.00  -0.00   0.00
   7   1     0.00   0.00  -0.00     0.00   0.00   0.00    -0.00   0.00  -0.00
   8   6     0.00  -0.00   0.00    -0.00   0.00   0.00    -0.00   0.00   0.00
   9   1    -0.00   0.00  -0.00     0.00  -0.00   0.00     0.00  -0.00   0.00
  10   8     0.00   0.00  -0.00     0.00  -0.00   0.00     0.00   0.00  -0.00
  11   8    -0.00   0.00   0.00     0.00  -0.00  -0.00    -0.15   0.19   0.04
  12   8     0.14  -0.20   0.02    -0.01   0.01  -0.00     0.00  -0.00  -0.00
  13   8    -0.02  -0.00  -0.00     0.04   0.01   0.01     0.00   0.00   0.00
  14   8     0.00  -0.00  -0.01     0.04  -0.05  -0.23     0.00  -0.00  -0.00
  15   1     0.00   0.00  -0.00     0.00   0.00  -0.00     0.00   0.00  -0.00
  16   1    -0.00   0.00   0.00    -0.00   0.00  -0.00    -0.00   0.00   0.00
  17   1     0.00  -0.00   0.00    -0.00   0.00   0.00     0.60  -0.75  -0.16
  18   1    -0.53   0.80  -0.10     0.03  -0.04   0.00     0.00  -0.00  -0.00
  19   1     0.08   0.01   0.01    -0.16  -0.02  -0.02    -0.00  -0.00  -0.00
  20   1    -0.01   0.01   0.06    -0.16   0.20   0.92    -0.00   0.00   0.00
