      -----------------------------------------------------------      
     |                   =====================                   |     
     |                           x T B                           |     
     |                   =====================                   |     
     |                         S. Grimme                         |     
     |          Mulliken Center for Theoretical Chemistry        |     
     |                    University of Bonn                     |     
      -----------------------------------------------------------      

   * xtb version 6.7.1 (41059b4) compiled by 'michael@archlinux' on 2025-03-24

   xtb is free software: you can redistribute it and/or modify it under
   the terms of the GNU Lesser General Public License as published by
   the Free Software Foundation, either version 3 of the License, or
   (at your option) any later version.
   
   xtb is distributed in the hope that it will be useful,
   but WITHOUT ANY WARRANTY; without even the implied warranty of
   MERCHANTABILITY or FITNESS FOR A PARTICULAR PURPOSE.  See the
   GNU Lesser General Public License for more details.
   
   Cite this work as:
   * C. Bannwarth, E. Caldeweyher, S. Ehlert, A. Hansen, P. Pracht,
     J. Seibert, S. Spicher, S. Grimme, WIREs Comput. Mol. Sci., 2020, 11,
     e01493. DOI: 10.1002/wcms.1493
   
   for GFN2-xTB:
   * C. Bannwarth, S. Ehlert and S. Grimme., J. Chem. Theory Comput., 2019,
     15, 1652-1671. DOI: 10.1021/acs.jctc.8b01176
   for GFN1-xTB:
   * S. Grimme, C. Bannwarth, P. Shushkov, J. Chem. Theory Comput., 2017,
     13, 1989-2009. DOI: 10.1021/acs.jctc.7b00118
   for GFN0-xTB:
   * P. Pracht, E. Caldeweyher, S. Ehlert, S. Grimme, ChemRxiv, 2019, preprint.
     DOI: 10.26434/chemrxiv.8326202.v1
   for GFN-FF:
   * S. Spicher and S. Grimme, Angew. Chem. Int. Ed., 2020, 59, 15665-15673.
     DOI: 10.1002/anie.202004239
   
   for ALPB and GBSA implicit solvation:
   * S. Ehlert, M. Stahn, S. Spicher, S. Grimme, J. Chem. Theory Comput.,
     2021, 17, 4250-4261. DOI: 10.1021/acs.jctc.1c00471
   
   for ddCOSMO and CPCM-X implicit solvation:
   * M. Stahn, S. Ehlert, S. Grimme, J. Phys. Chem. A,
     2023, XX, XXXX-XXXX. DOI: 10.1021/acs.jpca.3c04382
   
   for DFT-D4:
   * E. Caldeweyher, C. Bannwarth and S. Grimme, J. Chem. Phys., 2017,
     147, 034112. DOI: 10.1063/1.4993215
   * E. Caldeweyher, S. Ehlert, A. Hansen, H. Neugebauer, S. Spicher,
     C. Bannwarth and S. Grimme, J. Chem. Phys., 2019, 150, 154122.
     DOI: 10.1063/1.5090222
   * E. Caldeweyher, J.-M. Mewes, S. Ehlert and S. Grimme, Phys. Chem. Chem. Phys.
     2020, 22, 8499-8512. DOI: 10.1039/D0CP00502A
   
   for sTDA-xTB:
   * S. Grimme and C. Bannwarth, J. Chem. Phys., 2016, 145, 054103.
     DOI: 10.1063/1.4959605
   
   in the mass-spec context:
   * V. Asgeirsson, C. Bauer and S. Grimme, Chem. Sci., 2017, 8, 4879.
     DOI: 10.1039/c7sc00601b
   * J. Koopman and S. Grimme, ACS Omega 2019, 4, 12, 15120-15133.
     DOI: 10.1021/acsomega.9b02011
   
   for metadynamics refer to:
   * S. Grimme, J. Chem. Theory Comput., 2019, 155, 2847-2862
     DOI: 10.1021/acs.jctc.9b00143
   
   for SPH calculations refer to:
   * S. Spicher and S. Grimme, J. Chem. Theory Comput., 2021, 17, 1701-1714
     DOI: 10.1021/acs.jctc.0c01306
   
   for ONIOM refer to:
   * C. Plett, A. Katbashev, S. Ehlert, S. Grimme, M. Bursch,
     Phys. Chem. Chem. Phys., 2023, 25, 17860-17868. DOI: 10.1039/D3CP02178E
   
   for DIPRO refer to:
   * J. Kohn, N. Gildemeister, S. Grimme, D. Fazzi, A. Hansen,
     J. Chem. Phys., 2023, just accepted.
   
   for PTB refer to:
   * S. Grimme, M. Mueller, A. Hansen, J. Chem. Phys., 2023, 158, 124111.
     DOI: 10.1063/5.0137838
   
   with help from (in alphabetical order)
   P. Atkinson, C. Bannwarth, F. Bohle, G. Brandenburg, E. Caldeweyher
   M. Checinski, S. Dohm, S. Ehlert, S. Ehrlich, I. Gerasimov, C. Hölzer
   A. Katbashev, J. Kohn, J. Koopman, C. Lavigne, S. Lehtola, F. März, M. Müller,
   F. Musil, H. Neugebauer, J. Pisarek, C. Plett, P. Pracht, F. Pultar,
   J. Seibert, P. Shushkov, S. Spicher, M. Stahn, M. Steiner, T. Strunk,
   J. Stückrath, T. Rose, and J. Unsleber
   
 * started run on 2025/04/09 at 02:30:15.398     
   ID    Z sym.   atoms
    1    6 C      1, 2, 4, 6, 8
    2    1 H      3, 5, 7, 9, 15-20
    3    8 O      10-14

           -------------------------------------------------
          |                Calculation Setup                |
           -------------------------------------------------

          program call               : /usr/bin/xtb xtb_rrho.coord --gfn2 --bhess vtight --chrg 0 --enso --norestart -I rrho-xcontrol-inp --parallel 1
          coordinate file            : xtb_rrho.coord
          omp threads                :                     1


           -------------------------------------------------
          |                 G F N 2 - x T B                 |
           -------------------------------------------------

        Reference                      10.1021/acs.jctc.8b01176
      * Hamiltonian:
        H0-scaling (s, p, d)           1.850000    2.230000    2.230000
        zeta-weighting                 0.500000
      * Dispersion:
        s8                             2.700000
        a1                             0.520000
        a2                             5.000000
        s9                             5.000000
      * Repulsion:
        kExp                           1.500000    1.000000
        rExp                           1.000000
      * Coulomb:
        alpha                          2.000000
        third order                    shell-resolved
        anisotropic                    true
        a3                             3.000000
        a5                             4.000000
        cn-shift                       1.200000
        cn-exp                         4.000000
        max-rad                        5.000000


          ...................................................
          :                      SETUP                      :
          :.................................................:
          :  # basis functions                  50          :
          :  # atomic orbitals                  50          :
          :  # shells                           30          :
          :  # electrons                        60          :
          :  max. iterations                   250          :
          :  Hamiltonian                  GFN2-xTB          :
          :  restarted?                      false          :
          :  GBSA solvation                  false          :
          :  PC potential                    false          :
          :  electronic temp.          300.0000000     K    :
          :  accuracy                    1.0000000          :
          :  -> integral cutoff          0.2500000E+02      :
          :  -> integral neglect         0.1000000E-07      :
          :  -> SCF convergence          0.1000000E-05 Eh   :
          :  -> wf. convergence          0.1000000E-03 e    :
          :  Broyden damping             0.4000000          :
          :  net charge                          0          :
          :  unpaired electrons                  0          :
          ...................................................

 iter      E             dE          RMSdq      gap      omega  full diag
   1    -36.3489610 -0.363490E+02  0.463E+00   10.26       0.0  T
   2    -36.3814987 -0.325376E-01  0.253E+00   10.05       1.0  T
   3    -36.3823627 -0.864055E-03  0.760E-01   10.17       1.0  T
   4    -36.3833432 -0.980491E-03  0.143E-01   10.15       1.0  T
   5    -36.3833987 -0.555411E-04  0.581E-02   10.17       1.0  T
   6    -36.3834088 -0.100356E-04  0.195E-02   10.17       1.1  T
   7    -36.3834093 -0.515204E-06  0.638E-03   10.17       3.5  T
   8    -36.3834097 -0.364334E-06  0.167E-03   10.17      13.4  T
   9    -36.3834097 -0.149039E-08  0.676E-04   10.17      33.1  T
  10    -36.3834097 -0.228476E-08  0.293E-04   10.17      76.3  T

   *** convergence criteria satisfied after 10 iterations ***

         #    Occupation            Energy/Eh            Energy/eV
      -------------------------------------------------------------
         1        2.0000           -0.7243031             -19.7093
       ...           ...                  ...                  ...
        24        2.0000           -0.4831657             -13.1476
        25        2.0000           -0.4594610             -12.5026
        26        2.0000           -0.4542392             -12.3605
        27        2.0000           -0.4454736             -12.1220
        28        2.0000           -0.4319311             -11.7534
        29        2.0000           -0.4186341             -11.3916
        30        2.0000           -0.4166335             -11.3372 (HOMO)
        31                         -0.0428154              -1.1651 (LUMO)
        32                          0.0046717               0.1271
        33                          0.0135797               0.3695
        34                          0.0329853               0.8976
        35                          0.0423321               1.1519
       ...                                ...                  ...
        50                          0.2746187               7.4728
      -------------------------------------------------------------
                  HL-Gap            0.3738181 Eh           10.1721 eV
             Fermi-level           -0.2297244 Eh           -6.2511 eV

 SCC (total)                   0 d,  0 h,  0 min,  0.016 sec
 SCC setup                      ...        0 min,  0.000 sec (  0.643%)
 Dispersion                     ...        0 min,  0.000 sec (  0.822%)
 classical contributions        ...        0 min,  0.000 sec (  0.226%)
 integral evaluation            ...        0 min,  0.003 sec ( 17.453%)
 iterations                     ...        0 min,  0.006 sec ( 41.076%)
 molecular gradient             ...        0 min,  0.006 sec ( 39.074%)
 printout                       ...        0 min,  0.000 sec (  0.646%)

         :::::::::::::::::::::::::::::::::::::::::::::::::::::
         ::                     SUMMARY                     ::
         :::::::::::::::::::::::::::::::::::::::::::::::::::::
         :: total energy             -36.131787938921 Eh    ::
         :: gradient norm              0.040916378948 Eh/a0 ::
         :: HOMO-LUMO gap             10.172108619520 eV    ::
         ::.................................................::
         :: SCC energy               -36.383327564301 Eh    ::
         :: -> isotropic ES            0.115430523518 Eh    ::
         :: -> anisotropic ES         -0.001352105136 Eh    ::
         :: -> anisotropic XC         -0.007132004016 Eh    ::
         :: -> dispersion             -0.014850804718 Eh    ::
         :: repulsion energy           0.251539625380 Eh    ::
         :: add. restraining           0.000000000000 Eh    ::
         :: total charge              -0.000000000000 e     ::
         :::::::::::::::::::::::::::::::::::::::::::::::::::::

metadynamics with 1 initial structures loaded
           -------------------------------------------------
          |           Optimal kpush determination           |
           -------------------------------------------------
      ----------------------------------------------------------- 
     |                   =====================                   |
     |                        A N C O P T                        |
     |                   =====================                   |
     |               Approximate Normal Coordinate               |
     |                Rational Function Optimizer                |
      ----------------------------------------------------------- 
target rmsd / Å         0.100000
unbiased initial rmsd   0.053042

iter. min.        max.        rmsd       kpush
final kpush: -0.000000
           -------------------------------------------------
          |            Biased Numerical Hessian             |
           -------------------------------------------------
kpush                :  -0.00000
alpha                :   1.00000
step length          :   0.00500
SCC accuracy         :   0.30000
Hessian scale factor :   1.00000
frozen atoms in %    :   0.00000    0
RMS gradient         :   0.00012
estimated CPU  time      0.02 min
estimated wall time      0.02 min

writing file <hessian>, containing the non-mass-weighted Hessian matrix in atomic units (Eₕ/Bohr²).

writing file <hessian_sph>.

 projected vibrational frequencies (cm⁻¹)
eigval :       -0.00    -0.00    -0.00     0.00     0.00     0.00
eigval :       99.36   108.05   206.15   225.03   242.26   260.41
eigval :      317.71   324.32   347.67   354.86   385.59   398.99
eigval :      421.93   497.75   517.57   543.88   585.65   733.56
eigval :      898.71   908.62   961.54  1012.95  1045.93  1059.69
eigval :     1075.94  1102.23  1107.95  1130.33  1144.06  1165.22
eigval :     1185.40  1210.03  1221.10  1237.36  1258.71  1287.04
eigval :     1288.00  1321.85  1329.09  1331.19  1346.18  1348.82
eigval :     1358.40  1452.74  2841.19  2856.99  2868.12  2914.46
eigval :     2955.32  2991.67  3506.38  3512.38  3514.49  3541.51
           -------------------------------------------------
          |                Property Printout                |
           -------------------------------------------------

    * Orbital Energies and Occupations

         #    Occupation            Energy/Eh            Energy/eV
      -------------------------------------------------------------
         1        2.0000           -0.7271518             -19.7868
       ...           ...                  ...                  ...
        18        2.0000           -0.5430790             -14.7779
        19        2.0000           -0.5335374             -14.5183
        20        2.0000           -0.5231034             -14.2344
        21        2.0000           -0.5051494             -13.7458
        22        2.0000           -0.5003177             -13.6143
        23        2.0000           -0.4922538             -13.3949
        24        2.0000           -0.4841507             -13.1744
        25        2.0000           -0.4585153             -12.4768
        26        2.0000           -0.4518245             -12.2948
        27        2.0000           -0.4405784             -11.9887
        28        2.0000           -0.4317255             -11.7478
        29        2.0000           -0.4150586             -11.2943
        30        2.0000           -0.4140920             -11.2680 (HOMO)
        31                         -0.0205107              -0.5581 (LUMO)
        32                          0.0153515               0.4177
        33                          0.0295754               0.8048
        34                          0.0421339               1.1465
        35                          0.0546657               1.4875
        36                          0.0671471               1.8272
        37                          0.0849470               2.3115
        38                          0.1047196               2.8496
        39                          0.1131819               3.0798
        40                          0.1343944               3.6571
        41                          0.1456064               3.9622
       ...                                ...                  ...
        50                          0.2850944               7.7578
      -------------------------------------------------------------
                  HL-Gap            0.3935812 Eh           10.7099 eV
             Fermi-level           -0.2173013 Eh           -5.9131 eV

     #   Z          covCN         q      C6AA      α(0)
     1   6          3.705     0.062    19.678     6.342
     2   6          3.727     0.084    19.276     6.268
     3   1          0.924     0.061     2.185     2.312
     4   6          3.731     0.093    19.130     6.243
     5   1          0.923     0.039     2.462     2.454
     6   6          3.729     0.103    18.983     6.220
     7   1          0.923     0.029     2.606     2.524
     8   6          3.634     0.238    17.249     5.977
     9   1          0.923     0.044     2.402     2.424
    10   8          1.700    -0.337    19.647     5.984
    11   8          1.657    -0.436    21.551     6.267
    12   8          1.657    -0.430    21.441     6.251
    13   8          1.656    -0.453    21.898     6.317
    14   8          1.655    -0.441    21.656     6.282
    15   1          0.924     0.069     2.099     2.266
    16   1          0.923     0.039     2.467     2.456
    17   1          0.805     0.311     0.690     1.305
    18   1          0.805     0.321     0.661     1.277
    19   1          0.805     0.310     0.693     1.307
    20   1          0.805     0.295     0.737     1.348

 Mol. C6AA /au·bohr⁶  :       3267.739192
 Mol. C8AA /au·bohr⁸  :      69356.469695
 Mol. α(0) /au        :         81.825668


Wiberg/Mayer (AO) data.
largest (>0.10) Wiberg bond orders for each atom

 ---------------------------------------------------------------------------
     #   Z sym  total        # sym  WBO       # sym  WBO       # sym  WBO
 ---------------------------------------------------------------------------
     1   6      3.949 --    10      0.980     2      0.975    15      0.969
                            16      0.965
     2   6      3.955 --    14      0.996     1      0.975     4      0.967
                             3      0.959
     3   1      0.996 --     2      0.959
     4   6      3.959 --    13      0.993     6      0.971     2      0.967
                             5      0.953
     5   1      0.998 --     4      0.953
     6   6      3.969 --    12      1.011     4      0.971     8      0.959
                             7      0.955
     7   1      0.999 --     6      0.955
     8   6      3.933 --    11      1.006    10      0.966     6      0.959
                             9      0.952
     9   1      0.998 --     8      0.952
    10   8      2.080 --     1      0.980     8      0.966
    11   8      1.987 --     8      1.006    17      0.888
    12   8      1.965 --     6      1.011    18      0.878
    13   8      1.952 --     4      0.993    19      0.883
    14   8      1.974 --     2      0.996    20      0.894
    15   1      0.995 --     1      0.969
    16   1      0.999 --     1      0.965
    17   1      0.904 --    11      0.888
    18   1      0.897 --    12      0.878
    19   1      0.904 --    13      0.883
    20   1      0.913 --    14      0.894
 ---------------------------------------------------------------------------

Topologies differ in total number of bonds
Writing topology from bond orders to xtbtopo.mol

molecular dipole:
                 x           y           z       tot (Debye)
 q only:        0.308       0.433       0.429
   full:        0.420       0.665       0.581       2.485
molecular quadrupole (traceless):
                xx          xy          yy          xz          yz          zz
 q only:       -1.259      -3.184       0.597       1.838       2.955       0.662
  q+dip:       -3.225      -5.690      -0.105       2.285       4.163       3.330
   full:       -2.494      -5.645       0.205       2.601       4.129       2.288

           -------------------------------------------------
          |                Geometry Summary                 |
           -------------------------------------------------

      molecular mass/u    :      150.1301116
   center of mass at/Å    :        0.0000160       0.0000521      -0.0001231
  moments of inertia/u·Å² :        0.2989808E+03   0.3714790E+03   0.5740918E+03
rotational constants/cm⁻¹ :        0.5638366E-01   0.4537977E-01   0.2936400E-01

 * 20 selected distances

     #   Z          #   Z                                           value/Å
     1   6          2   6                                         1.5343708
     2   6          3   1                                         1.0956704
     2   6          4   6                                         1.5355553
     4   6          5   1                                         1.1031651
     4   6          6   6                                         1.5305597
     6   6          7   1                                         1.1034247
     6   6          8   6                                         1.5370771 (max)
     8   6          9   1                                         1.0979446
     1   6         10   8                                         1.4138833
     8   6         10   8                                         1.4090553
     8   6         11   8                                         1.3917592
     6   6         12   8                                         1.3966578
     4   6         13   8                                         1.4100121
     2   6         14   8                                         1.4078535
     1   6         15   1                                         1.0908378
     1   6         16   1                                         1.1007379
    11   8         17   1                                         0.9640136 (min)
    12   8         18   1                                         0.9660688
    13   8         19   1                                         0.9658715
    14   8         20   1                                         0.9655784

 * 4 distinct bonds (by element types)

   Z      Z             #   av. dist./Å        max./Å        min./Å
   1 H    6 C           6     1.0986301     1.1034247     1.0908378
   6 C    6 C           4     1.5343907     1.5370771     1.5305597
   1 H    8 O           4     0.9653831     0.9660688     0.9640136
   6 C    8 O           6     1.4048702     1.4138833     1.3917592

           -------------------------------------------------
          |               Frequency Printout                |
           -------------------------------------------------
 projected vibrational frequencies (cm⁻¹)
eigval :       -0.00    -0.00    -0.00     0.00     0.00     0.00
eigval :       99.36   108.05   206.15   225.03   242.26   260.41
eigval :      317.71   324.32   347.67   354.86   385.59   398.99
eigval :      421.93   497.75   517.57   543.88   585.65   733.56
eigval :      898.71   908.62   961.54  1012.95  1045.93  1059.69
eigval :     1075.94  1102.23  1107.95  1130.33  1144.06  1165.22
eigval :     1185.40  1210.03  1221.10  1237.36  1258.71  1287.04
eigval :     1288.00  1321.85  1329.09  1331.19  1346.18  1348.82
eigval :     1358.40  1452.74  2841.19  2856.99  2868.12  2914.46
eigval :     2955.32  2991.67  3506.38  3512.38  3514.49  3541.51
 reduced masses (amu)
    1:      7.57    2:      6.63    3:      7.12    4:      6.98    5:      6.08    6:      6.10
    7:      6.36    8:      5.19    9:      4.95   10:      3.73   11:      3.66   12:      3.29
   13:      1.15   14:      1.25   15:      2.03   16:      1.46   17:      4.88   18:      1.25
   19:      4.40   20:      3.73   21:      3.52   22:      5.35   23:      4.86   24:      4.02
   25:      2.19   26:      3.14   27:      3.12   28:      2.68   29:      2.27   30:      5.77
   31:      3.42   32:      2.98   33:      3.15   34:      3.83   35:      2.13   36:      2.23
   37:      1.37   38:      1.19   39:      1.22   40:      1.21   41:      1.26   42:      1.26
   43:      1.29   44:      1.37   45:      1.22   46:      1.26   47:      1.37   48:      1.69
   49:      1.51   50:      1.09   51:      1.07   52:      1.07   53:      1.07   54:      1.07
   55:      1.08   56:      1.07   57:      1.07   58:      1.07   59:      1.07   60:      1.07
 IR intensities (km·mol⁻¹)
    1:      0.00    2:      0.39    3:      0.20    4:      0.22    5:      0.20    6:      0.34
    7:      2.78    8:      1.55    9:      4.54   10:      3.38   11:      8.44   12:      9.10
   13:    136.23   14:     33.49   15:     73.96   16:     70.83   17:     15.93   18:    266.15
   19:     33.83   20:     26.71   21:      3.20   22:     36.38   23:     22.43   24:     25.32
   25:     16.08   26:     18.51   27:     61.82   28:     28.23   29:     11.95   30:    233.32
   31:     58.28   32:     65.17   33:      7.84   34:    106.06   35:     46.72   36:    107.41
   37:     46.38   38:     21.68   39:     33.61   40:     31.56   41:     35.26   42:     55.57
   43:     42.42   44:     10.60   45:      4.16   46:     39.25   47:     66.63   48:     49.73
   49:     14.46   50:      0.57   51:     27.30   52:     60.30   53:     60.50   54:     50.88
   55:     34.44   56:     18.24   57:     35.15   58:     36.13   59:      9.86   60:     21.14
Molecule has no symmetry elements
It seems to be the C1 point group
 Raman intensities (Ä⁴*amu⁻¹)
    1:      0.00    2:      0.00    3:      0.00    4:      0.00    5:      0.00    6:      0.00
    7:      0.00    8:      0.00    9:      0.00   10:      0.00   11:      0.00   12:      0.00
   13:      0.00   14:      0.00   15:      0.00   16:      0.00   17:      0.00   18:      0.00
   19:      0.00   20:      0.00   21:      0.00   22:      0.00   23:      0.00   24:      0.00
   25:      0.00   26:      0.00   27:      0.00   28:      0.00   29:      0.00   30:      0.00
   31:      0.00   32:      0.00   33:      0.00   34:      0.00   35:      0.00   36:      0.00
   37:      0.00   38:      0.00   39:      0.00   40:      0.00   41:      0.00   42:      0.00
   43:      0.00   44:      0.00   45:      0.00   46:      0.00   47:      0.00   48:      0.00
   49:      0.00   50:      0.00   51:      0.00   52:      0.00   53:      0.00   54:      0.00
   55:      0.00   56:      0.00   57:      0.00   58:      0.00   59:      0.00   60:      0.00
 output can be read by thermo (or use thermo option).
 writing <g98.out> molden fake output.
 recommended (thermochemical) frequency scaling factor: 1.0
           -------------------------------------------------
          |             Thermodynamic Functions             |
           -------------------------------------------------

c1  symmetry found (for desy threshold:  0.10E+00) used in thermo

          ...................................................
          :                      SETUP                      :
          :.................................................:
          :  # frequencies                          54      :
          :  # imaginary freq.                       0      :
          :  linear?                             false      :
          :  only rotor calc.                    false      :
          :  symmetry                               c1      :
          :  rotational number                       1      :
          :  scaling factor                  1.0000000      :
          :  rotor cutoff                    0.0000000 cm⁻¹ :
          :  imag. cutoff                 -100.0000000 cm⁻¹ :
          :.................................................:

    mode    ω/cm⁻¹     T·S(HO)/kcal·mol⁻¹    T·S(FR)/kcal·mol⁻¹   T·S(vib)
   ------------------------------------------------------------------------
       1     99.36    -1.03364 (100.00%)    -0.85299 (  0.00%)    -1.03364
       2    108.05    -0.98499 (100.00%)    -0.82817 (  0.00%)    -0.98499
       3    206.15    -0.61941 (100.00%)    -0.63684 (  0.00%)    -0.61941
       4    225.03    -0.57193 (100.00%)    -0.61089 (  0.00%)    -0.57193
       5    242.26    -0.53255 (100.00%)    -0.58903 (  0.00%)    -0.53255
       6    260.41    -0.49463 (100.00%)    -0.56763 (  0.00%)    -0.49463
   ------------------------------------------------------------------------

   temp. (K)  partition function   enthalpy   heat capacity  entropy
                                   cal/mol     cal/K/mol   cal/K/mol   J/K/mol
 298.15  VIB   191.                 4628.082     33.439     25.963
         ROT  0.610E+06              888.727      2.981     29.453
         INT  0.117E+09             5516.810     36.419     55.415
         TR   0.563E+26             1481.212      4.968     40.929
         TOT                        6998.0222    41.3874    96.3447   403.1061

       T/K    H(0)-H(T)+PV         H(T)/Eh          T*S/Eh         G(T)/Eh
   ------------------------------------------------------------------------
    298.15    0.111521E-01    0.168032E+00    0.457765E-01    0.122255E+00
   ------------------------------------------------------------------------

         :::::::::::::::::::::::::::::::::::::::::::::::::::::
         ::                  THERMODYNAMIC                  ::
         :::::::::::::::::::::::::::::::::::::::::::::::::::::
         :: total free energy         -36.011879167693 Eh   ::
         ::.................................................::
         :: total energy              -36.134134582696 Eh   ::
         :: zero point energy           0.156879817653 Eh   ::
         :: G(RRHO) w/o ZPVE           -0.034624402650 Eh   ::
         :: G(RRHO) contrib.            0.122255415003 Eh   ::
         :::::::::::::::::::::::::::::::::::::::::::::::::::::

optimized geometry written to: xtbopt.coord


           -------------------------------------------------
          | TOTAL ENERGY              -36.134134582696 Eh   |
          | TOTAL ENTHALPY            -35.966102706768 Eh   |
          | TOTAL FREE ENERGY         -36.011879167693 Eh   |
          | GRADIENT NORM               0.000120368487 Eh/α |
          | HOMO-LUMO GAP              10.709890190068 eV   |
           -------------------------------------------------

------------------------------------------------------------------------
 * finished run on 2025/04/09 at 02:30:17.114     
------------------------------------------------------------------------
 total:
 * wall-time:     0 d,  0 h,  0 min,  1.716 sec
 *  cpu-time:     0 d,  0 h,  0 min,  1.683 sec
 * ratio c/w:     0.981 speedup
 SCF:
 * wall-time:     0 d,  0 h,  0 min,  0.016 sec
 *  cpu-time:     0 d,  0 h,  0 min,  0.015 sec
 * ratio c/w:     0.975 speedup
 analytical hessian:
 * wall-time:     0 d,  0 h,  0 min,  1.499 sec
 *  cpu-time:     0 d,  0 h,  0 min,  1.474 sec
 * ratio c/w:     0.984 speedup

