
                                 *****************
                                 * O   R   C   A *
                                 *****************

                                            #,                                       
                                            ###                                      
                                            ####                                     
                                            #####                                    
                                            ######                                   
                                           ########,                                 
                                     ,,################,,,,,                         
                               ,,#################################,,                 
                          ,,##########################################,,             
                       ,#########################################, ''#####,          
                    ,#############################################,,   '####,        
                  ,##################################################,,,,####,       
                ,###########''''           ''''###############################       
              ,#####''   ,,,,##########,,,,          '''####'''          '####       
            ,##' ,,,,###########################,,,                        '##       
           ' ,,###''''                  '''############,,,                           
         ,,##''                                '''############,,,,        ,,,,,,###''
      ,#''                                            '''#######################'''  
     '                                                          ''''####''''         
             ,#######,   #######,   ,#######,      ##                                
            ,#'     '#,  ##    ##  ,#'     '#,    #''#        ,####,   ,####,        
            ##       ##  ##   ,#'  ##            #'  '#       #'       #'  '#        
            ##       ##  #######   ##           ,######,      #####,   #    #        
            '#,     ,#'  ##    ##  '#,     ,#' ,#      #,     #,   #   #,  ,#        
             '#######'   ##     ##  '#######'  #'      '#     '####' # '####'        



                #########################################################
                #                        -***-                          #
                #          Department of theory and spectroscopy        #
                #                                                       #
                #                      Frank Neese                      #
                #                                                       #
                #     Directorship, Architecture, Infrastructure        #
                #                    SHARK, DRIVERS                     #
                #        Core code/Algorithms in most modules           #
                #                                                       #
                #        Max Planck Institute fuer Kohlenforschung      #
                #                Kaiser Wilhelm Platz 1                 #
                #                 D-45470 Muelheim/Ruhr                 #
                #                      Germany                          #
                #                                                       #
                #                  All rights reserved                  #
                #                        -***-                          #
                #########################################################


                         Program Version 6.0.1  -  RELEASE   -


 With contributions from (in alphabetic order):
[Max-Planck-Institut fuer Kohlenforschung]                               
  Daniel Aravena         : Magnetic Suceptibility                        
  Michael Atanasov       : Ab Initio Ligand Field Theory (pilot matlab implementation)
  Alexander A. Auer      : GIAO ZORA, VPT2 properties, NMR spectrum      
  Ute Becker             : All parallelization in ORCA, NUMFREQ, NUMCALC 
  Giovanni Bistoni       : ED, misc. LED, open-shell LED, HFLD           
  Martin Brehm           : Molecular dynamics                            
  Dmytro Bykov           : pre 5.0 version of the SCF Hessian            
  Marcos Casanova-Páez   : Triplet and SCS-CIS(D). UHF-(DLPNO)-IP/EA/STEOM-CCSD. UHF-CVS-IP/STEOM-CCSD   
  Vijay G. Chilkuri      : MRCI spin determinant printing, contributions to CSF-ICE 
  Pauline Colinet        : FMM embedding                                 
  Dipayan Datta          : RHF DLPNO-CCSD density                        
  Achintya Kumar Dutta   : EOM-CC, STEOM-CC                              
  Nicolas Foglia         : Exact transition moments, OPA infrastructure, MCD improvements    
  Dmitry Ganyushin       : Spin-Orbit,Spin-Spin,Magnetic field MRCI      
  Miquel Garcia-Rates    : C-PCM and meta-GGA Hessian, CCSD/C-PCM, Gaussian charge scheme 
  Tiago L. C. Gouveia    : GS-ROHF, GS-ROCIS                             
  Yang Guo               : DLPNO-NEVPT2, F12-NEVPT2, CIM, IAO-localization        
  Andreas Hansen         : Spin unrestricted coupled pair/coupled cluster methods 
  Ingolf Harden          : AUTO-CI MPn and infrastructure                
  Benjamin Helmich-Paris : MC-RPA, TRAH-(SCF,CASSCF), AVAS, COSX integrals, SCF dyn. polar. 
  Lee Huntington         : MR-EOM, pCC                                   
  Robert Izsak           : Overlap fitted RIJCOSX, COSX-SCS-MP3, EOM     
  Riya Kayal             : Wick's Theorem for AUTO-CI, AUTO-CI UHF-CCSDT 
  Emily Kempfer          : AUTO-CI, RHF CISDT and CCSDT                  
  Christian Kollmar      : KDIIS, OOCD, Brueckner-CCSD(T), CCSD density, CASPT2, CASPT2-K, improved NEVPT2 
  Axel Koslowski         : Symmetry handling                             
  Simone Kossmann        : meta-GGA functionals, TD-DFT gradient, OOMP2, (MP2 Hessian; deprecated post 5.0) 
  Lucas Lang             : DCDCAS                                        
  Marvin Lechner         : AUTO-CI (C++ implementation), FIC-MRCC        
  Spencer Leger          : CASSCF response                               
  Dagmar Lenk            : GEPOL surface, SMD, ORCA-2-JSON               
  Dimitrios Liakos       : Extrapolation schemes; Compound Job, initial MDCI parallelization 
  Dimitrios Manganas     : Further ROCIS development; embedding schemes. LFT, Crystal Embedding 
  Dimitrios Pantazis     : SARC Basis sets                               
  Anastasios Papadopoulos: AUTO-CI, single reference methods and gradients 
  Taras Petrenko         : pre 6.0 DFT Hessian and TD-DFT gradient, (ASA, deprecated), ECA, 1-Electron XAS/XES, NRVS 
  Peter Pinski           : DLPNO-MP2, DLPNO-MP2 Gradient                 
  Christoph Reimann      : Effective Core Potentials                     
  Marius Retegan         : Local ZFS, SOC                                
  Christoph Riplinger    : Optimizer, TS searches, QM/MM, DLPNO-CCSD(T), (RO)-DLPNO pert. Triples 
  Michael Roemelt        : Original ROCIS implementation                 
  Masaaki Saitow         : Open-shell DLPNO-CCSD energy and density      
  Barbara Sandhoefer     : DKH picture change effects                    
  Kantharuban Sivalingam : CASSCF convergence/infrastructure, NEVPT2 and variants, FIC-MRCI 
  Bernardo de Souza      : ESD, SOC TD-DFT                               
  Georgi L. Stoychev     : AutoAux, RI-MP2 NMR, DLPNO-MP2 response, X2C  
  Van Anh Tran           : RI-MP2 g-tensors                              
  Willem Van den Heuvel  : Paramagnetic NMR                              
  Zikuan Wang            : NOTCH, Electric field optimization            
  Frank Wennmohs         : Technical directorship and infrastructure     
  Hang Xu                : AUTO-CI-Response properties                   
                                                                         
[FACCTs GmbH]                                                            
  Markus Bursch, Miquel Garcia-Rates, Christoph Riplinger, Bernardo de Souza, Georgi L. Stoychev 
                                                                 
  APM, Basis sets (HGBS, AHGBS, def-TZVP (Ac-Lr), def2-XVPD (La-Lu)), CI-OPT, improved COSX, DLPNO-Multilevel,           
  DOCKER, DRACO, updates on ESD, GOAT, IRC, LR-CPCM, MBIS, meta-GGA TD-DFT gradient, ML-optimized integration grids, 
  MM, NACMEs, nearIR, NEB, NEB-TS, NL-DFT gradient (VV10), 2- and 3-layer-ONIOM, interface openCOSMO-RS, QMMM,   
  Crystal-QMMM, SF, symmetry and pop. for TD-DFT, r2SCAN hybrids, SOLVATOR                                   
                                                                         
[Other institutions]                                                     
  V. Asgeirsson          : NEB                                           
  Christoph Bannwarth    : sTDA-DFT, sTD-DFT, PBEh-3c, B97-3c, D3        
  Sebastian Ehlert       : rSCAN, r2SCAN, r2SCAN-3c, D4, dhf basis sets  
  Marvin Friede          : D4 for Fr, Ra, Ac-Lr                          
  Lars Goerigk           : TD-DFT with DH, B97 family of functionals     
  Stefan Grimme          : VdW corrections, initial TS optimization, DFT functionals, gCP, sTDA/sTD-DF 
  Waldemar Hujo          : DFT-NL                                        
  H. Jonsson             : NEB                                           
  Holger Kruse           : gCP                                           
  Marcel Mueller         : wB97X-3c, vDZP basis set                      
  Hagen Neugebauer       : wr2SCAN                                       
  Tobias Risthaus        : range-separated hybrid DFT                    
  Lukas Wittmann         : regularized MP2, r2SCAN double-hybrids, wr2SCAN        
                                                                         
We gratefully acknowledge several colleagues who have allowed us to      
interface, adapt or use parts of their codes:                            
  Ed Valeev, F. Pavosevic, A. Kumar             : LibInt (2-el integral package), F12 methods 
  Garnet Chan, S. Sharma, J. Yang, R. Olivares  : DMRG                   
  Ulf Ekstrom                                   : XCFun DFT Library      
  Mihaly Kallay                                 : mrcc  (arbitrary order and MRCC methods)
  Frank Weinhold                                : gennbo (NPA and NBO analysis)           
  Simon Mueller                                 : openCOSMO-RS                            
  Christopher J. Cramer and Donald G. Truhlar   : smd solvation model                     
  S Lehtola, MJT Oliveira, MAL Marques          : LibXC Library                           
  Liviu Ungur et al                             : ANISO software                          


 Your calculation uses the libint2 library for the computation of 2-el integrals
 For citations please refer to: http://libint.valeyev.net

 Your ORCA version has been built with support for libXC version: 6.2.2
 For citations please refer to: https://libxc.gitlab.io

 This ORCA versions uses:
   CBLAS   interface :  Fast vector & matrix operations
   LAPACKE interface :  Fast linear algebra routines
   SCALAPACK package :  Parallel linear algebra routines
   Shared memory     :  Shared parallel matrices
   BLAS/LAPACK       :  OpenBLAS 0.3.27  USE64BITINT DYNAMIC_ARCH NO_AFFINITY Zen SINGLE_THREADED
        Core in use  :  Zen
   Copyright (c) 2011-2014, The OpenBLAS Project


Your calculation utilizes the geometrical counterpoise correction gCP
Please cite in your paper:
H.Kruse, S. Grimme J.Chem.Phys., 136, (2012), 154101 
   

Your calculation utilizes the atom-pairwise dispersion correction
based on EEQ partial charges (D4)


================================================================================

----- Orbital basis set information -----
Your calculation utilizes the basis: def2-mTZVPP
   Stefan Grimme, Andreas Hansen, Sebastian Ehlert, and Jan-Michael Mewes 
   J. Chem. Phys. 154, 064103 (2021). DOI: 10.1063/5.0040021

----- AuxJ basis set information -----
Your calculation utilizes the auxiliary basis: def2/J
   F. Weigend, Phys. Chem. Chem. Phys. 8, 1057 (2006).

================================================================================
                                        WARNINGS
                       Please study these warnings very carefully!
================================================================================

WARNING: Old DensityContainer found on disk!
         Will remove this file - 
         If you want to keep old densities, please start your calculation with a different basename. 



WARNING: SCAN, rSCAN, or r2SCAN functional requested.
  ===> : libXC variant has now been activated.



================================================================================
                                       INPUT FILE
================================================================================
NAME = sp.inp
|  1> ! r2scan-3c def2/J RI DEFGRID2 scfconv6 printgap
|  2> %output
|  3>     printlevel normal
|  4> end
|  5> * xyz 0 1
|  6> C -2.154057671 0.4658713041 -0.6937916189
|  7> C -1.3379030677 0.3830084384 0.5976958742
|  8> C -0.0008629659 -0.2539646002 0.3006891075
|  9> O 0.2355430544 -1.4317609038 0.3417470934
| 10> O 0.9030912902 0.6691064845 -0.0528455087
| 11> C 2.1910220078 0.1846130599 -0.4060169803
| 12> H -3.1298488363 0.8998846617 -0.4909107
| 13> H -1.6423746257 1.0863120159 -1.4257683882
| 14> H -2.2949084596 -0.5271469334 -1.1140104104
| 15> H -1.8609680595 -0.2342828818 1.3280774409
| 16> H -1.1759569699 1.3817488915 1.0021528161
| 17> H 2.6274366967 -0.3711834622 0.4262736871
| 18> H 2.7926164327 1.0590190496 -0.6399424486
| 19> H 2.122711875 -0.4775045527 -1.2715580226
| 20> *
| 21> 
| 22>                          ****END OF INPUT****
================================================================================

                       ****************************
                       * Single Point Calculation *
                       ****************************

---------------------------------
CARTESIAN COORDINATES (ANGSTROEM)
---------------------------------
  C     -2.154058    0.465871   -0.693792
  C     -1.337903    0.383008    0.597696
  C     -0.000863   -0.253965    0.300689
  O      0.235543   -1.431761    0.341747
  O      0.903091    0.669106   -0.052846
  C      2.191022    0.184613   -0.406017
  H     -3.129849    0.899885   -0.490911
  H     -1.642375    1.086312   -1.425768
  H     -2.294908   -0.527147   -1.114010
  H     -1.860968   -0.234283    1.328077
  H     -1.175957    1.381749    1.002153
  H      2.627437   -0.371183    0.426274
  H      2.792616    1.059019   -0.639942
  H      2.122712   -0.477505   -1.271558

----------------------------
CARTESIAN COORDINATES (A.U.)
----------------------------
  NO LB      ZA    FRAG     MASS         X           Y           Z
   0 C     6.0000    0    12.011   -4.070579    0.880369   -1.311076
   1 C     6.0000    0    12.011   -2.528270    0.723781    1.129482
   2 C     6.0000    0    12.011   -0.001631   -0.479924    0.568220
   3 O     8.0000    0    15.999    0.445112   -2.705636    0.645808
   4 O     8.0000    0    15.999    1.706595    1.264428   -0.099864
   5 C     6.0000    0    12.011    4.140432    0.348868   -0.767261
   6 H     1.0000    0     1.008   -5.914557    1.700536   -0.927687
   7 H     1.0000    0     1.008   -3.103638    2.052832   -2.694312
   8 H     1.0000    0     1.008   -4.336748   -0.996163   -2.105175
   9 H     1.0000    0     1.008   -3.516720   -0.442730    2.509703
  10 H     1.0000    0     1.008   -2.222237    2.611127    1.893794
  11 H     1.0000    0     1.008    4.965136   -0.701435    0.805541
  12 H     1.0000    0     1.008    5.277280    2.001256   -1.209316
  13 H     1.0000    0     1.008    4.011344   -0.902353   -2.402896

--------------------------------
INTERNAL COORDINATES (ANGSTROEM)
--------------------------------
 C      0   0   0     0.000000000000     0.00000000     0.00000000
 C      1   0   0     1.530004750265     0.00000000     0.00000000
 C      2   1   0     1.510504520083   109.21038273     0.00000000
 O      3   2   1     1.201989058775   125.49163859   270.31427359
 O      3   2   1     1.339470137548   111.01749430    88.82143351
 C      5   3   2     1.420644044147   116.25776308   182.26364144
 H      1   2   3     1.087058719714   110.05471553   178.58352340
 H      1   2   3     1.087454002016   110.36988580   298.52750975
 H      1   2   3     1.087431835743   110.23230092    58.70873582
 H      2   1   3     1.090001281016   109.89539193   241.05971555
 H      2   1   3     1.089630418583   110.05744069   119.79696386
 H      6   5   3     1.091822013749   110.27171414   301.17915906
 H      6   5   3     1.086840748046   106.31664512   181.21033393
 H      6   5   3     1.091891616903   110.31317161    61.25489953

---------------------------
INTERNAL COORDINATES (A.U.)
---------------------------
 C      0   0   0     0.000000000000     0.00000000     0.00000000
 C      1   0   0     2.891289961599     0.00000000     0.00000000
 C      2   1   0     2.854439867006   109.21038273     0.00000000
 O      3   2   1     2.271430137054   125.49163859   270.31427359
 O      3   2   1     2.531231724531   111.01749430    88.82143351
 C      5   3   2     2.684628177224   116.25776308   182.26364144
 H      1   2   3     2.054243271751   110.05471553   178.58352340
 H      1   2   3     2.054990247047   110.36988580   298.52750975
 H      1   2   3     2.054948358861   110.23230092    58.70873582
 H      2   1   3     2.059803906743   109.89539193   241.05971555
 H      2   1   3     2.059103078313   110.05744069   119.79696386
 H      6   5   3     2.063244592972   110.27171414   301.17915906
 H      6   5   3     2.053831364993   106.31664512   181.21033393
 H      6   5   3     2.063376123872   110.31317161    61.25489953

---------------------
BASIS SET INFORMATION
---------------------
There are 3 groups of distinct atoms

 Group   1 Type C   : 11s6p1d contracted to 5s3p1d pattern {62111/411/1}
 Group   2 Type O   : 11s6p2d contracted to 5s3p2d pattern {62111/411/11}
 Group   3 Type H   : 4s1p contracted to 2s1p pattern {31/1}

Atom   0C    basis set group =>   1
Atom   1C    basis set group =>   1
Atom   2C    basis set group =>   1
Atom   3O    basis set group =>   2
Atom   4O    basis set group =>   2
Atom   5C    basis set group =>   1
Atom   6H    basis set group =>   3
Atom   7H    basis set group =>   3
Atom   8H    basis set group =>   3
Atom   9H    basis set group =>   3
Atom  10H    basis set group =>   3
Atom  11H    basis set group =>   3
Atom  12H    basis set group =>   3
Atom  13H    basis set group =>   3
---------------------------------
AUXILIARY/J BASIS SET INFORMATION
---------------------------------
There are 3 groups of distinct atoms

 Group   1 Type C   : 12s5p4d2f1g contracted to 6s4p3d1f1g pattern {711111/2111/211/2/1}
 Group   2 Type O   : 12s5p4d2f1g contracted to 6s4p3d1f1g pattern {711111/2111/211/2/1}
 Group   3 Type H   : 5s2p1d contracted to 3s1p1d pattern {311/2/1}

Atom   0C    basis set group =>   1
Atom   1C    basis set group =>   1
Atom   2C    basis set group =>   1
Atom   3O    basis set group =>   2
Atom   4O    basis set group =>   2
Atom   5C    basis set group =>   1
Atom   6H    basis set group =>   3
Atom   7H    basis set group =>   3
Atom   8H    basis set group =>   3
Atom   9H    basis set group =>   3
Atom  10H    basis set group =>   3
Atom  11H    basis set group =>   3
Atom  12H    basis set group =>   3
Atom  13H    basis set group =>   3

Checking for AutoStart:
The File: sp.gbw exists
Trying to determine its content:
     ... Fine, the file contains calculation information
     ... Fine, the calculation information was read
     ... Fine, the file contains a basis set
     ... Fine, the basis set was read
     ... Fine, the file contains a geometry
     ... Fine, the geometry was read
     ... Fine, the file contains a set of orbitals
     ... Fine, the orbitals can be read
     => possible old guess file was deleted
     => GBW file was renamed to GES file
     => GES file is set as startup file
     => Guess is set to MORead
     ... now leaving AutoStart

------------------------------------------------------------------------------
                             ORCA STARTUP CALCULATIONS
                           -- RI-GTO INTEGRALS CHOSEN --
------------------------------------------------------------------------------
------------------------------------------------------------------------------
                   ___                                                        
                  /   \      - P O W E R E D   B Y -                         
                 /     \                                                     
                 |  |  |   _    _      __       _____    __    __             
                 |  |  |  | |  | |    /  \     |  _  \  |  |  /  |          
                  \  \/   | |  | |   /    \    | | | |  |  | /  /          
                 / \  \   | |__| |  /  /\  \   | |_| |  |  |/  /          
                |  |  |   |  __  | /  /__\  \  |    /   |      \           
                |  |  |   | |  | | |   __   |  |    \   |  |\   \          
                \     /   | |  | | |  |  |  |  | |\  \  |  | \   \       
                 \___/    |_|  |_| |__|  |__|  |_| \__\ |__|  \__/        
                                                                              
                      - O R C A' S   B I G   F R I E N D -                    
                                      &                                       
                       - I N T E G R A L  F E E D E R -                       
                                                                              
 v1 FN, 2020, v2 2021, v3 2022-2024                                           
------------------------------------------------------------------------------


----------------------
SHARK INTEGRAL PACKAGE
----------------------

Number of atoms                             ...     14
Number of basis functions                   ...    164
Number of shells                            ...     80
Maximum angular momentum                    ...      2
Integral batch strategy                     ... SHARK/LIBINT Hybrid
RI-J (if used) integral strategy            ... SPLIT-RIJ (Revised 2003 algorithm where possible)
Printlevel                                  ...      1
Contraction scheme used                     ... SEGMENTED contraction
Prescreening option                         ... SCHWARTZ
   Thresh                                   ... 1.000e-10
   Tcut                                     ... 1.000e-11
   Tpresel                                  ... 1.000e-11 
Coulomb Range Separation                    ... NOT USED
Exchange Range Separation                   ... NOT USED
Multipole approximations                    ... NOT USED
Finite Nucleus Model                        ... NOT USED
CABS basis                                  ... NOT available
Auxiliary Coulomb fitting basis             ... AVAILABLE
   # of basis functions in Aux-J            ...    382
   # of shells in Aux-J                     ...    130
   Maximum angular momentum in Aux-J        ...      4
Auxiliary J/K fitting basis                 ... NOT available
Auxiliary Correlation fitting basis         ... NOT available
Auxiliary 'external' fitting basis          ... NOT available

Checking pre-screening integrals            ... done (  0.0 sec) Dimension = 80
Check shell pair data                       ... done (  0.0 sec)
Shell pair information
Shell pair cut-off parameter TPreSel        ...   1.0e-11
Total number of shell pairs                 ...      3240
Shell pairs after pre-screening             ...      2992
Total number of primitive shell pairs       ...     11481
Primitive shell pairs kept                  ...      7844
          la=0 lb=0:    979 shell pairs
          la=1 lb=0:   1099 shell pairs
          la=1 lb=1:    326 shell pairs
          la=2 lb=0:    352 shell pairs
          la=2 lb=1:    200 shell pairs
          la=2 lb=2:     36 shell pairs

Calculating one electron integrals          ... done (  0.0 sec)
Calculating RI/J V-Matrix + Cholesky decomp.... done (  0.0 sec)
Calculating Nuclear repulsion               ... done (  0.0 sec) ENN=    247.349422331433 Eh

Diagonalization of the overlap matrix:
Smallest eigenvalue                        ... 2.546e-04
Time for diagonalization                   ...    0.003 sec
Threshold for overlap eigenvalues          ... 1.000e-07
Number of eigenvalues below threshold      ... 0
Time for construction of square roots      ...    0.001 sec
Total time needed                          ...    0.006 sec

-------------------
DFT GRID GENERATION
-------------------

General Integration Accuracy     IntAcc      ... 4.388
Radial Grid Type                 RadialGrid  ... OptM3 with GC (2021)
Angular Grid (max. ang.)         AngularGrid ... 4 (Lebedev-302)
Angular grid pruning method      GridPruning ... 4 (adaptive)
Weight generation scheme         WeightScheme... mBecke (2022)
Basis function cutoff            BFCut       ... 1.0000e-10
Integration weight cutoff        WCut        ... 1.0000e-14
Partially contracted basis set               ... off
Rotationally invariant grid construction     ... off
Angular grids for H and He will be reduced by one unit
Diffuse basis detected: some atoms will have their outermost
                        angular grid increased by 1.

Total number of grid points                  ...    62814
Total number of batches                      ...      987
Average number of points per batch           ...       63
Average number of grid points per atom       ...     4487
Initializing property integral containers    ... done (  0.0 sec)

SHARK setup successfully completed in   0.6 seconds

Maximum memory used throughout the entire STARTUP-calculation: 28.5 MB
-------------------------------------------------------------------------------
                                 ORCA GUESS
                   Start orbitals & Density for SCF / CASSCF
-------------------------------------------------------------------------------

------------
SCF SETTINGS
------------
Hamiltonian:
 Density Functional     Method          .... DFT(GTOs)
  Functional kind                       .... Exchange
  Functional name                       .... Re-regularized SCAN exchange by Furness et al
  Functional family                     .... MGGA
  Functional refs                              
    [ 0] J. W. Furness, A. D. Kaplan, J. Ning, J. P. Perdew, and J. Sun.,  J. Phys. Chem. Lett. 11, 8208-8215 (2020), doi: 10.1021/acs.jpclett.0c02405
    [ 1] J. W. Furness, A. D. Kaplan, J. Ning, J. P. Perdew, and J. Sun.,  J. Phys. Chem. Lett. 11, 9248-9248 (2020), doi: 10.1021/acs.jpclett.0c03077
  Functional external parameters        .... 6
    Parameter  0 _c1        =  6.670000e-01 : c1 parameter        
    Parameter  1 _c2        =  8.000000e-01 : c2 parameter        
    Parameter  2 _d         =  1.240000e+00 : d parameter         
    Parameter  3 _k1        =  6.500000e-02 : k1 parameter        
    Parameter  4 _eta       =  1.000000e-03 : eta parameter       
    Parameter  5 _dp2       =  3.610000e-01 : dp2 parameter       
  Functional kind                       .... Correlation
  Functional name                       .... Re-regularized SCAN correlation by Furness et al
  Functional family                     .... MGGA
  Functional refs                              
    [ 0] J. W. Furness, A. D. Kaplan, J. Ning, J. P. Perdew, and J. Sun.,  J. Phys. Chem. Lett. 11, 8208-8215 (2020), doi: 10.1021/acs.jpclett.0c02405
    [ 1] J. W. Furness, A. D. Kaplan, J. Ning, J. P. Perdew, and J. Sun.,  J. Phys. Chem. Lett. 11, 9248-9248 (2020), doi: 10.1021/acs.jpclett.0c03077
  Functional external parameters        .... 1
    Parameter  0 _eta       =  1.000000e-03 : Regularization parameter
 Gradients option       PostSCFGGA      .... off
 RI-approximation to the Coulomb term is turned on
   Number of AuxJ basis functions       .... 382


General Settings:
 Integral files         IntName         .... sp
 Hartree-Fock type      HFTyp           .... RHF
 Total Charge           Charge          ....    0
 Multiplicity           Mult            ....    1
 Number of Electrons    NEL             ....   48
 Basis Dimension        Dim             ....  164
 Nuclear Repulsion      ENuc            ....    247.3494223314 Eh

Convergence Acceleration:
 AO-DIIS                CNVDIIS         .... on
   Start iteration      DIISMaxIt       ....    12
   Startup error        DIISStart       ....  0.200000
   # of expansion vecs  DIISMaxEq       ....     5
   Bias factor          DIISBfac        ....   1.050
   Max. coefficient     DIISMaxC        ....  10.000
 MO-DIIS                CNVKDIIS        .... off
 Trust-Rad. Augm. Hess. CNVTRAH         .... auto
   Auto Start mean grad. ratio tolernc. ....  1.125000
   Auto Start start iteration           ....     1
   Auto Start num. interpolation iter.  ....    10
   Max. Number of Micro iterations      ....    24
   Max. Number of Macro iterations      .... Maxiter - #DIIS iter
   Number of Davidson start vectors     ....     2
   Converg. threshold    (grad. norm)   ....   3.330e-04
   Grad. Scal. Fac. for Micro threshold ....   0.100
   Minimum threshold for Micro iter.    ....   1.000e-02
   NR start threshold (gradient norm)   ....   1.000e-04
   Initial trust radius                 ....   0.400
   Minimum AH scaling param. (alpha)    ....   1.000
   Maximum AH scaling param. (alpha)    .... 1000.000
   Quad. conv. algorithm                .... NR
   White noise on init. David. guess    .... on
   Maximum white noise                  ....   0.010
   Pseudo random numbers                .... off
   Inactive MOs                         .... canonical
   Orbital update algorithm             .... Taylor
   Preconditioner                       .... Diag
   Full preconditioner red. dimension   ....   250
   COSX micro iterations for RIJONX calc.... off
 SOSCF                  CNVSOSCF        .... on
   Start iteration      SOSCFMaxIt      ....   150
   Startup grad/error   SOSCFStart      ....  0.003300
   Hessian update       SOSCFHessUp     .... L-BFGS
 Level Shifting         CNVShift        .... on
   Level shift para.    LevelShift      ....    0.2500
   Turn off err/grad.   ShiftErr        ....    0.0010
 Zerner damping         CNVZerner       .... off
 Static damping         CNVDamp         .... on
   Fraction old density DampFac         ....    0.7000
   Max. Damping (<1)    DampMax         ....    0.9800
   Min. Damping (>=0)   DampMin         ....    0.0000
   Turn off err/grad.   DampErr         ....    0.1000

SCF Procedure:
 Maximum # iterations   MaxIter         ....   125
 SCF integral mode      SCFMode         .... Direct
   Integral package                     .... SHARK and LIBINT hybrid scheme
 Reset frequency        DirectResetFreq ....    20
 Integral Threshold     Thresh          ....  1.000e-10 Eh
 Primitive CutOff       TCut            ....  1.000e-11 Eh

Convergence Tolerance:
 Convergence Check Mode ConvCheckMode   .... Total+1el-Energy
 Convergence forced     ConvForced      .... 0
 Energy Change          TolE            ....  1.000e-06 Eh
 1-El. energy change                    ....  1.000e-03 Eh
 Orbital Gradient       TolG            ....  3.330e-04
 Orbital Rotation angle TolX            ....  3.330e-04
 DIIS Error             TolErr          ....  1.000e-06

---------------------
INITIAL GUESS: MOREAD
---------------------
Guess MOs are being read from file: sp.ges
Input Geometry matches current geometry (good)
Atom 0: N(Shells)= 9 and 6 - projection required
Input basis set needs projection
NBasis(read)= 100
NBasis(calc)= 164
Basis set overlap was calculated
Using GuessMode=FMatrix for the initial guess
C*T matrix was formed
Effective Fockian was calculated
Effective Fockian was diagonalized
Initial density was built
                      ------------------
                      INITIAL GUESS DONE (   0.0 sec)
                      ------------------
             **** ENERGY FILE WAS UPDATED (sp.en.tmp) ****
Finished Guess after   0.1 sec
Maximum memory used throughout the entire GUESS-calculation: 11.5 MB

-------------------------------------------------------------------------------------------
                                      ORCA LEAN-SCF
                              memory conserving SCF solver
-------------------------------------------------------------------------------------------

----------------------------------------D-I-I-S--------------------------------------------
Iteration    Energy (Eh)           Delta-E    RMSDP     MaxDP     DIISErr   Damp  Time(sec)
-------------------------------------------------------------------------------------------
               ***  Starting incremental Fock matrix formation  ***
    1    -307.4838946689615113     0.00e+00  3.76e-03  1.20e-01  6.26e-01  0.700   1.4
    2    -307.5298147421383419    -4.59e-02  3.06e-03  8.90e-02  4.40e-01  0.700   0.9
    3    -307.5622714357580207    -3.25e-02  2.25e-03  6.29e-02  3.08e-01  0.700   1.3
    4    -307.5850582842435870    -2.28e-02  1.61e-03  4.43e-02  2.16e-01  0.700   1.5
                               ***Turning on AO-DIIS***
    5    -307.6010408647504164    -1.60e-02  1.16e-03  3.19e-02  1.51e-01  0.700   1.3
    6    -307.6122432483419971    -1.12e-02  8.27e-04  2.25e-02  1.06e-01  0.700   1.4
    7    -307.6200959455566135    -7.85e-03  5.83e-04  1.58e-02  7.40e-02  0.700   1.9
    8    -307.6255974291345865    -5.50e-03  1.37e-03  3.70e-02  5.19e-02  0.000   1.6
                              *** Initializing SOSCF ***
---------------------------------------S-O-S-C-F--------------------------------------
Iteration    Energy (Eh)           Delta-E    RMSDP     MaxDP     MaxGrad    Time(sec)
--------------------------------------------------------------------------------------
    9    -307.6384501508315452    -1.29e-02  8.13e-06  2.54e-04  7.53e-05     1.6
                  *** Gradient check signals convergence ***

               *****************************************************
               *                     SUCCESS                       *
               *           SCF CONVERGED AFTER   9 CYCLES          *
               *****************************************************

             **** ENERGY FILE WAS UPDATED (sp.en.tmp) ****

----------------
TOTAL SCF ENERGY
----------------

Total Energy       :       -307.63845015083155 Eh           -8371.26782 eV

Components:
Nuclear Repulsion  :        247.34942233143326 Eh            6730.71996 eV
Electronic Energy  :       -554.98787248226472 Eh          -15101.98778 eV
One Electron Energy:       -908.12493958553353 Eh          -24711.33591 eV
Two Electron Energy:        353.13706710326875 Eh            9609.34813 eV

Virial components:
Potential Energy   :       -614.07942949403343 Eh          -16709.95079 eV
Kinetic Energy     :        306.44097934320189 Eh            8338.68298 eV
Virial Ratio       :          2.00390767191188

DFT components:
N(Alpha)           :       23.999994679706 electrons
N(Beta)            :       23.999994679706 electrons
N(Total)           :       47.999989359413 electrons
E(X)               :      -40.238337485011 Eh       
E(C)               :       -1.538229471979 Eh       
E(XC)              :      -41.776566956991 Eh       

---------------
SCF CONVERGENCE
---------------

  Last Energy change         ...    1.2853e-02  Tolerance :   1.0000e-06
  Last MAX-Density change    ...    2.5362e-04  Tolerance :   1.0000e-05
  Last RMS-Density change    ...    8.1341e-06  Tolerance :   1.0000e-06
  Last DIIS Error            ...    7.5267e-05  Tolerance :   1.0000e-06
  Last Orbital Gradient      ...    7.5267e-05  Tolerance :   3.3300e-04
  Last Orbital Rotation      ...    7.5267e-05  Tolerance :   3.3300e-04


----------------
ORBITAL ENERGIES
----------------

  NO   OCC          E(Eh)            E(eV) 
   0   2.0000     -18.998993      -516.9889 
   1   2.0000     -18.932558      -515.1811 
   2   2.0000     -10.152693      -276.2688 
   3   2.0000     -10.085272      -274.4342 
   4   2.0000     -10.044960      -273.3373 
   5   2.0000     -10.032838      -273.0074 
   6   2.0000      -1.074375       -29.2352 
   7   2.0000      -0.982918       -26.7466 
   8   2.0000      -0.761666       -20.7260 
   9   2.0000      -0.693437       -18.8694 
  10   2.0000      -0.612584       -16.6693 
  11   2.0000      -0.534237       -14.5373 
  12   2.0000      -0.471513       -12.8305 
  13   2.0000      -0.451252       -12.2792 
  14   2.0000      -0.449580       -12.2337 
  15   2.0000      -0.410728       -11.1765 
  16   2.0000      -0.401376       -10.9220 
  17   2.0000      -0.379323       -10.3219 
  18   2.0000      -0.350340        -9.5332 
  19   2.0000      -0.332417        -9.0455 
  20   2.0000      -0.328282        -8.9330 
  21   2.0000      -0.320795        -8.7293 
  22   2.0000      -0.275384        -7.4936 
  23   2.0000      -0.238254        -6.4832 
  24   0.0000      -0.016125        -0.4388 
  25   0.0000       0.065084         1.7710 
  26   0.0000       0.097991         2.6665 
  27   0.0000       0.121563         3.3079 
  28   0.0000       0.126468         3.4414 
  29   0.0000       0.140102         3.8124 
  30   0.0000       0.159623         4.3436 
  31   0.0000       0.167599         4.5606 
  32   0.0000       0.175538         4.7766 
  33   0.0000       0.182129         4.9560 
  34   0.0000       0.185350         5.0436 
*Only the first 10 virtual orbitals were printed.

                    ********************************
                    * MULLIKEN POPULATION ANALYSIS *
                    ********************************

-----------------------
MULLIKEN ATOMIC CHARGES
-----------------------
   0 C :   -0.469108
   1 C :   -0.287880
   2 C :    0.406052
   3 O :   -0.413281
   4 O :   -0.188789
   5 C :   -0.298270
   6 H :    0.153570
   7 H :    0.154268
   8 H :    0.160665
   9 H :    0.159867
  10 H :    0.154167
  11 H :    0.160976
  12 H :    0.149325
  13 H :    0.158439
Sum of atomic charges:   -0.0000000

--------------------------------
MULLIKEN REDUCED ORBITAL CHARGES
--------------------------------
  0 C s       :     3.324713  s :     3.324713
      pz      :     0.965666  p :     3.117465
      px      :     1.051802
      py      :     1.099997
      dz2     :     0.005157  d :     0.026931
      dxz     :     0.006184
      dyz     :     0.006554
      dx2y2   :     0.005072
      dxy     :     0.003964

  1 C s       :     3.216894  s :     3.216894
      pz      :     0.995927  p :     3.036259
      px      :     0.961868
      py      :     1.078465
      dz2     :     0.006676  d :     0.034726
      dxz     :     0.007182
      dyz     :     0.007214
      dx2y2   :     0.006921
      dxy     :     0.006733

  2 C s       :     3.137755  s :     3.137755
      pz      :     0.758535  p :     2.331147
      px      :     0.813043
      py      :     0.759569
      dz2     :     0.007515  d :     0.125047
      dxz     :     0.008879
      dyz     :     0.028516
      dx2y2   :     0.029620
      dxy     :     0.050516

  3 O s       :     3.838594  s :     3.838594
      pz      :     1.474479  p :     4.554143
      px      :     1.756884
      py      :     1.322780
      dz2     :     0.002804  d :     0.020544
      dxz     :     0.001111
      dyz     :     0.009149
      dx2y2   :     0.007593
      dxy     :    -0.000113

  4 O s       :     3.708206  s :     3.708206
      pz      :     1.690960  p :     4.450429
      px      :     1.166849
      py      :     1.592620
      dz2     :     0.002669  d :     0.030154
      dxz     :     0.002707
      dyz     :     0.007921
      dx2y2   :     0.004322
      dxy     :     0.012535

  5 C s       :     3.311600  s :     3.311600
      pz      :     1.092944  p :     2.942215
      px      :     0.774239
      py      :     1.075032
      dz2     :     0.006141  d :     0.044455
      dxz     :     0.009490
      dyz     :     0.008159
      dx2y2   :     0.008938
      dxy     :     0.011728

  6 H s       :     0.828134  s :     0.828134
      pz      :     0.003769  p :     0.018295
      px      :     0.009641
      py      :     0.004885

  7 H s       :     0.827575  s :     0.827575
      pz      :     0.006999  p :     0.018158
      px      :     0.005147
      py      :     0.006011

  8 H s       :     0.821202  s :     0.821202
      pz      :     0.004688  p :     0.018132
      px      :     0.003667
      py      :     0.009777

  9 H s       :     0.822366  s :     0.822366
      pz      :     0.006993  p :     0.017767
      px      :     0.005009
      py      :     0.005765

 10 H s       :     0.827910  s :     0.827910
      pz      :     0.004488  p :     0.017923
      px      :     0.003430
      py      :     0.010006

 11 H s       :     0.821302  s :     0.821302
      pz      :     0.007972  p :     0.017721
      px      :     0.003854
      py      :     0.005895

 12 H s       :     0.833042  s :     0.833042
      pz      :     0.004030  p :     0.017632
      px      :     0.005260
      py      :     0.008343

 13 H s       :     0.823869  s :     0.823869
      pz      :     0.008568  p :     0.017692
      px      :     0.002318
      py      :     0.006806


------------------------
MULLIKEN OVERLAP CHARGES
------------------------
B(  0-C ,  1-C ) :   0.5101 B(  0-C ,  2-C ) :  -0.1299 B(  0-C ,  6-H ) :   0.8114 
B(  0-C ,  7-H ) :   0.8453 B(  0-C ,  8-H ) :   0.8437 B(  1-C ,  2-C ) :   0.4975 
B(  1-C ,  3-O ) :  -0.1040 B(  1-C ,  4-O ) :  -0.0607 B(  1-C ,  6-H ) :  -0.0938 
B(  1-C ,  7-H ) :  -0.0731 B(  1-C ,  8-H ) :  -0.0724 B(  1-C ,  9-H ) :   0.8562 
B(  1-C , 10-H ) :   0.8467 B(  2-C ,  3-O ) :   0.9620 B(  2-C ,  4-O ) :   0.3523 
B(  2-C ,  5-C ) :  -0.1863 B(  2-C ,  9-H ) :  -0.0990 B(  2-C , 10-H ) :  -0.1090 
B(  3-O ,  4-O ) :  -0.2419 B(  3-O ,  5-C ) :   0.0613 B(  4-O ,  5-C ) :   0.3492 
B(  4-O , 11-H ) :  -0.0644 B(  4-O , 12-H ) :  -0.0875 B(  4-O , 13-H ) :  -0.0624 
B(  5-C , 11-H ) :   0.8269 B(  5-C , 12-H ) :   0.7916 B(  5-C , 13-H ) :   0.8142 
B( 11-H , 13-H ) :  -0.0576 


                     *******************************
                     * LOEWDIN POPULATION ANALYSIS *
                     *******************************

----------------------
LOEWDIN ATOMIC CHARGES
----------------------
   0 C :   -0.392488
   1 C :   -0.237888
   2 C :    0.350016
   3 O :   -0.411173
   4 O :   -0.606941
   5 C :   -0.047213
   6 H :    0.153400
   7 H :    0.157053
   8 H :    0.159730
   9 H :    0.174165
  10 H :    0.174029
  11 H :    0.176784
  12 H :    0.175215
  13 H :    0.175309

-------------------------------
LOEWDIN REDUCED ORBITAL CHARGES
-------------------------------
  0 C s       :     2.969362  s :     2.969362
      pz      :     1.083592  p :     3.360173
      px      :     1.115818
      py      :     1.160764
      dz2     :     0.011589  d :     0.062953
      dxz     :     0.014576
      dyz     :     0.015063
      dx2y2   :     0.012307
      dxy     :     0.009419

  1 C s       :     2.928453  s :     2.928453
      pz      :     1.092757  p :     3.235858
      px      :     1.026849
      py      :     1.116252
      dz2     :     0.012876  d :     0.073577
      dxz     :     0.015981
      dyz     :     0.015693
      dx2y2   :     0.015143
      dxy     :     0.013884

  2 C s       :     2.738794  s :     2.738794
      pz      :     0.727756  p :     2.638928
      px      :     0.932876
      py      :     0.978297
      dz2     :     0.019590  d :     0.272262
      dxz     :     0.015838
      dyz     :     0.055437
      dx2y2   :     0.068529
      dxy     :     0.112868

  3 O s       :     3.541783  s :     3.541783
      pz      :     1.453149  p :     4.654972
      px      :     1.712152
      py      :     1.489671
      dz2     :     0.026751  d :     0.214418
      dxz     :     0.010689
      dyz     :     0.044769
      dx2y2   :     0.060737
      dxy     :     0.071473

  4 O s       :     3.472006  s :     3.472006
      pz      :     1.685361  p :     4.667725
      px      :     1.357810
      py      :     1.624554
      dz2     :     0.054029  d :     0.467210
      dxz     :     0.102601
      dyz     :     0.052968
      dx2y2   :     0.128112
      dxy     :     0.129500

  5 C s       :     2.904525  s :     2.904525
      pz      :     1.094446  p :     3.035968
      px      :     0.862051
      py      :     1.079470
      dz2     :     0.013965  d :     0.106720
      dxz     :     0.021380
      dyz     :     0.021544
      dx2y2   :     0.020018
      dxy     :     0.029813

  6 H s       :     0.803033  s :     0.803033
      pz      :     0.008440  p :     0.043567
      px      :     0.023838
      py      :     0.011289

  7 H s       :     0.799334  s :     0.799334
      pz      :     0.016860  p :     0.043613
      px      :     0.012229
      py      :     0.014524

  8 H s       :     0.796544  s :     0.796544
      pz      :     0.010760  p :     0.043726
      px      :     0.008126
      py      :     0.024840

  9 H s       :     0.782578  s :     0.782578
      pz      :     0.016910  p :     0.043257
      px      :     0.012066
      py      :     0.014281

 10 H s       :     0.782106  s :     0.782106
      pz      :     0.010573  p :     0.043865
      px      :     0.008039
      py      :     0.025253

 11 H s       :     0.782041  s :     0.782041
      pz      :     0.019780  p :     0.041175
      px      :     0.008285
      py      :     0.013110

 12 H s       :     0.784909  s :     0.784909
      pz      :     0.008563  p :     0.039876
      px      :     0.010365
      py      :     0.020949

 13 H s       :     0.783668  s :     0.783668
      pz      :     0.020114  p :     0.041023
      px      :     0.005571
      py      :     0.015338


---------------------------------
LOEWDIN BOND ORDERS (THRESH 0.050000)
---------------------------------
B(  0-C ,  1-C ) :   1.1170 B(  0-C ,  2-C ) :   0.0798 B(  0-C ,  6-H ) :   0.9270 
B(  0-C ,  7-H ) :   0.9260 B(  0-C ,  8-H ) :   0.9247 B(  1-C ,  2-C ) :   0.9247 
B(  1-C ,  3-O ) :   0.1820 B(  1-C ,  4-O ) :   0.1804 B(  1-C ,  9-H ) :   0.8769 
B(  1-C , 10-H ) :   0.8721 B(  2-C ,  3-O ) :   2.2071 B(  2-C ,  4-O ) :   1.4293 
B(  2-C ,  5-C ) :   0.0899 B(  3-O ,  4-O ) :   0.4599 B(  3-O ,  5-C ) :   0.0715 
B(  4-O ,  5-C ) :   1.3699 B(  4-O , 11-H ) :   0.1006 B(  4-O , 12-H ) :   0.1001 
B(  4-O , 13-H ) :   0.1007 B(  5-C , 11-H ) :   0.8551 B(  5-C , 12-H ) :   0.8654 
B(  5-C , 13-H ) :   0.8566 

------------------------------------------
LOEWDIN REDUCED ORBITAL POPULATIONS PER MO
-------------------------------------------
THRESHOLD FOR PRINTING IS 0.1%%
                      0         1         2         3         4         5   
                 -18.99899 -18.93256 -10.15269 -10.08527 -10.04496 -10.03284
                   2.00000   2.00000   2.00000   2.00000   2.00000   2.00000
                  --------  --------  --------  --------  --------  --------
 0 C  s               0.0       0.0       0.0       0.0       0.0      99.7
 1 C  s               0.0       0.0       0.0       0.0      99.7       0.0
 2 C  s               0.0       0.0      98.9       0.0       0.0       0.0
 3 O  s               0.0      99.9       0.0       0.0       0.0       0.0
 3 O  py              0.0       0.0       0.2       0.0       0.0       0.0
 3 O  dx2y2           0.0       0.0       0.2       0.0       0.0       0.0
 4 O  s              99.9       0.0       0.0       0.0       0.0       0.0
 4 O  dx2y2           0.0       0.0       0.0       0.1       0.0       0.0
 4 O  dxy             0.0       0.0       0.2       0.1       0.0       0.0
 5 C  s               0.0       0.0       0.0      99.4       0.0       0.0

                      6         7         8         9        10        11   
                  -1.07437  -0.98292  -0.76167  -0.69344  -0.61258  -0.53424
                   2.00000   2.00000   2.00000   2.00000   2.00000   2.00000
                  --------  --------  --------  --------  --------  --------
 0 C  s               0.1       0.0      17.7      10.2      18.9       0.5
 0 C  pz              0.1       0.0       2.0       0.1       3.8       2.1
 0 C  px              0.2       0.0       1.1       0.0       1.8       0.0
 1 C  s               1.0       0.2      27.4       2.1       9.4       2.7
 1 C  pz              0.1       0.0       1.5       0.6       6.2       2.3
 1 C  px              1.7       0.1       0.1       3.3       3.8       2.2
 1 C  py              0.2       0.4       0.0       0.0       0.3       0.0
 1 C  dz2             0.0       0.0       0.0       0.1       0.1       0.0
 1 C  dxz             0.0       0.0       0.0       0.1       0.1       0.0
 2 C  s              16.5       3.7       3.8       2.2       1.8       3.7
 2 C  pz              0.4       0.4       0.1       0.1       1.6       0.9
 2 C  px              4.3       0.7       7.5       1.0       5.4       1.5
 2 C  py              0.1      22.3       4.8       3.2       0.7       2.2
 2 C  dz2             0.5       0.1       0.0       0.0       0.0       0.0
 2 C  dx2y2           0.2       0.9       0.1       0.0       0.1       0.0
 2 C  dxy             0.2       0.8       0.0       0.2       0.1       0.0
 3 O  s              13.5      40.5       1.6       0.4       0.7       2.0
 3 O  pz              0.0       0.0       0.0       0.0       0.1       0.3
 3 O  px              0.0       0.3       0.2       0.0       0.5       0.5
 3 O  py              3.3       3.4       0.4       0.3       0.4       2.6
 3 O  dz2             0.4       0.0       0.1       0.0       0.1       0.1
 3 O  dx2y2           0.9       0.1       0.1       0.5       0.0       0.3
 3 O  dxy             0.1       0.2       0.6       0.0       0.4       0.1
 4 O  s              40.4      18.1       0.1       0.9       1.4       5.2
 4 O  pz              0.0       0.1       0.5       2.1       0.0       1.4
 4 O  px              0.1       0.6       6.2      19.7       0.1      14.5
 4 O  py              2.8       0.4       0.0       0.4       0.1      10.2
 4 O  dz2             0.4       0.1       0.0       0.2       0.2       0.2
 4 O  dxz             0.1       0.0       0.0       0.2       0.6       0.1
 4 O  dyz             0.1       0.1       0.0       0.1       0.0       0.0
 4 O  dx2y2           0.0       0.6       0.2       0.8       1.1       0.1
 4 O  dxy             0.2       0.5       0.4       1.0       0.0       0.2
 5 C  s               4.7       2.1       3.5      24.2       5.0       5.1
 5 C  pz              0.4       0.1       0.0       0.1       0.1       0.6
 5 C  px              4.9       1.4       0.2       0.5       1.6       9.4
 5 C  py              0.2       0.6       0.1       0.1       0.1       8.9
 5 C  dz2             0.1       0.0       0.0       0.0       0.0       0.2
 5 C  dx2y2           0.2       0.1       0.0       0.0       0.0       0.1
 5 C  dxy             0.1       0.1       0.0       0.0       0.0       0.3
 6 H  s               0.0       0.0       2.5       2.2       6.5       0.1
 6 H  px              0.0       0.0       0.2       0.2       0.4       0.0
 7 H  s               0.0       0.0       2.6       1.8       6.1       0.7
 7 H  pz              0.0       0.0       0.1       0.1       0.2       0.0
 7 H  px              0.0       0.0       0.0       0.0       0.2       0.0
 7 H  py              0.0       0.0       0.1       0.1       0.2       0.0
 8 H  s               0.0       0.0       2.5       2.0       5.9       0.4
 8 H  py              0.0       0.0       0.2       0.1       0.4       0.0
 9 H  s               0.1       0.0       3.9       0.5       3.5       2.9
 9 H  pz              0.0       0.0       0.2       0.0       0.1       0.1
 9 H  px              0.0       0.0       0.1       0.0       0.1       0.0
 9 H  py              0.0       0.0       0.1       0.0       0.1       0.1
10 H  s               0.1       0.0       4.3       0.2       3.2       1.3
10 H  py              0.0       0.0       0.3       0.0       0.3       0.1
11 H  s               0.3       0.1       0.5       5.0       1.8       5.5
11 H  pz              0.0       0.0       0.0       0.3       0.1       0.3
11 H  py              0.0       0.0       0.0       0.1       0.0       0.0
12 H  s               0.3       0.2       0.7       6.3       1.9       1.2
12 H  px              0.0       0.0       0.0       0.2       0.0       0.0
12 H  py              0.0       0.0       0.0       0.3       0.1       0.1
13 H  s               0.3       0.1       0.5       5.1       1.7       5.8
13 H  pz              0.0       0.0       0.0       0.3       0.1       0.2
13 H  py              0.0       0.0       0.0       0.2       0.0       0.1

                     12        13        14        15        16        17   
                  -0.47151  -0.45125  -0.44958  -0.41073  -0.40138  -0.37932
                   2.00000   2.00000   2.00000   2.00000   2.00000   2.00000
                  --------  --------  --------  --------  --------  --------
 0 C  s               0.0       0.3       0.0       0.0       0.1       0.2
 0 C  pz              3.5       2.5       0.0       1.1       0.3      13.6
 0 C  px              2.4       0.5       1.3       5.1      17.1       0.7
 0 C  py              2.4       0.2       5.3      18.0       1.9       0.2
 0 C  dxz             0.0       0.0       0.0       0.0       0.1       0.1
 1 C  s               1.5       0.7       0.0       0.0       0.4       0.1
 1 C  pz              6.1       0.1       0.5       1.0       6.3       6.1
 1 C  px              7.4       3.1       0.7       3.3       1.0       7.5
 1 C  py              7.6       0.0      13.2      13.6       0.2       0.3
 1 C  dxy             0.2       0.0       0.0       0.1       0.0       0.0
 2 C  s               1.4       0.1       1.7       0.7       0.6       0.2
 2 C  pz              1.5      11.0       1.6       0.1       1.2      10.6
 2 C  px             13.0       0.2       0.1       0.0       1.8       1.1
 2 C  py              0.1       0.7       2.4       3.5       1.3       0.8
 2 C  dxz             0.0       0.1       0.0       0.0       0.0       0.0
 2 C  dx2y2           0.0       0.1       0.4       0.0       0.2       0.0
 2 C  dxy             0.0       0.0       0.0       0.3       0.0       0.0
 3 O  s               0.6       0.3      10.2       3.8       1.9       0.4
 3 O  pz              0.3       6.2       0.4       0.0       1.0      11.0
 3 O  px              8.7       0.1       1.0       0.2       0.1       0.0
 3 O  py              0.6       0.3      21.0      15.5      10.5       2.4
 3 O  dz2             0.0       0.0       0.2       0.0       0.1       0.0
 3 O  dxz             0.0       0.0       0.0       0.0       0.0       0.2
 3 O  dyz             0.1       0.9       0.1       0.0       0.1       0.5
 3 O  dx2y2           0.0       0.0       0.1       0.1       0.2       0.0
 3 O  dxy             1.3       0.0       0.0       0.0       0.0       0.0
 4 O  s               0.5       0.4       0.7       0.8       0.1       0.0
 4 O  pz              5.7      22.6       1.7       0.3       0.4       0.0
 4 O  px              0.2       0.1       7.7       5.2       2.8       1.1
 4 O  py              7.2       8.0       7.2       0.8       1.3       0.0
 4 O  dz2             0.0       0.0       0.0       0.1       0.2       0.6
 4 O  dxz             0.1       0.0       0.1       0.0       1.1       1.0
 4 O  dyz             0.0       0.9       0.2       0.0       0.0       0.0
 4 O  dx2y2           0.7       0.6       0.3       0.0       0.1       0.1
 4 O  dxy             1.1       0.0       0.1       0.0       0.7       0.6
 5 C  s               0.0       0.1       0.3       0.1       0.1       0.0
 5 C  pz              3.5      12.8       5.1       0.4      13.0       5.9
 5 C  px              0.1       7.9       2.6       1.8       1.9       6.9
 5 C  py              6.1       4.2       0.4       0.4       7.0       7.8
 5 C  dyz             0.0       0.1       0.0       0.0       0.0       0.2
 5 C  dxy             0.0       0.0       0.0       0.0       0.2       0.1
 6 H  s               1.4       0.3       0.0       0.1       8.8       0.1
 6 H  pz              0.0       0.0       0.0       0.0       0.0       0.1
 6 H  px              0.1       0.0       0.0       0.0       0.1       0.0
 6 H  py              0.0       0.0       0.0       0.1       0.0       0.0
 7 H  s               0.4       0.7       0.9       6.5       0.6       3.2
 7 H  pz              0.0       0.0       0.0       0.2       0.0       0.0
 8 H  s               1.1       0.3       1.8       5.3       0.2       0.8
 8 H  pz              0.0       0.0       0.0       0.1       0.0       0.1
 8 H  px              0.0       0.0       0.0       0.0       0.1       0.0
 9 H  s               2.1       0.8       2.2       5.3       0.9       0.1
 9 H  pz              0.0       0.0       0.1       0.1       0.0       0.0
 9 H  px              0.0       0.0       0.0       0.0       0.0       0.1
 9 H  py              0.2       0.0       0.0       0.0       0.0       0.0
10 H  s               5.6       0.0       4.1       4.2       0.2       0.1
10 H  py              0.2       0.0       0.1       0.1       0.0       0.0
11 H  s               1.9       3.4       0.3       0.1       5.3       1.1
11 H  px              0.0       0.0       0.1       0.0       0.1       0.0
11 H  py              0.0       0.2       0.0       0.0       0.0       0.1
12 H  s               2.2       2.7       2.0       0.1       6.7       5.5
12 H  pz              0.0       0.1       0.0       0.0       0.0       0.1
12 H  py              0.0       0.1       0.1       0.0       0.1       0.1
13 H  s               0.0       5.2       1.1       0.5       0.8       7.4
13 H  pz              0.0       0.1       0.0       0.0       0.0       0.1
13 H  py              0.0       0.1       0.0       0.0       0.1       0.0

                     18        19        20        21        22        23   
                  -0.35034  -0.33242  -0.32828  -0.32080  -0.27538  -0.23825
                   2.00000   2.00000   2.00000   2.00000   2.00000   2.00000
                  --------  --------  --------  --------  --------  --------
 0 C  s               0.0       0.6       0.0       0.0       0.0       0.0
 0 C  pz              5.8      16.3       2.8       0.0       0.0       0.0
 0 C  px             12.1       4.1       4.0       4.7       0.1       0.7
 0 C  py             11.1       0.7      17.4       0.1       0.4       0.1
 0 C  dxz             0.0       0.1       0.2       0.0       0.0       0.0
 0 C  dyz             0.0       0.0       0.6       0.0       0.0       0.0
 0 C  dx2y2           0.3       0.1       0.0       0.0       0.0       0.1
 0 C  dxy             0.2       0.0       0.0       0.1       0.0       0.0
 1 C  s               0.2       0.3       0.0       0.1       0.0       0.6
 1 C  pz              1.4      19.3       2.9       0.1       0.0       0.1
 1 C  px              0.9       1.8       3.6       6.3       0.1       4.3
 1 C  py              1.1       1.2      14.1       0.0       0.2       3.3
 1 C  dz2             0.1       0.0       0.1       0.1       0.0       0.0
 1 C  dxz             0.0       0.3       0.2       0.0       0.0       0.0
 1 C  dyz             0.0       0.1       0.6       0.0       0.0       0.0
 1 C  dx2y2           0.1       0.2       0.0       0.1       0.0       0.1
 1 C  dxy             0.2       0.0       0.0       0.1       0.0       0.0
 2 C  s               0.3       0.0       0.0       0.8       0.0       0.3
 2 C  pz              0.4       5.8       0.3       0.1       0.2       0.1
 2 C  px              6.9       0.4       0.3       0.8       0.0       1.4
 2 C  py              0.0       0.3       0.5       5.2       0.0       0.7
 2 C  dz2             0.0       0.0       0.0       0.0       0.2       0.0
 2 C  dxz             0.0       0.2       0.1       0.1       0.1       0.0
 2 C  dyz             0.0       0.4       0.0       0.1       1.6       0.4
 2 C  dx2y2           0.0       0.1       0.1       0.7       0.0       0.3
 2 C  dxy             0.1       0.0       0.2       0.0       0.3       3.4
 3 O  s               0.0       0.0       0.1       1.1       0.0       0.0
 3 O  pz              0.6      18.6       0.0       0.3      26.8       7.0
 3 O  px              8.4       1.8       0.0       0.2       3.1      60.3
 3 O  py              0.7       0.0       1.2       9.7       0.4       1.6
 3 O  dyz             0.0       0.2       0.0       0.0       0.1       0.1
 3 O  dx2y2           0.0       0.0       0.0       0.4       0.0       0.0
 3 O  dxy             0.2       0.0       0.0       0.0       0.0       0.6
 4 O  s               0.5       0.0       0.0       4.2       0.0       0.3
 4 O  pz              0.6       3.1       0.5       0.1      45.0       0.2
 4 O  px              0.1       0.4       0.9       3.6       3.8       0.9
 4 O  py              2.3       0.2       1.7      30.5       0.2       7.9
 4 O  dz2             0.0       0.2       0.0       0.1       0.1       0.2
 4 O  dxz             0.3       0.3       0.4       0.4       0.2       0.0
 4 O  dyz             0.1       0.2       0.1       0.0       0.7       0.0
 4 O  dx2y2           0.0       0.0       0.0       1.3       0.1       0.2
 4 O  dxy             0.2       0.0       0.1       0.8       0.0       0.1
 5 C  s               0.0       0.0       0.0       0.3       0.0       0.2
 5 C  pz              2.6       4.8       0.2       0.1       4.7       0.1
 5 C  px              0.2       0.4       0.7       1.5       0.3       0.8
 5 C  py              7.0       0.0       0.9      10.0       0.0       0.2
 5 C  dz2             0.0       0.0       0.0       0.1       0.1       0.0
 5 C  dxz             0.1       0.1       0.0       0.1       0.5       0.0
 5 C  dyz             0.0       0.1       0.0       0.0       0.5       0.0
 5 C  dx2y2           0.0       0.0       0.0       0.1       0.1       0.1
 5 C  dxy             0.2       0.0       0.0       0.3       0.0       0.0
 6 H  s              13.9       0.1       0.2       3.1       0.0       0.9
 6 H  pz              0.0       0.2       0.0       0.0       0.0       0.0
 6 H  px              0.2       0.0       0.0       0.0       0.0       0.0
 6 H  py              0.0       0.0       0.2       0.0       0.0       0.0
 7 H  s               1.2       0.6      13.5       0.8       0.2       0.0
 7 H  pz              0.0       0.1       0.1       0.0       0.0       0.0
 7 H  py              0.2       0.0       0.0       0.0       0.0       0.0
 8 H  s               7.2       3.5       8.4       0.0       0.2       0.3
 8 H  pz              0.0       0.1       0.1       0.0       0.0       0.0
 8 H  px              0.1       0.0       0.0       0.0       0.0       0.0
 8 H  py              0.1       0.1       0.0       0.0       0.0       0.0
 9 H  s               0.7       1.6      13.1       1.3       0.1       0.1
10 H  s               1.8       5.4       7.2       0.0       0.0       1.4
10 H  pz              0.0       0.1       0.1       0.0       0.0       0.0
10 H  px              0.0       0.0       0.0       0.0       0.0       0.1
10 H  py              0.0       0.1       0.0       0.0       0.0       0.0
11 H  s               3.7       2.7       0.0       2.5       4.7       0.0
12 H  s               4.7       0.1       1.0       3.5       0.0       0.1
13 H  s               0.1       1.8       0.7       3.2       4.8       0.0

                     24        25        26        27        28        29   
                  -0.01612   0.06508   0.09799   0.12156   0.12647   0.14010
                   0.00000   0.00000   0.00000   0.00000   0.00000   0.00000
                  --------  --------  --------  --------  --------  --------
 0 C  s               2.3       4.8       1.0      30.2       4.3       0.1
 0 C  pz              2.2       1.7       0.3       1.2      14.2       3.3
 0 C  px              0.6       2.3       1.6       6.9       6.8       1.0
 0 C  py              0.0       0.3       0.0       1.1       0.1       2.6
 0 C  dz2             0.0       0.1       0.1       0.1       0.9       0.3
 0 C  dxz             0.0       0.4       0.1       0.0       0.7       0.0
 0 C  dyz             0.0       0.0       0.0       0.0       0.1       0.4
 0 C  dx2y2           0.1       0.0       0.0       0.1       0.0       0.1
 0 C  dxy             0.1       0.0       0.1       0.0       0.2       0.0
 1 C  s               0.1       8.2       1.2       3.5      13.5       3.0
 1 C  pz              0.2       1.2       1.1       2.6      14.2       3.6
 1 C  px              0.8       0.4       0.5       5.8       1.9       9.0
 1 C  py              0.1       0.2       0.3       0.6       0.2       7.0
 1 C  dz2             0.0       0.0       0.0       0.4       0.7       0.0
 1 C  dxz             1.5       0.0       0.1       0.2       0.1       0.1
 1 C  dyz             0.2       0.0       0.1       0.0       0.0       0.0
 1 C  dx2y2           0.2       0.1       0.1       0.1       0.0       1.8
 1 C  dxy             0.0       0.0       0.1       0.0       0.0       1.0
 2 C  s               0.0       8.6       3.8       0.3       0.8       3.1
 2 C  pz             35.3       0.1       0.0       3.3       2.0       3.0
 2 C  px              3.0       1.9       0.3       2.0       1.3       0.5
 2 C  py              0.3       0.5       2.2       0.3       0.0       1.8
 2 C  dz2             0.1       1.1       0.3       0.0       0.3       0.5
 2 C  dxz             0.4       0.4       0.0       0.0       0.0       0.2
 2 C  dyz             0.6       0.0       0.0       0.0       0.0       0.0
 2 C  dx2y2           0.1       0.1       0.9       0.0       0.0       0.1
 2 C  dxy             0.0       0.0       0.1       0.0       0.0       0.1
 3 O  s               0.0       1.3       1.1       0.0       0.1       0.0
 3 O  pz             22.0       0.0       0.0       0.5       0.0       0.1
 3 O  px              2.0       0.5       0.1       1.0       0.7       0.0
 3 O  py              0.2       0.2       0.4       0.0       0.0       0.3
 3 O  dz2             0.0       1.4       0.6       0.2       0.5       0.8
 3 O  dxz             0.4       0.3       0.3       0.1       0.0       0.8
 3 O  dyz             5.6       0.0       0.1       0.5       0.1       0.1
 3 O  dx2y2           0.2       0.0       0.0       0.1       0.2       2.6
 3 O  dxy             0.4       0.3       0.4       0.0       0.0       0.2
 4 O  s               0.0       8.8       2.0       0.7       0.3       0.0
 4 O  pz              8.6       0.1       0.4       0.1       0.2       0.1
 4 O  px              0.8       1.4       5.2       0.6       0.5       0.9
 4 O  py              0.1       1.2       0.9       0.1       0.3       2.0
 4 O  dz2             1.5       1.9       3.3       0.1       0.0       0.6
 4 O  dxz             2.6       0.8       1.7       0.2       0.0       0.0
 4 O  dyz             1.7       0.0       0.0       0.6       0.6       0.4
 4 O  dx2y2           0.2       0.1       2.6       0.1       0.2       2.3
 4 O  dxy             0.2       0.1       2.2       1.0       0.0       4.7
 5 C  s               0.0       3.7      22.8       3.1       8.6       0.6
 5 C  pz              0.1       1.3       1.6       0.8       0.9       0.6
 5 C  px              0.0      23.1      20.0       1.6       2.8       2.4
 5 C  py              0.0       5.2       2.3       1.4       2.4       9.9
 5 C  dz2             0.0       0.7       0.1       0.1       0.1       0.1
 5 C  dxz             0.2       0.6       0.2       0.1       0.1       0.0
 5 C  dyz             0.2       0.0       0.0       0.0       0.1       0.1
 5 C  dx2y2           0.0       1.1       0.6       0.2       0.1       0.0
 5 C  dxy             0.0       0.5       0.4       0.1       0.1       0.7
 6 H  s               0.9       1.0       1.0       2.6       1.6       0.7
 6 H  pz              0.0       0.3       0.1       0.3       0.4       0.1
 6 H  px              0.2       0.1       0.0       1.5       0.0       0.0
 6 H  py              0.0       0.0       0.1       0.5       0.0       0.0
 7 H  s               0.1       1.0       0.0       3.8       1.0       0.3
 7 H  pz              0.1       0.0       0.0       0.6       0.9       0.1
 7 H  px              0.0       0.5       0.0       0.5       0.0       0.0
 7 H  py              0.0       0.1       0.0       1.2       0.3       0.4
 8 H  s               0.1       0.4       0.2       5.5       0.2       0.0
 8 H  pz              0.1       0.0       0.0       0.1       0.3       0.6
 8 H  px              0.0       0.0       0.1       0.0       0.5       0.1
 8 H  py              0.0       0.3       0.1       2.6       0.1       0.0
 9 H  s               1.0       0.9       0.6       0.7       1.0       0.8
 9 H  pz              0.0       0.3       0.0       0.0       1.6       0.0
 9 H  px              0.1       0.3       0.1       0.4       0.0       0.1
 9 H  py              0.0       0.1       0.0       0.3       0.2       1.7
10 H  s               1.0       0.5       0.8       1.2       0.6       9.4
10 H  pz              0.0       0.1       0.2       0.1       0.8       0.0
10 H  px              0.0       0.0       0.0       0.0       0.1       1.0
10 H  py              0.1       0.3       0.1       0.9       0.5       2.6
11 H  s               0.6       1.4       3.1       0.6       2.4       0.2
11 H  pz              0.0       0.9       0.4       0.5       0.8       0.0
11 H  px              0.0       0.4       0.9       0.0       0.0       0.1
11 H  py              0.0       0.0       0.4       0.0       0.1       0.0
12 H  s               0.0       0.3       1.8       0.5       1.9       5.7
12 H  pz              0.0       0.0       0.1       0.0       0.1       0.1
12 H  px              0.0       0.4       1.1       0.0       0.1       0.7
12 H  py              0.0       0.7       0.2       0.5       1.2       1.1
13 H  s               0.6       1.3       3.2       2.1       1.2       0.4
13 H  pz              0.0       0.2       1.0       0.3       0.5       0.3
13 H  px              0.0       1.1       0.2       0.2       0.2       0.1
13 H  py              0.0       0.0       0.5       0.1       0.1       0.0

                     30        31        32        33        34        35   
                   0.15962   0.16760   0.17554   0.18213   0.18535   0.18665
                   0.00000   0.00000   0.00000   0.00000   0.00000   0.00000
                  --------  --------  --------  --------  --------  --------
 0 C  s               0.0       0.0       0.1       0.0       1.8       0.0
 0 C  pz              1.0       2.0       4.1       5.5      15.9       3.5
 0 C  px              5.0       1.9       6.2      14.9       0.5       1.8
 0 C  py             10.7      10.6       0.9       1.3       1.1       0.7
 0 C  dz2             0.2       0.0       0.5       0.0       0.0       0.0
 0 C  dxz             0.4       0.7       0.4       0.2       0.1       0.0
 0 C  dyz             0.7       1.0       0.3       0.4       0.2       0.1
 0 C  dx2y2           0.0       1.3       0.2       0.7       0.6       0.6
 0 C  dxy             0.2       0.1       0.0       1.1       0.2       0.6
 1 C  s               0.2       0.2       0.6       0.8       1.7       0.4
 1 C  pz              2.8       1.1       4.8       6.0       0.1       0.5
 1 C  px              4.7       3.8       1.4       1.8      21.1       1.0
 1 C  py             19.9       1.0       0.4       3.4       5.5       1.1
 1 C  dz2             0.2       0.1       0.0       0.4       0.6       0.4
 1 C  dxz             0.5       0.0       0.1       0.0       0.8       0.0
 1 C  dyz             2.5       0.0       0.2       0.0       0.0       0.0
 1 C  dx2y2           0.0       0.5       0.0       0.0       0.4       0.1
 1 C  dxy             0.4       0.8       0.0       0.2       0.8       0.1
 2 C  s               0.1       0.7       0.4       0.4       4.6       1.2
 2 C  pz              1.3       1.5       9.8       1.7       0.6       0.8
 2 C  px              1.1       0.5       1.4       0.3       4.1       0.2
 2 C  py              1.1      17.4       1.0       0.0       0.9       0.4
 2 C  dz2             0.1       0.2       0.0       0.0       0.1       0.0
 2 C  dxz             0.0       0.0       0.1       0.0       0.0       0.1
 2 C  dx2y2           0.4       0.5       0.0       0.0       0.1       0.0
 2 C  dxy             0.5       0.5       0.0       0.0       0.0       0.0
 3 O  s               0.1       3.2       0.0       0.1       0.3       0.1
 3 O  pz              0.1       0.0       1.1       0.3       0.0       0.5
 3 O  px              0.2       0.4       0.1       0.1       0.3       0.1
 3 O  py              1.0       0.8       0.1       0.5       0.3       0.0
 3 O  dz2             0.1       0.2       0.1       0.0       2.3       0.0
 3 O  dxz             0.3       0.2       0.7       0.4       0.1       1.6
 3 O  dx2y2           0.3       0.8       0.1       0.2       0.1       0.3
 3 O  dxy             1.0       0.3       0.1       0.0       0.5       0.4
 4 O  s               0.1       0.4       0.1       0.1       0.0       0.0
 4 O  pz              0.1       0.1       0.7       0.6       0.4       2.2
 4 O  px              0.2       1.5       0.1       0.8       0.1       0.2
 4 O  py              0.2       0.9       0.0       0.3       0.1       0.2
 4 O  dz2             1.0       0.5       0.9       0.5       0.5       1.1
 4 O  dxz             0.0       0.3       0.4       0.1       1.4       1.5
 4 O  dyz             0.0       0.0       0.3       0.4       1.3       2.3
 4 O  dx2y2           0.5       0.5       0.1       0.3       0.1       0.5
 4 O  dxy             0.0       0.1       0.3       0.7       0.3       0.6
 5 C  s               1.0       0.9       0.0       0.0       1.2       0.4
 5 C  pz              0.6       4.8      35.4       4.5       1.4      17.7
 5 C  px              2.5       2.6       1.1       1.4       7.1       1.8
 5 C  py              0.1       2.2       3.2      10.0       0.4       2.6
 5 C  dz2             0.0       0.1       0.1       0.2       0.0       0.0
 5 C  dxz             0.0       0.0       0.3       0.0       0.0       0.1
 5 C  dyz             0.0       0.0       0.0       0.2       0.8       4.2
 5 C  dx2y2           0.0       0.1       0.0       0.0       0.1       0.0
 5 C  dxy             0.0       0.1       0.4       0.8       0.0       0.1
 6 H  s               0.2       1.4       0.4       9.4       2.5       4.5
 6 H  pz              0.1       0.2       0.2       0.0       0.3       0.0
 6 H  px              0.0       1.1       0.1       2.2       0.6       0.5
 6 H  py              0.0       0.7       0.0       0.9       0.0       0.1
 7 H  s               2.6       7.9       0.0       6.2       0.7       1.8
 7 H  pz              1.1       0.8       0.2       0.2       0.2       0.0
 7 H  px              0.2       1.2       0.2       0.1       0.1       0.0
 7 H  py              0.1       0.0       0.1       1.5       0.0       0.6
 8 H  s               3.2      10.6       2.2       0.3       1.8       0.9
 8 H  pz              0.3       1.0       0.0       0.5       0.0       0.1
 8 H  px              0.2       0.0       0.1       0.5       0.0       0.3
 8 H  py              0.8       1.3       0.6       0.3       0.0       0.1
 9 H  s              14.4       1.7       0.1       0.4       0.0       0.1
 9 H  pz              2.1       0.2       0.1       0.1       0.0       0.1
 9 H  px              0.8       0.9       0.2       0.0       0.8       0.1
 9 H  py              1.5       0.0       0.0       0.5       0.1       0.0
10 H  s               4.4       0.8       1.1       0.9       0.3       0.2
10 H  pz              1.6       0.0       0.0       0.1       0.0       0.0
10 H  px              0.1       0.5       0.0       0.2       0.8       0.0
10 H  py              1.0       0.2       0.4       0.1       0.2       0.2
11 H  s               0.2       0.1       5.6       3.5       4.2       8.3
11 H  pz              0.1       0.0       1.7       0.3       0.6       0.1
11 H  px              0.0       0.1       1.0       0.3       0.0       0.0
11 H  py              0.0       0.1       0.4       0.2       1.0       1.9
12 H  s               0.3       0.9       3.7       5.6       1.7       0.9
12 H  pz              0.0       0.0       0.0       0.1       0.6       3.1
12 H  px              0.0       0.0       0.6       1.0       0.0       0.0
12 H  py              0.1       0.0       0.7       1.5       0.8       0.0
13 H  s               0.4       0.2       0.8       0.5       1.4      19.8
13 H  pz              0.0       0.3       0.1       0.2       0.1       1.3
13 H  py              0.1       0.0       0.8       0.2       0.2       2.7

                     36        37        38        39        40        41   
                   0.19875   0.20855   0.21350   0.23354   0.25503   0.26377
                   0.00000   0.00000   0.00000   0.00000   0.00000   0.00000
                  --------  --------  --------  --------  --------  --------
 0 C  s               0.9       1.4       0.2       0.1       1.5       0.5
 0 C  pz              4.8       8.4       6.6       1.0       9.0       8.6
 0 C  px              4.4       4.0       3.7       5.7       3.7      19.0
 0 C  py             11.7       0.3       9.2      51.8       0.3       2.7
 0 C  dz2             0.4       1.1       0.0       0.0       0.1       0.0
 0 C  dxz             0.4       0.8       0.6       0.0       0.1       0.0
 0 C  dyz             0.1       0.2       0.9       0.0       0.0       0.1
 0 C  dx2y2           0.0       0.1       0.6       0.1       0.2       0.5
 0 C  dxy             0.7       0.1       0.0       0.0       0.3       0.4
 1 C  s               0.1       3.9       0.6       0.1       0.0       0.3
 1 C  pz              1.7      19.4       3.7       0.1      11.6       1.4
 1 C  px              0.6       2.0       0.3       0.3       4.0       0.4
 1 C  py              1.9       0.1       2.7       6.8       4.9       2.3
 1 C  dz2             0.1       0.1       0.1       0.0       1.3       0.0
 1 C  dxz             0.0       0.1       0.0       0.0       0.8       0.2
 1 C  dyz             0.0       0.1       0.6       0.0       0.1       0.2
 1 C  dx2y2           0.7       0.0       0.2       0.2       0.3       0.0
 1 C  dxy             0.3       0.0       0.1       0.1       0.0       0.3
 2 C  s               1.4       0.6       0.4       0.3       5.3       1.0
 2 C  pz              1.4       1.3       2.0       0.9       2.0      22.1
 2 C  px              2.6       0.8       0.1       0.3       0.8       0.7
 2 C  py              0.1       1.0       4.2       0.8       3.1       0.8
 2 C  dz2             0.4       0.0       0.0       0.0       0.6       0.5
 2 C  dxz             0.0       0.1       0.0       0.0       0.5       0.0
 2 C  dx2y2           0.0       0.0       0.0       0.1       0.7       0.1
 2 C  dxy             0.0       0.0       0.2       0.1       0.0       0.0
[...]
 5 C  dz2             0.2       0.1       0.0       0.0       0.1       2.4
 5 C  dxz             0.3       0.5       0.0       0.1       0.0       2.1
 5 C  dyz             8.6       5.8       0.7       0.1       0.0       0.2
 5 C  dx2y2           0.2       0.1       0.2       0.0       0.3       4.7
 5 C  dxy             0.0       0.5       0.0       0.2       0.8       3.0
 6 H  s               1.7       0.1       4.9       0.3       0.6       0.0
 6 H  pz              0.8       0.1       0.0       0.0       0.0       0.0
 6 H  px              4.7       0.0       9.3       0.4       1.4       0.0
 6 H  py              0.1       1.1       2.0       0.4       0.1       0.0
 7 H  s               1.9       3.3       4.5       0.7       0.2       0.0
 7 H  pz              2.5       4.0       4.1       1.1       0.4       0.0
 7 H  px              2.6       1.8       2.3       0.2       0.0       0.0
 7 H  py              0.8       1.6       5.7       0.6       0.3       0.0
 8 H  s               2.2       5.5       1.3       1.8       0.0       0.0
 8 H  pz              0.9       2.4       0.1       1.0       0.0       0.0
 8 H  px              0.2       0.0       0.4       0.4       0.0       0.0
 8 H  py              3.5      12.0       3.5       3.3       0.1       0.0
 9 H  s               0.0       1.7       0.8       5.2       2.1       0.0
 9 H  pz              0.1       1.3       1.1       5.8       2.6       0.0
 9 H  px              0.0       1.7       1.1       2.4       0.6       0.0
 9 H  py              0.5       1.3       0.9       3.1       1.1       0.0
10 H  s               2.7       0.0       0.6       7.0       0.1       0.0
10 H  pz              0.5       0.1       0.2       3.8       0.0       0.0
10 H  px              0.0       0.1       0.0       0.4       0.0       0.0
10 H  py              7.0       0.0       2.3      11.9       0.0       0.0
11 H  s               1.9       1.7       0.1       0.1       0.0       0.3
11 H  pz              2.2       2.3       0.1       0.2       0.1       0.7
11 H  px              0.9       0.6       0.0       0.0       0.1       0.0
11 H  py              2.0       1.4       0.2       0.0       0.0       0.1
12 H  s               0.2       0.0       0.0       0.0       0.0       0.2
12 H  pz              0.3       0.1       0.0       0.0       0.0       0.0
12 H  py              0.5       0.0       0.1       0.1       0.1       0.7
13 H  s               3.0       2.0       0.2       0.0       0.0       0.3
13 H  pz              4.1       2.5       0.4       0.0       0.0       0.4
13 H  px              0.1       0.0       0.0       0.0       0.1       0.3
13 H  py              2.8       2.3       0.2       0.0       0.0       0.1

                    156       157       158       159       160       161   
                   4.28844   4.44444  21.90555  21.96258  22.03488  22.27180
                   0.00000   0.00000   0.00000   0.00000   0.00000   0.00000
                  --------  --------  --------  --------  --------  --------
 0 C  s               0.0       0.0      90.8       4.0       0.7       4.2
 1 C  s               0.0       0.0       4.6      40.0      54.2       0.8
 1 C  px              0.1       0.0       0.0       0.0       0.0       0.0
 1 C  dx2y2           0.2       0.0       0.0       0.0       0.0       0.0
 1 C  dxy             0.2       0.0       0.0       0.0       0.0       0.0
 2 C  s               2.2       6.0       2.8       3.2       0.0      93.0
 2 C  pz              0.5       0.0       0.0       0.0       0.0       0.0
 2 C  px              3.3       0.3       0.0       0.0       0.0       0.0
 2 C  py              3.2       7.4       0.0       0.0       0.0       0.1
 2 C  dz2             0.8       1.6       0.0       0.0       0.0       0.0
 2 C  dxz             0.7       0.0       0.0       0.0       0.0       0.0
 2 C  dyz             1.3       0.0       0.0       0.0       0.0       0.0
 2 C  dx2y2           0.0       3.9       0.0       0.0       0.0       0.0
 2 C  dxy            10.1       0.5       0.0       0.0       0.0       0.0
 3 O  s               0.6      18.9       0.0       0.0       0.0       0.2
 3 O  px              0.3       1.1       0.0       0.0       0.0       0.0
 3 O  py              0.2      21.0       0.0       0.0       0.0       0.1
 3 O  dz2             0.2       8.4       0.0       0.0       0.0       0.0
 3 O  dxz             0.1       0.0       0.0       0.0       0.0       0.0
 3 O  dyz             0.1       0.1       0.0       0.0       0.0       0.0
 3 O  dx2y2           0.6      21.9       0.0       0.0       0.0       0.0
 3 O  dxy             1.4       3.9       0.0       0.0       0.0       0.0
 4 O  s               4.3       1.2       0.0       0.0       0.1       0.1
 4 O  pz              2.7       0.0       0.0       0.0       0.0       0.0
 4 O  px             24.2       0.4       0.0       0.0       0.0       0.1
 4 O  py              4.0       0.2       0.0       0.0       0.0       0.0
 4 O  dz2             1.1       0.5       0.0       0.0       0.0       0.0
 4 O  dxz             0.5       0.4       0.0       0.0       0.0       0.0
 4 O  dyz             3.2       0.0       0.0       0.0       0.0       0.0
 4 O  dx2y2           1.3       0.6       0.0       0.0       0.0       0.0
 4 O  dxy            24.6       0.2       0.0       0.0       0.0       0.0
 5 C  s               0.8       0.2       1.4      52.4      44.7       1.1
 5 C  pz              0.1       0.0       0.0       0.0       0.0       0.0
 5 C  px              2.2       0.2       0.0       0.0       0.0       0.0
 5 C  py              0.2       0.0       0.0       0.0       0.0       0.0
 5 C  dz2             0.4       0.0       0.0       0.0       0.0       0.0
 5 C  dxz             0.4       0.0       0.0       0.0       0.0       0.0
 5 C  dyz             0.1       0.0       0.0       0.0       0.0       0.0
 5 C  dx2y2           1.4       0.1       0.0       0.0       0.0       0.0
 5 C  dxy             1.1       0.3       0.0       0.0       0.0       0.0
11 H  pz              0.1       0.0       0.0       0.0       0.0       0.0
12 H  s               0.1       0.0       0.0       0.0       0.0       0.0
12 H  py              0.2       0.1       0.0       0.0       0.0       0.0

                    162       163   
                  43.67157  43.71864
                   0.00000   0.00000
                  --------  --------
 3 O  s              89.5      10.4
 4 O  s              10.4      89.5


                      *****************************
                      * MAYER POPULATION ANALYSIS *
                      *****************************

  NA   - Mulliken gross atomic population
  ZA   - Total nuclear charge
  QA   - Mulliken gross atomic charge
  VA   - Mayer's total valence
  BVA  - Mayer's bonded valence
  FA   - Mayer's free valence

  ATOM       NA         ZA         QA         VA         BVA        FA
  0 C      6.4691     6.0000    -0.4691     3.8195     3.8195     0.0000
  1 C      6.2879     6.0000    -0.2879     3.7797     3.7797     0.0000
  2 C      5.5939     6.0000     0.4061     3.7242     3.7242    -0.0000
  3 O      8.4133     8.0000    -0.4133     1.9530     1.9530    -0.0000
  4 O      8.1888     8.0000    -0.1888     1.9340     1.9340    -0.0000
  5 C      6.2983     6.0000    -0.2983     3.8050     3.8050     0.0000
  6 H      0.8464     1.0000     0.1536     0.9606     0.9606     0.0000
  7 H      0.8457     1.0000     0.1543     0.9625     0.9625     0.0000
  8 H      0.8393     1.0000     0.1607     0.9606     0.9606    -0.0000
  9 H      0.8401     1.0000     0.1599     0.9601     0.9601     0.0000
 10 H      0.8458     1.0000     0.1542     0.9622     0.9622     0.0000
 11 H      0.8390     1.0000     0.1610     0.9564     0.9564    -0.0000
 12 H      0.8507     1.0000     0.1493     0.9559     0.9559    -0.0000
 13 H      0.8416     1.0000     0.1584     0.9564     0.9564    -0.0000

  Mayer bond orders larger than 0.100000
B(  0-C ,  1-C ) :   0.8989 B(  0-C ,  6-H ) :   0.9700 B(  0-C ,  7-H ) :   0.9769 
B(  0-C ,  8-H ) :   0.9748 B(  1-C ,  2-C ) :   0.9480 B(  1-C ,  9-H ) :   0.9707 
B(  1-C , 10-H ) :   0.9747 B(  2-C ,  3-O ) :   1.8354 B(  2-C ,  4-O ) :   1.0330 
B(  4-O ,  5-C ) :   0.8604 B(  5-C , 11-H ) :   0.9638 B(  5-C , 12-H ) :   0.9690 
B(  5-C , 13-H ) :   0.9618 

-------
TIMINGS
-------

Total SCF time: 0 days 0 hours 0 min 13 sec 

Total time                  ....      13.022 sec
Sum of individual times     ....      12.975 sec  ( 99.6%)

SCF preparation             ....       0.050 sec  (  0.4%)
Fock matrix formation       ....      12.625 sec  ( 96.9%)
  Startup                   ....       0.003 sec  (  0.0% of F)
  Split-RI-J                ....       2.377 sec  ( 18.8% of F)
  XC integration            ....      10.208 sec  ( 80.9% of F)
    XC Preparation          ....       0.000 sec  (  0.0% of XC)
    Basis function eval.    ....       1.915 sec  ( 18.8% of XC)
    Density eval.           ....       3.266 sec  ( 32.0% of XC)
    XC-Functional eval.     ....       1.509 sec  ( 14.8% of XC)
    XC-Potential eval.      ....       3.278 sec  ( 32.1% of XC)
Diagonalization             ....       0.000 sec  (  0.0%)
Density matrix formation    ....       0.101 sec  (  0.8%)
Total Energy calculation    ....       0.003 sec  (  0.0%)
Population analysis         ....       0.101 sec  (  0.8%)
Orbital Transformation      ....       0.011 sec  (  0.1%)
Orbital Orthonormalization  ....       0.000 sec  (  0.0%)
DIIS solution               ....       0.078 sec  (  0.6%)
  MO trafo                  ....       0.000 sec  (  0.0 % of DIIS)
  Orb grad                  ....       0.000 sec  (  0.0 % of DIIS)
  Energy W gradient         ....       0.000 sec  (  0.0 % of DIIS)
  DIIS error                ....       0.007 sec  (  8.8 % of DIIS)
  DIIS work                 ....       0.065 sec  ( 82.9 % of DIIS)
  Form Q                    ....       0.000 sec  (  0.0 % of DIIS)
  Form QpQm                 ....       0.000 sec  (  0.0 % of DIIS)
  Exp/Cayley                ....       0.000 sec  (  0.0 % of DIIS)
  Orb update                ....       0.000 sec  (  0.0 % of DIIS)
  Wake-sleep                ....       0.001 sec  (  0.9 % of DIIS)
SOSCF solution              ....       0.006 sec  (  0.0%)
  MO trafo                  ....       0.006 sec  ( 99.0 % of SOSCF)
  Orb grad                  ....       0.000 sec  (  0.0 % of SOSCF)
  Rot update                ....       0.000 sec  (  0.0 % of SOSCF)
  Step                      ....       0.000 sec  (  0.0 % of SOSCF)
Finished LeanSCF after  13.0 sec

Maximum memory used throughout the entire LEANSCF-calculation: 17.3 MB


-------------------------------------------------------------------------------
                          DFT DISPERSION CORRECTION                            
                                                                               
                                DFTD4 V3.4.0                                   
-------------------------------------------------------------------------------
The R2SCAN3C composite method is recognized
Using three-body term ABC
Active option DFTDOPT                   ...         5   

-------------------------   ----------------
Dispersion correction           -0.003002863
-------------------------   ----------------

------------------   -----------------
gCP correction             0.009325993
------------------   -----------------

-------------------------   --------------------
FINAL SINGLE POINT ENERGY      -307.632127020632
-------------------------   --------------------


------------------------------------------------------------------------------
                              ORCA PROPERTY CALCULATIONS
------------------------------------------------------------------------------

GBWName                                 ... sp.gbw
Number of atoms                         ...     14
Number of basis functions               ...    164
Max core memory                         ...   1024 MB

Electric properties:
Dipole moment                           ... YES
Quadrupole moment                       ...  NO
Static polarizability (Dipole/Dipole)   ...  NO
Static polarizability (Dipole/Quad.)    ...  NO
Static polarizability (Quad./Quad.)     ...  NO
Static polarizability (Velocity)        ...  NO

Atomic electric properties:
Dipole moment                           ...  NO
Quadrupole moment                       ...  NO
Static polarizability                   ...  NO

Choice of electric origin               ... Center of mass
Position of electric origin             ...    -0.000015     0.000013    -0.000007

General magnetic properties:
Magnetizability                         ...  NO

EPR properties:
g-Tensor (aka g-matrix)                 ...  NO
Zero-Field splitting spin-orbit         ...  NO
Zero-field splitting spin-spin          ...  NO
Hyperfine couplings                     ...  NO (   0 nuclei)
Quadrupole couplings                    ...  NO (   0 nuclei)
Contact density                         ...  NO (   0 nuclei)

NMR properties:
Chemical shifts                         ...  NO (   0 nuclei)
Spin-rotation constants                 ...  NO (   0 nuclei)
Spin-spin couplings                     ...  NO (   0 nuclei,    0 pairs)

Choice of magnetic origin               ... GIAO
Position of magnetic origin             ...     0.000000     0.000000     0.000000

Properties with geometric perturbations:
SCF Hessian                             ...  NO
IR spectrum                             ...  NO
VCD spectrum                            ...  NO
X-ray spectroscopy properties:
SCF XES/XAS/RIXS spectra                ...  NO


-------------
DIPOLE MOMENT
-------------

Method             : SCF
Type of density    : Electron Density
Multiplicity       :   1
Irrep              :   0
Energy             :  -307.6384501508315452 Eh
Relativity type    : 
Basis              : AO
                                X                 Y                 Z
Electronic contribution:      2.427333396      -1.893278178       1.875135964
Nuclear contribution   :     -2.386043241       2.631369923      -2.046257856
                        -----------------------------------------
Total Dipole Moment    :      0.041290155       0.738091745      -0.171121892
                        -----------------------------------------
Magnitude (a.u.)       :      0.758793122
Magnitude (Debye)      :      1.928698840



--------------------
Rotational spectrum 
--------------------
 
Rotational constants in cm-1:             0.228641             0.079871             0.068268 
Rotational constants in MHz :          6854.497230          2394.481422          2046.608712 

Dipole components along the rotational axes: 
x,y,z [a.u.] :    -0.023389     0.750865     0.106874 
x,y,z [Debye]:    -0.059451     1.908546     0.271653 

 

Dipole moment calculation done in   0.0 sec 

Maximum memory used throughout the entire PROP-calculation: 9.9 MB

--------------------------------
SUGGESTED CITATIONS FOR THIS RUN
--------------------------------

Below you find a list of papers that are relevant to this ORCA run
We neither can nor want to force you to cite these papers, but we appreciate if you do
You receive ORCA, which is the product of decades of hard work by many enthusiastic individuals, for free
The only thing we kindly ask in return is that you cite our papers,
We deeply appreciate it, if you show your appreciation for ORCA by not just citing the generic ORCA reference.

Please note that relegating all ORCA citations to the supporting information does *not* help us.
SI sections are not indexed - citations you put there will not count into any citation statistics
But we need these citations in order to attract the funding resources that allow us to do what we are doing

Therefore, if you are a happy ORCA user, please consider citing a few of the papers listed below in the main body of your paper

In addition to the list printed below, the program has created the file sp.bibtex that contains the list in bibtex format
You can import this file easily into all common literature databanks and citation aid programs


List of essential papers. We consider these as the minimum necessary citations

  1. Neese,F.
     Software update: the ORCA program system, version 5.0
     WIRES Comput. Molec. Sci., 2022 12(1)e1606
     doi.org/10.1002/wcms.1606
  2. Grimme,S.; Hansen,A.; Ehlert,S.; Mewes,J.
     r2SCAN-3c: A 'Swiss army knife' composite electronic-structure method
     J. Chem. Phys., 2021 154 064103
     doi.org/10.1063/5.0040021

List of papers to cite with high priority. The work reported in these papers was absolutely
necessary for this run to complete.
Our perspective: the developers of density functionals and basis sets usually get cited in chemistry papers
Good! But without the algorithms to do something with them, the functionals or basis sets would not do anything.
Hence, in our opinion, the algorithm design and method developments papers are equally worthy of getting cited

  1. Neese,F.
     An improvement of the resolution of the identity approximation for the formation of the Coulomb matrix
     J. Comp. Chem., 2003 24(14)1740-1747
     doi.org/10.1002/jcc.10318
  2. Neese,F.
     The SHARK Integral Generation and Digestion System
     J. Comp. Chem., 2022  1-16
     doi.org/10.1002/jcc.26942
  3. Lehtola,S.; Steigemann,C.; Oliveira,M.; Marques,M.
     Recent developments in Libxc - A comprehensive library of functionals for density functional theory
     Software X, 2018 7 
     doi.org/10.1016/j.softx.2017.11.002
  4. Caldeweyher,E.; Bannwarth,C.; Grimme,S.
     Extension of the D3 dispersion coefficient model
     J. Chem. Phys., 2017 147 034112
     doi.org/10.1063/1.4993215
  5. Caldeweyher,E.; Ehlert,S.; Hansen,A.; Neugebauer,H.; Spicher,S.; Bannwarth,C.; Grimme,S.
     A generally applicable atomic-charge dependent London dispersion correction
     J. Chem. Phys., 2019 150 154122
     doi.org/10.1063/1.5090222
  6. Caldeweyher,E.; Mewes,J.; Ehlert,S.; Grimme,S.
     Extension and evaluation of the D4 London-dispersion model for periodic systems
     Phys. Chem. Chem. Phys., 2020 22(16)8499-8512
     doi.org/10.1039/D0CP00502A
  7. Wittmann,L.; Gordiy,I.; Friede,M.; Helmich-Paris,B.; Grimme,S.; Hansen,A.; Bursch,M.
     Extension of the D3 and D4 London Dispersion Corrections to the full Actinides Series
     Phys. Chem. Chem. Phys., 2024 26(32)21379-21394
     doi.org/https://doi.org/10.1039/D4CP01514B 

List of suggested additional citations. These are papers that are important in the 'surrounding' of 
of this run, or papers that preceded the highly important papers. If you like your results we are grateful for a citation.

  1. Neese,F.
     The ORCA program system
     WIRES Comput. Molec. Sci., 2012 2(1)73-78
     doi.org/10.1002/wcms.81
  2. Neese,F.
     Software update: the ORCA program system, version 4.0
     WIRES Comput. Molec. Sci., 2018 8(1)1-6
     doi.org/10.1002/wcms.1327
  3. Neese,F.; Wennmohs,F.; Becker,U.; Riplinger,C.
     The ORCA quantum chemistry program package
     J. Chem. Phys., 2020 152 Art. No. L224108
     doi.org/10.1063/5.0004608

List of optional additional citations

  1. Neese,F.
     Approximate second-order SCF convergence for spin unrestricted wavefunctions
     Chem. Phys. Lett., 2000 325(1-3)93-98
     doi.org/10.1016/s0009-2614(00)00662-x

Timings for individual modules:

Sum of individual times          ...       13.800 sec (=   0.230 min)
Startup calculation              ...        0.611 sec (=   0.010 min)   4.4 %
SCF iterations                   ...       13.125 sec (=   0.219 min)  95.1 %
Property calculations            ...        0.065 sec (=   0.001 min)   0.5 %
                             ****ORCA TERMINATED NORMALLY****
TOTAL RUN TIME: 0 days 0 hours 0 minutes 13 seconds 989 msec
