19
 energy: -26.288685936912 gnorm: 0.018255830905 xtb: 6.7.1 (41059b4)
C           -2.62692653545713        0.53326317161035        0.00933573592731
C           -1.23663009240978       -0.05441218286023       -0.00076822301401
C           -1.13829410000191       -1.45148563256793       -0.00246297687581
C            0.09516268470021       -2.08582238551502       -0.00400668573141
C            1.26378067393703       -1.33697508335939       -0.00098222470380
C            1.17463839405895        0.04942951905404        0.00131706764833
C           -0.06442095357740        0.71917968087499       -0.00321564623354
C           -0.04250330064688        2.22643268506895       -0.01021446842631
O            2.36179959824695        0.73494298088766        0.00710824805202
H           -2.64883087857252        1.62188923015174       -0.00391918757144
H           -3.19425334009134        0.18092935885159       -0.85850140812958
H           -3.16882121342870        0.20525913604224        0.90283791874981
H           -2.05052769914083       -2.04108146795370       -0.00186874205103
H            0.15049165723821       -3.16981199106710       -0.00608757393859
H            2.24361373578688       -1.80145029173598        0.00053013519741
H            0.41809026870645        2.62954546626127        0.90246156234435
H            0.51809623958612        2.61536889007683       -0.87146864264689
H           -1.03880401795653        2.65918480593437       -0.07311437862618
H            2.18699181122937        1.68176370499371        0.02230266343249
19
 energy: -26.289363306235 gnorm: 0.007215769807 xtb: 6.7.1 (41059b4)
C           -2.61906496752614        0.53007123953176        0.00923426227330
C           -1.23150800223231       -0.04932393074108       -0.00035967490903
C           -1.13535604818591       -1.44011258914212       -0.00206558848660
C            0.08935468324937       -2.07715720723841       -0.00414234428649
C            1.25261209122332       -1.33155012718939       -0.00110566277760
C            1.17108954829205        0.05298566491920        0.00086508807490
C           -0.06474560315596        0.71872577305177       -0.00328571621358
C           -0.04603545863166        2.22379475426707       -0.01083803706545
O            2.35579799012645        0.73573779477705        0.00768960921777
H           -2.63560831260563        1.61528323597508       -0.00452518530359
H           -3.17648129023216        0.17304100964750       -0.85815174022230
H           -3.15158213730767        0.19767143959054        0.90189809246052
H           -2.04485515642770       -2.02508279376718       -0.00139381878509
H            0.14154877639354       -3.15705192230656       -0.00612852258293
H            2.22695918461137       -1.79531697402147        0.00061330839546
H            0.41600179953363        2.61324674395710        0.90187594488525
H            0.51483766446844        2.60111037541369       -0.87179797849421
H           -1.04384391654868        2.64644766924908       -0.07175215166306
H            2.18353208716280        1.68362943877476        0.02265328888591
19
 energy: -26.289416567971 gnorm: 0.002443101308 xtb: 6.7.1 (41059b4)
C           -2.61960869575579        0.52672341488276        0.00911767761844
C           -1.23023292055227       -0.04663880319489       -0.00068702896142
C           -1.13523131505942       -1.43603252995920       -0.00196309050642
C            0.08686273737826       -2.07516412311559       -0.00408386303059
C            1.24848168999867       -1.32966477119398       -0.00101743654621
C            1.17097234748673        0.05493626943357        0.00088438552116
C           -0.06452844222757        0.71903707518845       -0.00370128833349
C           -0.04335816374023        2.22562350598639       -0.01098046707440
O            2.35438248320965        0.73570005309769        0.00808923603428
H           -2.64297530348880        1.61022086081204       -0.00457610567311
H           -3.17184212662390        0.16547698604358       -0.85766927070528
H           -3.14708559513078        0.19014662389041        0.90107951531258
H           -2.04470265519574       -2.01864069764587       -0.00093096937283
H            0.13778729601157       -3.15354143390955       -0.00613260305202
H            2.22158407430511       -1.79270209419521        0.00065055424577
H            0.41952585075765        2.60945146551522        0.90131570884868
H            0.51702920550397        2.59806809451429       -0.87178888072731
H           -1.03898302310442        2.64881163716313       -0.07098752146497
H            2.18457548843443        1.68433806143515        0.02266462127029
19
 energy: -26.289421389468 gnorm: 0.000883777843 xtb: 6.7.1 (41059b4)
C           -2.61918869272834        0.52739591095651        0.00883248712971
C           -1.22967010242035       -0.04626629789834       -0.00064559713037
C           -1.13539113583677       -1.43587628348318       -0.00182298894934
C            0.08662704869282       -2.07565806732652       -0.00402115833168
C            1.24819408478305       -1.32974294557990       -0.00105971504425
C            1.17195185241562        0.05520113660828        0.00086944674306
C           -0.06408451762803        0.71871425485157       -0.00370821520682
C           -0.04445522693171        2.22620401518844       -0.01084645579839
O            2.35502349567978        0.73500486875599        0.00818237606073
H           -2.64209501053767        1.61108618133994       -0.00499797445346
H           -3.17053179020056        0.16537158583775       -0.85804613074598
H           -3.14603879079684        0.19016653795562        0.90076379281233
H           -2.04548891016230       -2.01766227678057       -0.00069063907964
H            0.13734397922107       -3.15388490800958       -0.00600423062182
H            2.22157441571034       -1.79256162544219        0.00066539676510
H            0.41899415034478        2.60947631260406        0.90110239211146
H            0.51459694161241        2.59851497588043       -0.87227850040227
H           -1.04139204293512        2.64669732265662       -0.06962625671646
H            2.18668318392497        1.68396889663346        0.02261514426124
19
 energy: -26.289422339476 gnorm: 0.000458171250 xtb: 6.7.1 (41059b4)
C           -2.61985303429584        0.52715725819822        0.00837594946651
C           -1.22956870511432       -0.04602421926915       -0.00069300188075
C           -1.13567191192944       -1.43605380933603       -0.00169708934099
C            0.08651576945205       -2.07604404752502       -0.00378561791588
C            1.24804428865699       -1.32972325860013       -0.00095170188002
C            1.17267892267163        0.05548018462870        0.00097684941421
C           -0.06384406142365        0.71863573212001       -0.00360213939244
C           -0.04401311924277        2.22696508236455       -0.01049120585744
O            2.35534713566390        0.73462284004887        0.00811947985062
H           -2.64397828414666        1.61090861597148       -0.00558853513989
H           -3.17055463150318        0.16463540396050       -0.85876466188648
H           -3.14661451394782        0.18958243311694        0.90029036758888
H           -2.04633579782221       -2.01735011286955       -0.00048430999997
H            0.13733721672855       -3.15431186695218       -0.00570514253059
H            2.22190761255440       -1.79239027217778        0.00069838013157
H            0.42087250300608        2.60998829640380        0.90076701812998
H            0.51337710087215        2.59940239699986       -0.87289008045582
H           -1.04130806881048        2.64680545364558       -0.06736376570685
H            2.18831451083780        1.68386348401973        0.02207238080851
19
 energy: -26.289422684601 gnorm: 0.000128207493 xtb: 6.7.1 (41059b4)
C           -2.61968503852715        0.52722596859293        0.00815696306344
C           -1.22962229923391       -0.04615672128468       -0.00067952162524
C           -1.13560486914332       -1.43613067295522       -0.00165133280301
C            0.08657774428198       -2.07591561252224       -0.00365579505191
C            1.24809068490358       -1.32971167337388       -0.00086216478993
C            1.17249944851207        0.05540117019146        0.00099692181248
C           -0.06396249667979        0.71861447103300       -0.00349336006227
C           -0.04415296207933        2.22668342289470       -0.01027784410462
O            2.35517949401195        0.73471921959349        0.00801297500584
H           -2.64338993766109        1.61099637317077       -0.00591534616932
H           -3.17048019512642        0.16488365959267       -0.85904077011415
H           -3.14683375890580        0.18995152426379        0.89999707590050
H           -2.04614462327064       -2.01753187277220       -0.00052402278756
H            0.13751003496772       -3.15421611857697       -0.00551581631258
H            2.22188220629358       -1.79243112015476        0.00077192047040
H            0.42161432362530        2.60975947748774        0.90058407797572
H            0.51258025178409        2.59930279117154       -0.87310288363475
H           -1.04142937047169        2.64677968394266       -0.06620357951338
H            2.18802429492600        1.68392562445358        0.02168567614351
19
 energy: -26.289423130474 gnorm: 0.000196742816 xtb: 6.7.1 (41059b4)
C           -2.61959372081738        0.52719690816263        0.00748090617708
C           -1.22970296086606       -0.04624573652834       -0.00071162591063
C           -1.13558369603974       -1.43617254009604       -0.00156364037763
C            0.08658278433565       -2.07576505411417       -0.00329661882811
C            1.24808896362002       -1.32964957157671       -0.00057603449550
C            1.17233320680462        0.05538671951261        0.00111875800718
C           -0.06411613419870        0.71861465065131       -0.00323927345644
C           -0.04418057156836        2.22644346005119       -0.00968930230566
O            2.35496539356519        0.73486175831112        0.00784030994421
H           -2.64307671858131        1.61095476065303       -0.00690904151365
H           -3.17012900412688        0.16480320788628       -0.85986960446221
H           -3.14729900372463        0.19024690513179        0.89912430940733
H           -2.04602252001313       -2.01761723207694       -0.00059235246983
H            0.13766091105320       -3.15407918700112       -0.00498743016100
H            2.22178733300855       -1.79241125278629        0.00105826453600
H            0.42433456869790        2.60923345808601        0.89993511661661
H            0.51021039092080        2.59928213760424       -0.87398503685228
H           -1.04144206717935        2.64699252042766       -0.06247845315632
H            2.18783577731677        1.68407368245014        0.02062392270403
19
 energy: -26.289423963456 gnorm: 0.000463860142 xtb: 6.7.1 (41059b4)
C           -2.61954533820058        0.52717828516326        0.00589386112885
C           -1.22980358626786       -0.04634949835309       -0.00081062817591
C           -1.13557178997761       -1.43625822854498       -0.00134265620543
C            0.08659780544218       -2.07564924278218       -0.00246031380266
C            1.24811608856610       -1.32958890559744        0.00008401870655
C            1.17217428649826        0.05537222004928        0.00145059599414
C           -0.06429690005333        0.71860307436632       -0.00265474904503
C           -0.04419254625510        2.22621761325256       -0.00833638286777
O            2.35473793610176        0.73503037767882        0.00749776916852
H           -2.64276676859429        1.61093194324580       -0.00924751907443
H           -3.16933379016091        0.16448367738582       -0.86182662357491
H           -3.14832679673999        0.19082365288005        0.89714872563082
H           -2.04593155398300       -2.01774621272098       -0.00068771733948
H            0.13786792537331       -3.15397852701278       -0.00383222053757
H            2.22172919156913       -1.79240861864663        0.00168582752281
H            0.43057613492845        2.60835174605326        0.89840289771596
H            0.50458356272188        2.59957684492843       -0.87608676090583
H           -1.04164973587021        2.64728567331075       -0.05381445232755
H            2.18768880710894        1.68427372009213        0.01821950139209
19
 energy: -26.289425012852 gnorm: 0.000503335685 xtb: 6.7.1 (41059b4)
C           -2.61963042982335        0.52709441308052        0.00392584105759
C           -1.22985804301961       -0.04634869701330       -0.00090980173018
C           -1.13557941972565       -1.43625732310063       -0.00099994700174
C            0.08658232924657       -2.07562099803790       -0.00143612466487
C            1.24811202233549       -1.32954796106143        0.00079993576094
C            1.17211394301501        0.05539158395533        0.00180619847418
C           -0.06437209977612        0.71861765268528       -0.00194610535650
C           -0.04406259678526        2.22620900541821       -0.00662831282075
O            2.35464160594059        0.73513263970936        0.00697015817051
H           -2.64291055861812        1.61082133212007       -0.01220019860063
H           -3.16828842100614        0.16377733991193       -0.86424335497335
H           -3.14952144384431        0.19132381299417        0.89473283709273
H           -2.04592408958190       -2.01775672756998       -0.00059040114503
H            0.13790780460091       -3.15394338857176       -0.00236686769089
H            2.22169293531619       -1.79239228263781        0.00229280525012
H            0.43790054540149        2.60742584950681        0.89672175795089
H            0.49800670233122        2.60019762097224       -0.87835530913579
H           -1.04174936092135        2.64762232701168       -0.04350180592417
H            2.18759150712148        1.68440339537560        0.01521186869011
19
 energy: -26.289426494705 gnorm: 0.000356847657 xtb: 6.7.1 (41059b4)
C           -2.61976184615276        0.52704757327985        0.00112579412037
C           -1.22984527496101       -0.04627987646214       -0.00109511689418
C           -1.13559376050849       -1.43621706967144       -0.00048268115858
C            0.08656952379514       -2.07569868974579        0.00006790157286
C            1.24810992920689       -1.32955679053432        0.00175391849928
C            1.17217884702776        0.05541739970363        0.00213421976769
C           -0.06432857971804        0.71862780781573       -0.00110351975468
C           -0.04393375072888        2.22636646472925       -0.00413863071922
O            2.35470964157196        0.73512901225022        0.00611520377168
H           -2.64322105345638        1.61075071715093       -0.01674745105800
H           -3.16683413485439        0.16247420532378       -0.86750446022431
H           -3.15101773744785        0.19230340801216        0.89148978298730
H           -2.04598906382561       -2.01770350617721       -0.00047458051671
H            0.13781642663098       -3.15400557454225       -0.00022912430942
H            2.22173121347541       -1.79238568742949        0.00315584066685
H            0.44782107786840        2.60617032894678        0.89451154332459
H            0.48867478981418        2.60148669404060       -0.88120846175503
H           -1.04201082083100        2.64780416232696       -0.02901969801920
H            2.18757750530086        1.68441901573114        0.01093269310187
19
 energy: -26.289428022762 gnorm: 0.000185001954 xtb: 6.7.1 (41059b4)
C           -2.61993284925242        0.52696007332024       -0.00224274919390
C           -1.22981207824213       -0.04617341887409       -0.00141714456506
C           -1.13561615441307       -1.43613327078835       -0.00008434878451
C            0.08654896226223       -2.07579675695527        0.00170015409756
C            1.24808625730926       -1.32958295486720        0.00283399681352
C            1.17227130575363        0.05545236924174        0.00247313074743
C           -0.06422622748199        0.71865739563505       -0.00015609497179
C           -0.04372924792990        2.22659908432244       -0.00105165969605
O            2.35483482132070        0.73509294114594        0.00488721190412
H           -2.64373931931127        1.61060503692553       -0.02298075916755
H           -3.16543105473399        0.16022471790772       -0.87093256369330
H           -3.15242920485314        0.19406179756061        0.88804741830249
H           -2.04606986442912       -2.01760956076904       -0.00040775733325
H            0.13762442444853       -3.15408659117092        0.00241705393775
H            2.22178409873797       -1.79235324923540        0.00427990218918
H            0.45925538340107        2.60458445416382        0.89209828185984
H            0.47779640580171        2.60329449570297       -0.88407519536676
H           -1.04208249461555        2.64797763985730       -0.01192120230762
H            2.18751976843464        1.68437539162532        0.00581549863106
19
 energy: -26.289429505681 gnorm: 0.000219048387 xtb: 6.7.1 (41059b4)
C           -2.61997490939236        0.52698854790159       -0.00565599873816
C           -1.22974847348223       -0.04610751116685       -0.00189159989652
C           -1.13562465145355       -1.43608391699382        0.00031246212628
C            0.08655010129892       -2.07590414211735        0.00346962176827
C            1.24808362932660       -1.32963795743171        0.00391624881997
C            1.17238629538314        0.05545988990833        0.00264153599576
C           -0.06410784502615        0.71865333953048        0.00066875695814
C           -0.04371527244644        2.22676479888994        0.00220599621911
O            2.35498727127559        0.73500650052531        0.00361153189519
H           -2.64389298868697        1.61056702344360       -0.03055575755723
H           -3.16443201368458        0.15713751991091       -0.87365945407140
H           -3.15330370948955        0.19707081274051        0.88524308235650
H           -2.04613703919375       -2.01754070100337       -0.00072649997816
H            0.13746176002259       -3.15418103148541        0.00487107552418
H            2.22185951971386       -1.79234043657248        0.00535952967393
H            0.47020956615035        2.60288957501136        0.88985848187295
H            0.46677187228154        2.60528382422602       -0.88645307849510
H           -1.04225578812541        2.64785314111481        0.00523124582048
H            2.18753560773554        1.68427031831652        0.00083599310899
19
 energy: -26.289431483239 gnorm: 0.000340493724 xtb: 6.7.1 (41059b4)
C           -2.61996976995327        0.52704598320665       -0.00929141691707
C           -1.22968202309922       -0.04606820747108       -0.00246856416213
C           -1.13562971704634       -1.43605114901206        0.00038415537999
C            0.08655853345463       -2.07600144199306        0.00491476644772
C            1.24808524084522       -1.32970060412893        0.00486402535230
C            1.17249194750711        0.05545537024291        0.00283854594938
C           -0.06398560253507        0.71864334604093        0.00159120300714
C           -0.04375029859120        2.22689361198084        0.00581671747067
O            2.35514118926215        0.73490728889252        0.00222141170863
H           -2.64393305684448        1.61050217941506       -0.04026340084595
H           -3.16399957940906        0.15262029327716       -0.87559294349386
H           -3.15359916228790        0.20172171609181        0.88313251716419
H           -2.04618604255084       -2.01749958696400       -0.00114776207970
H            0.13731588727795       -3.15427132219406        0.00744748723717
H            2.22193455416385       -1.79233542067987        0.00643537332882
H            0.48116550693930        2.60100399993387        0.88778900582616
H            0.45540294644171        2.60755647668663       -0.88829582382583
H           -1.04227692942071        2.64759224549038        0.02308624173984
H            2.18756930805334        1.68413481593271       -0.00417836588430
19
 energy: -26.289433722048 gnorm: 0.000519753370 xtb: 6.7.1 (41059b4)
C           -2.61994725029952        0.52710136474033       -0.01286198495533
C           -1.22962783329365       -0.04604786495744       -0.00310738718684
C           -1.13562907258231       -1.43602987249928        0.00054284968624
C            0.08656344361842       -2.07607450041047        0.00647063785399
C            1.24808342542908       -1.32974231515146        0.00581599638521
C            1.17256735282050        0.05545332427046        0.00304175756465
C           -0.06389911864448        0.71862187203010        0.00247109398356
C           -0.04379565558232        2.22697394374513        0.00938304058536
O            2.35524408298623        0.73484543958448        0.00103157117089
H           -2.64390228872058        1.61039292228308       -0.05034453413653
H           -3.16377847649236        0.14778889898153       -0.87715697304727
H           -3.15370141505950        0.20679074195496        0.88133133048275
H           -2.04621234539944       -2.01747172771890       -0.00169646708346
H            0.13721907085963       -3.15433099635362        0.00967320041520
H            2.22197522930948       -1.79233163013331        0.00731912400621
H            0.49190572785261        2.59912758630566        0.88582241346828
H            0.44431532174547        2.60967956152420       -0.89009922167487
H           -1.04231416008298        2.64735406880399        0.04058127380169
H            2.18758689374283        1.68404877774897       -0.00893454791655
19
 energy: -26.289436401116 gnorm: 0.000612840785 xtb: 6.7.1 (41059b4)
C           -2.61984919714890        0.52721668096631       -0.01582959385113
C           -1.22955668107205       -0.04605203228676       -0.00369413966141
C           -1.13562236213601       -1.43602876048894        0.00047609610669
C            0.08656975245246       -2.07616017430846        0.00753122108837
C            1.24808916121626       -1.32980159278906        0.00653023530765
C            1.17265485539857        0.05542990580037        0.00323176217970
C           -0.06380939909199        0.71857521208320        0.00322482080253
C           -0.04395303604430        2.22699934552024        0.01242948020953
O            2.35536652679317        0.73474733928385        0.00012819024285
H           -2.64364871953474        1.61031779611917       -0.05967723300606
H           -3.16392109316381        0.14312299951219       -0.87785217598234
H           -3.15333882931077        0.21190469634434        0.88032712103740
H           -2.04623367249252       -2.01745470000696       -0.00234445415438
H            0.13713968845570       -3.15440282842411        0.01144357043379
H            2.22200740736885       -1.79236410394689        0.00811659767205
H            0.50041408028538        2.59763262010370        0.88411167782474
H            0.43492226147382        2.61160250624583       -0.89118726654233
H           -1.04224691044196        2.64694702153348        0.05507820362939
H            2.18766909920000        1.68391766348691       -0.01276093993387
19
 energy: -26.289439680139 gnorm: 0.000756678579 xtb: 6.7.1 (41059b4)
C           -2.61975049653810        0.52734588374312       -0.01890797419405
C           -1.22948922228831       -0.04606381673681       -0.00435001199968
C           -1.13561543508019       -1.43604110201456        0.00036029246329
C            0.08658667852883       -2.07623852116733        0.00862595761280
C            1.24810392953321       -1.32985277107723        0.00727862847568
C            1.17274425543277        0.05541304543130        0.00345739726449
C           -0.06371718717578        0.71853530136913        0.00400255653621
C           -0.04411415772981        2.22702555253458        0.01560209948545
O            2.35548666360310        0.73466308461826       -0.00070652779332
H           -2.64338605872685        1.61020143135393       -0.06979241296415
H           -3.16426982247621        0.13798780629038       -0.87829318116671
H           -3.15282837778486        0.21763147161300        0.87949924880218
H           -2.04625080950463       -2.01746209881702       -0.00309180009629
H            0.13708757913504       -3.15447230160904        0.01313468035950
H            2.22205283405939       -1.79239522358883        0.00887627510198
H            0.50923805004472        2.59605256529062        0.88239131398966
H            0.42521999290274        2.61354869778822       -0.89231317023303
H           -1.04219684414269        2.64647507892703        0.07011358556205
H            2.18775136041479        1.68379551079966       -0.01660378380288
19
 energy: -26.289443658840 gnorm: 0.000774838201 xtb: 6.7.1 (41059b4)
C           -2.61957091746035        0.52752146326263       -0.02116114225889
C           -1.22940218606673       -0.04610426403262       -0.00496279747432
C           -1.13559823929282       -1.43606658478472        0.00008924867794
C            0.08660257693166       -2.07631660378248        0.00925652896341
C            1.24811794952080       -1.32991480633772        0.00775331137064
C            1.17282829082964        0.05537797270998        0.00362099432618
C           -0.06362861411305        0.71846634482703        0.00454952758910
C           -0.04437267010031        2.22699660422332        0.01804620268562
O            2.35560078687017        0.73456238194983       -0.00120169512752
H           -2.64291794972297        1.61008447566057       -0.07863349856066
H           -3.16503798215521        0.13324588617003       -0.87768282907090
H           -3.15178263217122        0.22319190055917        0.87963135119953
H           -2.04625062528641       -2.01747219848453       -0.00394670277429
H            0.13705243239842       -3.15453516893132        0.01413805264342
H            2.22207543117395       -1.79244902392853        0.00942233647255
H            0.51509034827440        2.59492561600149        0.88119112043666
H            0.41806402337108        2.61512740875610       -0.89257587091482
H           -1.04207928090563        2.64585423462644        0.08095465533811
H            2.18786219011173        1.68365395628376       -0.01920562011857
19
 energy: -26.289448376424 gnorm: 0.001059901304 xtb: 6.7.1 (41059b4)
C           -2.61943661229685        0.52770749844725       -0.02454435846259
C           -1.22932971209826       -0.04614141206528       -0.00569062762250
C           -1.13558615742824       -1.43610701484611       -0.00014259682361
C            0.08664252220301       -2.07641008836444        0.01029487832411
C            1.24815904199306       -1.32998330942921        0.00848569595681
C            1.17292779917794        0.05534776983717        0.00388543822279
C           -0.06352143465203        0.71841622054166        0.00543188287637
C           -0.04458945623428        2.22701405889044        0.02155919838648
O            2.35573601077748        0.73448343922356       -0.00201909940569
H           -2.64254527883793        1.60991879864267       -0.09044418194664
H           -3.16569168503864        0.12716968345916       -0.87771662642957
H           -3.15097126457204        0.23018561480297        0.87903501852621
H           -2.04625916081276       -2.01752457921063       -0.00480408286562
H            0.13702487437622       -3.15462982807852        0.01589760213758
H            2.22215696770943       -1.79249892003833        0.01018097926766
H            0.52462924906871        2.59316659392664        0.87945760642630
H            0.40751588312629        2.61726073656954       -0.89373810985011
H           -1.04213564995295        2.64524800765322        0.09737163947416
H            2.18792699569898        1.68352632478664       -0.02321708278895
19
 energy: -26.282854990855 gnorm: 0.063584732312 xtb: 6.7.1 (41059b4)
C           -2.61514296815627        0.53335964744973       -0.11546679513790
C           -1.22723739852860       -0.04742072318805       -0.02688101063808
C           -1.13520065719044       -1.43743238612927       -0.00894729492485
C            0.08783643731653       -2.07898946806820        0.03628655304356
C            1.24939512774468       -1.33194096933392        0.02767603296172
C            1.17570618791753        0.05441042101762        0.01113681732059
C           -0.06052782080168        0.71688581674021        0.02881102090941
C           -0.05138772186368        2.22711390148606        0.11699962767810
O            2.35952680152098        0.73220505511990       -0.02188685170085
H           -2.63062019904527        1.60498479145646       -0.42409078254666
H           -3.18962597090995       -0.04761831380601       -0.86822940058071
H           -3.12228003090812        0.43317519818707        0.87142999304487
H           -2.04637375552351       -2.01922122815810       -0.03175768739095
H            0.13655919853508       -3.15726048268025        0.06036735161517
H            2.22441695818714       -1.79406433694837        0.03085230655545
H            0.77774822442132        2.54564006800605        0.83328220892262
H            0.12304493166138        2.67568970961708       -0.92134723839147
H           -1.04318343539921        2.62683131473078        0.53878881290961
H            2.18999902322913        1.67980157924966       -0.12774049024641
19
 energy: -26.288464408163 gnorm: 0.027667883425 xtb: 6.7.1 (41059b4)
C           -2.61522217537637        0.53287902705204       -0.09235526840935
C           -1.22736146224610       -0.04741070924641       -0.02035445045593
C           -1.13497753878944       -1.43771193616645       -0.00454988812980
C            0.08821628824818       -2.07897298266058        0.03191077766264
C            1.24983935070752       -1.33172254479130        0.02063876830700