
                                 *****************
                                 * O   R   C   A *
                                 *****************

                                            #,                                       
                                            ###                                      
                                            ####                                     
                                            #####                                    
                                            ######                                   
                                           ########,                                 
                                     ,,################,,,,,                         
                               ,,#################################,,                 
                          ,,##########################################,,             
                       ,#########################################, ''#####,          
                    ,#############################################,,   '####,        
                  ,##################################################,,,,####,       
                ,###########''''           ''''###############################       
              ,#####''   ,,,,##########,,,,          '''####'''          '####       
            ,##' ,,,,###########################,,,                        '##       
           ' ,,###''''                  '''############,,,                           
         ,,##''                                '''############,,,,        ,,,,,,###''
      ,#''                                            '''#######################'''  
     '                                                          ''''####''''         
             ,#######,   #######,   ,#######,      ##                                
            ,#'     '#,  ##    ##  ,#'     '#,    #''#        ,####,   ,####,        
            ##       ##  ##   ,#'  ##            #'  '#       #'       #'  '#        
            ##       ##  #######   ##           ,######,      #####,   #    #        
            '#,     ,#'  ##    ##  '#,     ,#' ,#      #,     #,   #   #,  ,#        
             '#######'   ##     ##  '#######'  #'      '#     '####' # '####'        



                #########################################################
                #                        -***-                          #
                #          Department of theory and spectroscopy        #
                #                                                       #
                #                      Frank Neese                      #
                #                                                       #
                #     Directorship, Architecture, Infrastructure        #
                #                    SHARK, DRIVERS                     #
                #        Core code/Algorithms in most modules           #
                #                                                       #
                #        Max Planck Institute fuer Kohlenforschung      #
                #                Kaiser Wilhelm Platz 1                 #
                #                 D-45470 Muelheim/Ruhr                 #
                #                      Germany                          #
                #                                                       #
                #                  All rights reserved                  #
                #                        -***-                          #
                #########################################################


                         Program Version 6.0.1  -  RELEASE   -


 With contributions from (in alphabetic order):
[Max-Planck-Institut fuer Kohlenforschung]                               
  Daniel Aravena         : Magnetic Suceptibility                        
  Michael Atanasov       : Ab Initio Ligand Field Theory (pilot matlab implementation)
  Alexander A. Auer      : GIAO ZORA, VPT2 properties, NMR spectrum      
  Ute Becker             : All parallelization in ORCA, NUMFREQ, NUMCALC 
  Giovanni Bistoni       : ED, misc. LED, open-shell LED, HFLD           
  Martin Brehm           : Molecular dynamics                            
  Dmytro Bykov           : pre 5.0 version of the SCF Hessian            
  Marcos Casanova-Páez   : Triplet and SCS-CIS(D). UHF-(DLPNO)-IP/EA/STEOM-CCSD. UHF-CVS-IP/STEOM-CCSD   
  Vijay G. Chilkuri      : MRCI spin determinant printing, contributions to CSF-ICE 
  Pauline Colinet        : FMM embedding                                 
  Dipayan Datta          : RHF DLPNO-CCSD density                        
  Achintya Kumar Dutta   : EOM-CC, STEOM-CC                              
  Nicolas Foglia         : Exact transition moments, OPA infrastructure, MCD improvements    
  Dmitry Ganyushin       : Spin-Orbit,Spin-Spin,Magnetic field MRCI      
  Miquel Garcia-Rates    : C-PCM and meta-GGA Hessian, CCSD/C-PCM, Gaussian charge scheme 
  Tiago L. C. Gouveia    : GS-ROHF, GS-ROCIS                             
  Yang Guo               : DLPNO-NEVPT2, F12-NEVPT2, CIM, IAO-localization        
  Andreas Hansen         : Spin unrestricted coupled pair/coupled cluster methods 
  Ingolf Harden          : AUTO-CI MPn and infrastructure                
  Benjamin Helmich-Paris : MC-RPA, TRAH-(SCF,CASSCF), AVAS, COSX integrals, SCF dyn. polar. 
  Lee Huntington         : MR-EOM, pCC                                   
  Robert Izsak           : Overlap fitted RIJCOSX, COSX-SCS-MP3, EOM     
  Riya Kayal             : Wick's Theorem for AUTO-CI, AUTO-CI UHF-CCSDT 
  Emily Kempfer          : AUTO-CI, RHF CISDT and CCSDT                  
  Christian Kollmar      : KDIIS, OOCD, Brueckner-CCSD(T), CCSD density, CASPT2, CASPT2-K, improved NEVPT2 
  Axel Koslowski         : Symmetry handling                             
  Simone Kossmann        : meta-GGA functionals, TD-DFT gradient, OOMP2, (MP2 Hessian; deprecated post 5.0) 
  Lucas Lang             : DCDCAS                                        
  Marvin Lechner         : AUTO-CI (C++ implementation), FIC-MRCC        
  Spencer Leger          : CASSCF response                               
  Dagmar Lenk            : GEPOL surface, SMD, ORCA-2-JSON               
  Dimitrios Liakos       : Extrapolation schemes; Compound Job, initial MDCI parallelization 
  Dimitrios Manganas     : Further ROCIS development; embedding schemes. LFT, Crystal Embedding 
  Dimitrios Pantazis     : SARC Basis sets                               
  Anastasios Papadopoulos: AUTO-CI, single reference methods and gradients 
  Taras Petrenko         : pre 6.0 DFT Hessian and TD-DFT gradient, (ASA, deprecated), ECA, 1-Electron XAS/XES, NRVS 
  Peter Pinski           : DLPNO-MP2, DLPNO-MP2 Gradient                 
  Christoph Reimann      : Effective Core Potentials                     
  Marius Retegan         : Local ZFS, SOC                                
  Christoph Riplinger    : Optimizer, TS searches, QM/MM, DLPNO-CCSD(T), (RO)-DLPNO pert. Triples 
  Michael Roemelt        : Original ROCIS implementation                 
  Masaaki Saitow         : Open-shell DLPNO-CCSD energy and density      
  Barbara Sandhoefer     : DKH picture change effects                    
  Kantharuban Sivalingam : CASSCF convergence/infrastructure, NEVPT2 and variants, FIC-MRCI 
  Bernardo de Souza      : ESD, SOC TD-DFT                               
  Georgi L. Stoychev     : AutoAux, RI-MP2 NMR, DLPNO-MP2 response, X2C  
  Van Anh Tran           : RI-MP2 g-tensors                              
  Willem Van den Heuvel  : Paramagnetic NMR                              
  Zikuan Wang            : NOTCH, Electric field optimization            
  Frank Wennmohs         : Technical directorship and infrastructure     
  Hang Xu                : AUTO-CI-Response properties                   
                                                                         
[FACCTs GmbH]                                                            
  Markus Bursch, Miquel Garcia-Rates, Christoph Riplinger, Bernardo de Souza, Georgi L. Stoychev 
                                                                 
  APM, Basis sets (HGBS, AHGBS, def-TZVP (Ac-Lr), def2-XVPD (La-Lu)), CI-OPT, improved COSX, DLPNO-Multilevel,           
  DOCKER, DRACO, updates on ESD, GOAT, IRC, LR-CPCM, MBIS, meta-GGA TD-DFT gradient, ML-optimized integration grids, 
  MM, NACMEs, nearIR, NEB, NEB-TS, NL-DFT gradient (VV10), 2- and 3-layer-ONIOM, interface openCOSMO-RS, QMMM,   
  Crystal-QMMM, SF, symmetry and pop. for TD-DFT, r2SCAN hybrids, SOLVATOR                                   
                                                                         
[Other institutions]                                                     
  V. Asgeirsson          : NEB                                           
  Christoph Bannwarth    : sTDA-DFT, sTD-DFT, PBEh-3c, B97-3c, D3        
  Sebastian Ehlert       : rSCAN, r2SCAN, r2SCAN-3c, D4, dhf basis sets  
  Marvin Friede          : D4 for Fr, Ra, Ac-Lr                          
  Lars Goerigk           : TD-DFT with DH, B97 family of functionals     
  Stefan Grimme          : VdW corrections, initial TS optimization, DFT functionals, gCP, sTDA/sTD-DF 
  Waldemar Hujo          : DFT-NL                                        
  H. Jonsson             : NEB                                           
  Holger Kruse           : gCP                                           
  Marcel Mueller         : wB97X-3c, vDZP basis set                      
  Hagen Neugebauer       : wr2SCAN                                       
  Tobias Risthaus        : range-separated hybrid DFT                    
  Lukas Wittmann         : regularized MP2, r2SCAN double-hybrids, wr2SCAN        
                                                                         
We gratefully acknowledge several colleagues who have allowed us to      
interface, adapt or use parts of their codes:                            
  Ed Valeev, F. Pavosevic, A. Kumar             : LibInt (2-el integral package), F12 methods 
  Garnet Chan, S. Sharma, J. Yang, R. Olivares  : DMRG                   
  Ulf Ekstrom                                   : XCFun DFT Library      
  Mihaly Kallay                                 : mrcc  (arbitrary order and MRCC methods)
  Frank Weinhold                                : gennbo (NPA and NBO analysis)           
  Simon Mueller                                 : openCOSMO-RS                            
  Christopher J. Cramer and Donald G. Truhlar   : smd solvation model                     
  S Lehtola, MJT Oliveira, MAL Marques          : LibXC Library                           
  Liviu Ungur et al                             : ANISO software                          


 Your calculation uses the libint2 library for the computation of 2-el integrals
 For citations please refer to: http://libint.valeyev.net

 Your ORCA version has been built with support for libXC version: 6.2.2
 For citations please refer to: https://libxc.gitlab.io

 This ORCA versions uses:
   CBLAS   interface :  Fast vector & matrix operations
   LAPACKE interface :  Fast linear algebra routines
   SCALAPACK package :  Parallel linear algebra routines
   Shared memory     :  Shared parallel matrices
   BLAS/LAPACK       :  OpenBLAS 0.3.27  USE64BITINT DYNAMIC_ARCH NO_AFFINITY Zen SINGLE_THREADED
        Core in use  :  Zen
   Copyright (c) 2011-2014, The OpenBLAS Project


Your calculation utilizes the geometrical counterpoise correction gCP
Please cite in your paper:
H.Kruse, S. Grimme J.Chem.Phys., 136, (2012), 154101 
   

Your calculation utilizes the atom-pairwise dispersion correction
based on EEQ partial charges (D4)


================================================================================

----- Orbital basis set information -----
Your calculation utilizes the basis: def2-SV(P)
   F. Weigend and R. Ahlrichs, Phys. Chem. Chem. Phys. 7, 3297 (2005).

----- AuxJ basis set information -----
Your calculation utilizes the auxiliary basis: def2/J
   F. Weigend, Phys. Chem. Chem. Phys. 8, 1057 (2006).

================================================================================
                                        WARNINGS
                       Please study these warnings very carefully!
================================================================================

WARNING: Old DensityContainer found on disk!
         Will remove this file - 
         If you want to keep old densities, please start your calculation with a different basename. 


================================================================================
                                       INPUT FILE
================================================================================
NAME = sp.inp
|  1> ! pbe def2-sv(p) def2/J RI DEFGRID1 loosescf d4 GCP(DFT/SV(P)) printgap
|  2> %output
|  3>     printlevel normal
|  4> end
|  5> * xyz 0 1
|  6> C -0.6760950533 -1.1515288065 0.3570394151
|  7> C 0.6811198022 -1.1359158555 -0.3478679663
|  8> O 1.440631128 0.0070466583 0.0036426658
|  9> C 0.6510895635 1.1168750288 0.3905816018
| 10> C -0.6737177472 1.1675471605 -0.3611121372
| 11> N -1.4853304786 0.009326542 0.0047125998
| 12> H -0.5101477447 -1.1371455059 1.4405014345
| 13> H -1.2143241443 -2.0675915463 0.1109785121
| 14> H 1.2792219902 -2.0067882749 -0.0662018991
| 15> H 0.5296820173 -1.1575312263 -1.4391127167
| 16> H 0.4523681865 1.0831369331 1.4710186023
| 17> H 1.251982661 2.0034143373 0.1736772505
| 18> H -1.2222329067 2.0732312827 -0.0842952691
| 19> H -0.4590936312 1.2136160265 -1.4401404908
| 20> H -2.124740285 -0.2097924298 -0.7502179115
| 21> *
| 22> 
| 23>                          ****END OF INPUT****
================================================================================

                       ****************************
                       * Single Point Calculation *
                       ****************************

---------------------------------
CARTESIAN COORDINATES (ANGSTROEM)
---------------------------------
  C     -0.676095   -1.151529    0.357039
  C      0.681120   -1.135916   -0.347868
  O      1.440631    0.007047    0.003643
  C      0.651090    1.116875    0.390582
  C     -0.673718    1.167547   -0.361112
  N     -1.485330    0.009327    0.004713
  H     -0.510148   -1.137146    1.440501
  H     -1.214324   -2.067592    0.110979
  H      1.279222   -2.006788   -0.066202
  H      0.529682   -1.157531   -1.439113
  H      0.452368    1.083137    1.471019
  H      1.251983    2.003414    0.173677
  H     -1.222233    2.073231   -0.084295
  H     -0.459094    1.213616   -1.440140
  H     -2.124740   -0.209792   -0.750218

----------------------------
CARTESIAN COORDINATES (A.U.)
----------------------------
  NO LB      ZA    FRAG     MASS         X           Y           Z
   0 C     6.0000    0    12.011   -1.277634   -2.176074    0.674707
   1 C     6.0000    0    12.011    1.287130   -2.146570   -0.657375
   2 O     8.0000    0    15.999    2.722398    0.013316    0.006884
   3 C     6.0000    0    12.011    1.230381    2.110588    0.738092
   4 C     6.0000    0    12.011   -1.273142    2.206344   -0.682403
   5 N     7.0000    0    14.007   -2.806868    0.017625    0.008906
   6 H     1.0000    0     1.008   -0.964040   -2.148894    2.722153
   7 H     1.0000    0     1.008   -2.294740   -3.907182    0.209719
   8 H     1.0000    0     1.008    2.417379   -3.792280   -0.125103
   9 H     1.0000    0     1.008    1.000954   -2.187417   -2.719529
  10 H     1.0000    0     1.008    0.854852    2.046832    2.779822
  11 H     1.0000    0     1.008    2.365904    3.785904    0.328202
  12 H     1.0000    0     1.008   -2.309685    3.917839   -0.159295
  13 H     1.0000    0     1.008   -0.867561    2.293402   -2.721471
  14 H     1.0000    0     1.008   -4.015177   -0.396450   -1.417706

--------------------------------
INTERNAL COORDINATES (ANGSTROEM)
--------------------------------
 C      0   0   0     0.000000000000     0.00000000     0.00000000
 C      1   0   0     1.529434648679     0.00000000     0.00000000
 O      2   1   0     1.416608797957   111.69389211     0.00000000
 C      3   2   1     1.415915475667   113.65675189   333.41475927
 C      4   3   2     1.524049065046   112.08580462   327.08205886
 N      1   2   3     1.458280253751   111.89814491    60.64270242
 H      1   2   3     1.096191286250   108.72760320   301.18749074
 H      1   2   3     1.090599589966   110.03125502   183.11526537
 H      2   1   3     1.093380433140   111.01194965   118.80791201
 H      2   1   3     1.101914575739   109.52844319   238.40453010
 H      4   3   2     1.099078048561   110.20646608    88.90844194
 H      4   3   2     1.092735996365   105.96438924   206.25406807
 H      5   4   3     1.094422307828   109.78135582   183.82869057
 H      5   4   3     1.101130346261   108.37779442   301.71152810
 H      6   1   2     1.013300597658   110.97915572    95.64812309

---------------------------
INTERNAL COORDINATES (A.U.)
---------------------------
 C      0   0   0     0.000000000000     0.00000000     0.00000000
 C      1   0   0     2.890212625734     0.00000000     0.00000000
 O      2   1   0     2.677002667043   111.69389211     0.00000000
 C      3   2   1     2.675692477791   113.65675189   333.41475927
 C      4   3   2     2.880035347595   112.08580462   327.08205886
 N      1   2   3     2.755750306095   111.89814491    60.64270242
 H      1   2   3     2.071501321403   108.72760320   301.18749074
 H      1   2   3     2.060934546802   110.03125502   183.11526537
 H      2   1   3     2.066189578823   111.01194965   118.80791201
 H      2   1   3     2.082316771123   109.52844319   238.40453010
 H      4   3   2     2.076956511584   110.20646608    88.90844194
 H      4   3   2     2.064971769807   105.96438924   206.25406807
 H      5   4   3     2.068158436649   109.78135582   183.82869057
 H      5   4   3     2.080834792182   108.37779442   301.71152810
 H      6   1   2     1.914860620913   110.97915572    95.64812309

---------------------
BASIS SET INFORMATION
---------------------
There are 4 groups of distinct atoms

 Group   1 Type C   : 7s4p1d contracted to 3s2p1d pattern {511/31/1}
 Group   2 Type O   : 7s4p1d contracted to 3s2p1d pattern {511/31/1}
 Group   3 Type N   : 7s4p1d contracted to 3s2p1d pattern {511/31/1}
 Group   4 Type H   : 4s contracted to 2s pattern {31}

Atom   0C    basis set group =>   1
Atom   1C    basis set group =>   1
Atom   2O    basis set group =>   2
Atom   3C    basis set group =>   1
Atom   4C    basis set group =>   1
Atom   5N    basis set group =>   3
Atom   6H    basis set group =>   4
Atom   7H    basis set group =>   4
Atom   8H    basis set group =>   4
Atom   9H    basis set group =>   4
Atom  10H    basis set group =>   4
Atom  11H    basis set group =>   4
Atom  12H    basis set group =>   4
Atom  13H    basis set group =>   4
Atom  14H    basis set group =>   4
---------------------------------
AUXILIARY/J BASIS SET INFORMATION
---------------------------------
There are 4 groups of distinct atoms

 Group   1 Type C   : 12s5p4d2f1g contracted to 6s4p3d1f1g pattern {711111/2111/211/2/1}
 Group   2 Type O   : 12s5p4d2f1g contracted to 6s4p3d1f1g pattern {711111/2111/211/2/1}
 Group   3 Type N   : 12s5p4d2f1g contracted to 6s4p3d1f1g pattern {711111/2111/211/2/1}
 Group   4 Type H   : 5s2p1d contracted to 3s1p1d pattern {311/2/1}

Atom   0C    basis set group =>   1
Atom   1C    basis set group =>   1
Atom   2O    basis set group =>   2
Atom   3C    basis set group =>   1
Atom   4C    basis set group =>   1
Atom   5N    basis set group =>   3
Atom   6H    basis set group =>   4
Atom   7H    basis set group =>   4
Atom   8H    basis set group =>   4
Atom   9H    basis set group =>   4
Atom  10H    basis set group =>   4
Atom  11H    basis set group =>   4
Atom  12H    basis set group =>   4
Atom  13H    basis set group =>   4
Atom  14H    basis set group =>   4

Checking for AutoStart:
The File: sp.gbw exists
Trying to determine its content:
     ... Fine, the file contains calculation information
     ... Fine, the calculation information was read
     ... Fine, the file contains a basis set
     ... Fine, the basis set was read
     ... Fine, the file contains a geometry
     ... Fine, the geometry was read
     ... Fine, the file contains a set of orbitals
     ... Fine, the orbitals can be read
     => possible old guess file was deleted
     => GBW file was renamed to GES file
     => GES file is set as startup file
     => Guess is set to MORead
     ... now leaving AutoStart

------------------------------------------------------------------------------
                             ORCA STARTUP CALCULATIONS
                           -- RI-GTO INTEGRALS CHOSEN --
------------------------------------------------------------------------------
------------------------------------------------------------------------------
                   ___                                                        
                  /   \      - P O W E R E D   B Y -                         
                 /     \                                                     
                 |  |  |   _    _      __       _____    __    __             
                 |  |  |  | |  | |    /  \     |  _  \  |  |  /  |          
                  \  \/   | |  | |   /    \    | | | |  |  | /  /          
                 / \  \   | |__| |  /  /\  \   | |_| |  |  |/  /          
                |  |  |   |  __  | /  /__\  \  |    /   |      \           
                |  |  |   | |  | | |   __   |  |    \   |  |\   \          
                \     /   | |  | | |  |  |  |  | |\  \  |  | \   \       
                 \___/    |_|  |_| |__|  |__|  |_| \__\ |__|  \__/        
                                                                              
                      - O R C A' S   B I G   F R I E N D -                    
                                      &                                       
                       - I N T E G R A L  F E E D E R -                       
                                                                              
 v1 FN, 2020, v2 2021, v3 2022-2024                                           
------------------------------------------------------------------------------


----------------------
SHARK INTEGRAL PACKAGE
----------------------

Number of atoms                             ...     15
Number of basis functions                   ...    102
Number of shells                            ...     54
Maximum angular momentum                    ...      2
Integral batch strategy                     ... SHARK/LIBINT Hybrid
RI-J (if used) integral strategy            ... SPLIT-RIJ (Revised 2003 algorithm where possible)
Printlevel                                  ...      1
Contraction scheme used                     ... SEGMENTED contraction
Prescreening option                         ... SCHWARTZ
   Thresh                                   ... 1.000e-09
   Tcut                                     ... 1.000e-10
   Tpresel                                  ... 1.000e-10 
Coulomb Range Separation                    ... NOT USED
Exchange Range Separation                   ... NOT USED
Multipole approximations                    ... NOT USED
Finite Nucleus Model                        ... NOT USED
CABS basis                                  ... NOT available
Auxiliary Coulomb fitting basis             ... AVAILABLE
   # of basis functions in Aux-J            ...    393
   # of shells in Aux-J                     ...    135
   Maximum angular momentum in Aux-J        ...      4
Auxiliary J/K fitting basis                 ... NOT available
Auxiliary Correlation fitting basis         ... NOT available
Auxiliary 'external' fitting basis          ... NOT available

Checking pre-screening integrals            ... done (  0.0 sec) Dimension = 54
Check shell pair data                       ... done (  0.0 sec)
Shell pair information
Shell pair cut-off parameter TPreSel        ...   1.0e-10
Total number of shell pairs                 ...      1485
Shell pairs after pre-screening             ...      1473
Total number of primitive shell pairs       ...      5991
Primitive shell pairs kept                  ...      4532
          la=0 lb=0:    657 shell pairs
          la=1 lb=0:    431 shell pairs
          la=1 lb=1:     78 shell pairs
          la=2 lb=0:    214 shell pairs
          la=2 lb=1:     72 shell pairs
          la=2 lb=2:     21 shell pairs

Calculating one electron integrals          ... done (  0.0 sec)
Calculating RI/J V-Matrix + Cholesky decomp.... done (  0.0 sec)
Calculating Nuclear repulsion               ... done (  0.0 sec) ENN=    264.211694576881 Eh

Diagonalization of the overlap matrix:
Smallest eigenvalue                        ... 1.565e-03
Time for diagonalization                   ...    0.001 sec
Threshold for overlap eigenvalues          ... 1.000e-07
Number of eigenvalues below threshold      ... 0
Time for construction of square roots      ...    0.000 sec
Total time needed                          ...    0.002 sec

-------------------
DFT GRID GENERATION
-------------------

General Integration Accuracy     IntAcc      ... 4.159
Radial Grid Type                 RadialGrid  ... OptM3 with GC (2021)
Angular Grid (max. ang.)         AngularGrid ... 3 (Lebedev-194)
Angular grid pruning method      GridPruning ... 4 (adaptive)
Weight generation scheme         WeightScheme... mBecke (2022)
Basis function cutoff            BFCut       ... 1.0000e-10
Integration weight cutoff        WCut        ... 1.0000e-14
Partially contracted basis set               ... off
Rotationally invariant grid construction     ... off
Angular grids for H and He will be reduced by one unit

Total number of grid points                  ...    32255
Total number of batches                      ...      513
Average number of points per batch           ...       62
Average number of grid points per atom       ...     2150
Initializing property integral containers    ... done (  0.0 sec)

SHARK setup successfully completed in   0.2 seconds

Maximum memory used throughout the entire STARTUP-calculation: 16.4 MB
-------------------------------------------------------------------------------
                                 ORCA GUESS
                   Start orbitals & Density for SCF / CASSCF
-------------------------------------------------------------------------------

------------
SCF SETTINGS
------------
Hamiltonian:
 Density Functional     Method          .... DFT(GTOs)
 Exchange Functional    Exchange        .... PBE
   PBE kappa parameter   XKappa         ....  0.804000
   PBE mue parameter    XMuePBE         ....  0.219520
 Correlation Functional Correlation     .... PBE
   PBE beta parameter  CBetaPBE         ....  0.066725
 LDA part of GGA corr.  LDAOpt          .... PW91-LDA
 Gradients option       PostSCFGGA      .... off
   NL short-range parameter             ....  6.400000
 RI-approximation to the Coulomb term is turned on
   Number of AuxJ basis functions       .... 393


General Settings:
 Integral files         IntName         .... sp
 Hartree-Fock type      HFTyp           .... RHF
 Total Charge           Charge          ....    0
 Multiplicity           Mult            ....    1
 Number of Electrons    NEL             ....   48
 Basis Dimension        Dim             ....  102
 Nuclear Repulsion      ENuc            ....    264.2116945769 Eh

Convergence Acceleration:
 AO-DIIS                CNVDIIS         .... on
   Start iteration      DIISMaxIt       ....    12
   Startup error        DIISStart       ....  0.200000
   # of expansion vecs  DIISMaxEq       ....     5
   Bias factor          DIISBfac        ....   1.050
   Max. coefficient     DIISMaxC        ....  10.000
 MO-DIIS                CNVKDIIS        .... off
 Trust-Rad. Augm. Hess. CNVTRAH         .... auto
   Auto Start mean grad. ratio tolernc. ....  1.125000
   Auto Start start iteration           ....     1
   Auto Start num. interpolation iter.  ....    10
   Max. Number of Micro iterations      ....    24
   Max. Number of Macro iterations      .... Maxiter - #DIIS iter
   Number of Davidson start vectors     ....     2
   Converg. threshold    (grad. norm)   ....   1.000e-04
   Grad. Scal. Fac. for Micro threshold ....   0.100
   Minimum threshold for Micro iter.    ....   1.000e-02
   NR start threshold (gradient norm)   ....   1.000e-04
   Initial trust radius                 ....   0.400
   Minimum AH scaling param. (alpha)    ....   1.000
   Maximum AH scaling param. (alpha)    .... 1000.000
   Quad. conv. algorithm                .... NR
   White noise on init. David. guess    .... on
   Maximum white noise                  ....   0.010
   Pseudo random numbers                .... off
   Inactive MOs                         .... canonical
   Orbital update algorithm             .... Taylor
   Preconditioner                       .... Diag
   Full preconditioner red. dimension   ....   250
 SOSCF                  CNVSOSCF        .... on
   Start iteration      SOSCFMaxIt      ....   150
   Startup grad/error   SOSCFStart      ....  0.003300
   Hessian update       SOSCFHessUp     .... L-BFGS
 Level Shifting         CNVShift        .... on
   Level shift para.    LevelShift      ....    0.2500
   Turn off err/grad.   ShiftErr        ....    0.0010
 Zerner damping         CNVZerner       .... off
 Static damping         CNVDamp         .... on
   Fraction old density DampFac         ....    0.7000
   Max. Damping (<1)    DampMax         ....    0.9800
   Min. Damping (>=0)   DampMin         ....    0.0000
   Turn off err/grad.   DampErr         ....    0.1000

SCF Procedure:
 Maximum # iterations   MaxIter         ....   125
 SCF integral mode      SCFMode         .... Direct
   Integral package                     .... SHARK and LIBINT hybrid scheme
 Reset frequency        DirectResetFreq ....    20
 Integral Threshold     Thresh          ....  1.000e-09 Eh
 Primitive CutOff       TCut            ....  1.000e-10 Eh

Convergence Tolerance:
 Convergence Check Mode ConvCheckMode   .... Total+1el-Energy
 Convergence forced     ConvForced      .... 0
 Energy Change          TolE            ....  1.000e-05 Eh
 1-El. energy change                    ....  1.000e-02 Eh
 Orbital Gradient       TolG            ....  1.000e-04
 Orbital Rotation angle TolX            ....  1.000e-04
 DIIS Error             TolErr          ....  5.000e-04

---------------------
INITIAL GUESS: MOREAD
---------------------
Guess MOs are being read from file: sp.ges
Input Geometry matches current geometry (good)
Input basis set matches current basis set (good)
Occupation numbers will be reassigned to an Aufbau configuration
MOs were renormalized
MOs were reorthogonalized (Cholesky)
                      ------------------
                      INITIAL GUESS DONE (   0.0 sec)
                      ------------------
             **** ENERGY FILE WAS UPDATED (sp.en.tmp) ****
Finished Guess after   0.0 sec
Maximum memory used throughout the entire GUESS-calculation: 8.4 MB

-------------------------------------------------------------------------------------------
                                      ORCA LEAN-SCF
                              memory conserving SCF solver
-------------------------------------------------------------------------------------------

----------------------------------------D-I-I-S--------------------------------------------
Iteration    Energy (Eh)           Delta-E    RMSDP     MaxDP     DIISErr   Damp  Time(sec)
-------------------------------------------------------------------------------------------
               ***  Starting incremental Fock matrix formation  ***
                              *** Initializing SOSCF ***
---------------------------------------S-O-S-C-F--------------------------------------
Iteration    Energy (Eh)           Delta-E    RMSDP     MaxDP     MaxGrad    Time(sec)
--------------------------------------------------------------------------------------
    1    -287.1859072695764326     0.00e+00  2.98e-05  4.63e-04  2.58e-05     0.2
               *** Restarting incremental Fock matrix formation ***
    2    -287.1859073060213632    -3.64e-08  4.22e-05  7.91e-04  1.53e-04     0.2
    3    -287.1859062645753511     1.04e-06  2.77e-05  5.42e-04  2.98e-04     0.2
                 **** Energy Check signals convergence ****

               *****************************************************
               *                     SUCCESS                       *
               *           SCF CONVERGED AFTER   3 CYCLES          *
               *****************************************************

             **** ENERGY FILE WAS UPDATED (sp.en.tmp) ****

----------------
TOTAL SCF ENERGY
----------------

Total Energy       :       -287.18590626457535 Eh           -7814.72580 eV

Components:
Nuclear Repulsion  :        264.21169457688052 Eh            7189.56572 eV
Electronic Energy  :       -551.39760084145587 Eh          -15004.29152 eV
One Electron Energy:       -912.85925547591546 Eh          -24840.16319 eV
Two Electron Energy:        361.46165463445953 Eh            9835.87167 eV

Virial components:
Potential Energy   :       -572.05702259514896 Eh          -15566.46297 eV
Kinetic Energy     :        284.87111633057356 Eh            7751.73717 eV
Virial Ratio       :          2.00812574459573

DFT components:
N(Alpha)           :       24.000172206784 electrons
N(Beta)            :       24.000172206784 electrons
N(Total)           :       48.000344413569 electrons
E(X)               :      -38.629943318766 Eh       
E(C)               :       -1.605922121943 Eh       
E(XC)              :      -40.235865440709 Eh       

---------------
SCF CONVERGENCE
---------------

  Last Energy change         ...   -1.0414e-06  Tolerance :   1.0000e-05
  Last MAX-Density change    ...    5.4199e-04  Tolerance :   1.0000e-03
  Last RMS-Density change    ...    2.7666e-05  Tolerance :   1.0000e-04
  Last DIIS Error            ...    3.6329e-04  Tolerance :   5.0000e-04
  Last Orbital Gradient      ...    2.9776e-04  Tolerance :   1.0000e-04
  Last Orbital Rotation      ...    1.1372e-04  Tolerance :   1.0000e-04


----------------
ORBITAL ENERGIES
----------------

  NO   OCC          E(Eh)            E(eV) 
   0   2.0000     -18.749458      -510.1987 
   1   2.0000     -13.972271      -380.2048 
   2   2.0000      -9.929127      -270.1853 
   3   2.0000      -9.927129      -270.1309 
   4   2.0000      -9.911099      -269.6947 
   5   2.0000      -9.910615      -269.6815 
   6   2.0000      -0.935202       -25.4481 
   7   2.0000      -0.816709       -22.2238 
   8   2.0000      -0.690130       -18.7794 
   9   2.0000      -0.609085       -16.5740 
  10   2.0000      -0.591711       -16.1013 
  11   2.0000      -0.489352       -13.3159 
  12   2.0000      -0.467795       -12.7294 
  13   2.0000      -0.449285       -12.2257 
  14   2.0000      -0.422584       -11.4991 
  15   2.0000      -0.385455       -10.4888 
  16   2.0000      -0.372082       -10.1249 
  17   2.0000      -0.344339        -9.3699 
  18   2.0000      -0.338690        -9.2162 
  19   2.0000      -0.331830        -9.0296 
  20   2.0000      -0.327958        -8.9242 
  21   2.0000      -0.256267        -6.9734 
  22   2.0000      -0.197222        -5.3667 
  23   2.0000      -0.171059        -4.6548 
  24   0.0000       0.024858         0.6764 
  25   0.0000       0.057688         1.5698 
  26   0.0000       0.073558         2.0016 
  27   0.0000       0.079592         2.1658 
  28   0.0000       0.095495         2.5986 
  29   0.0000       0.105169         2.8618 
  30   0.0000       0.109944         2.9917 
  31   0.0000       0.114634         3.1194 
  32   0.0000       0.133330         3.6281 
  33   0.0000       0.147467         4.0128 
  34   0.0000       0.153864         4.1869 
*Only the first 10 virtual orbitals were printed.

                    ********************************
                    * MULLIKEN POPULATION ANALYSIS *
                    ********************************

-----------------------
MULLIKEN ATOMIC CHARGES
-----------------------
   0 C :   -0.107553
   1 C :    0.026794
   2 O :   -0.346012
   3 C :   -0.000312
   4 C :   -0.082687
   5 N :   -0.364428
   6 H :    0.089973
   7 H :    0.091844
   8 H :    0.087840
   9 H :    0.062358
  10 H :    0.080787
  11 H :    0.095532
  12 H :    0.090000
  13 H :    0.074376
  14 H :    0.201488
Sum of atomic charges:   -0.0000000

--------------------------------
MULLIKEN REDUCED ORBITAL CHARGES
--------------------------------
  0 C s       :     3.033526  s :     3.033526
      pz      :     1.084127  p :     3.023780
      px      :     0.981474
      py      :     0.958179
      dz2     :     0.014033  d :     0.050247
      dxz     :     0.007999
      dyz     :     0.006598
      dx2y2   :     0.008666
      dxy     :     0.012951

  1 C s       :     3.041000  s :     3.041000
      pz      :     1.030774  p :     2.869612
      px      :     0.958269
      py      :     0.880569
      dz2     :     0.015962  d :     0.062594
      dxz     :     0.008454
      dyz     :     0.009105
      dx2y2   :     0.011265
      dxy     :     0.017807

  2 O s       :     3.767494  s :     3.767494
      pz      :     1.778630  p :     4.562901
      px      :     1.564916
      py      :     1.219355
      dz2     :     0.002397  d :     0.015616
      dxz     :     0.002267
      dyz     :     0.001947
      dx2y2   :     0.002854
      dxy     :     0.006150

  3 C s       :     3.054839  s :     3.054839
      pz      :     1.038808  p :     2.882476
      px      :     0.954737
      py      :     0.888930
      dz2     :     0.016136  d :     0.062997
      dxz     :     0.009464
      dyz     :     0.008529
      dx2y2   :     0.011052
      dxy     :     0.017816

  4 C s       :     3.014051  s :     3.014051
      pz      :     1.049180  p :     3.018514
      px      :     0.990267
      py      :     0.979067
      dz2     :     0.013140  d :     0.050122
      dxz     :     0.008035
      dyz     :     0.006446
      dx2y2   :     0.009853
      dxy     :     0.012649

  5 N s       :     3.482665  s :     3.482665
      pz      :     1.471640  p :     3.856662
      px      :     1.284707
      py      :     1.100315
      dz2     :     0.004422  d :     0.025101
      dxz     :     0.006259
      dyz     :     0.004030
      dx2y2   :     0.004166
      dxy     :     0.006224

  6 H s       :     0.910027  s :     0.910027

  7 H s       :     0.908156  s :     0.908156

  8 H s       :     0.912160  s :     0.912160

  9 H s       :     0.937642  s :     0.937642

 10 H s       :     0.919213  s :     0.919213

 11 H s       :     0.904468  s :     0.904468

 12 H s       :     0.910000  s :     0.910000

 13 H s       :     0.925624  s :     0.925624

 14 H s       :     0.798512  s :     0.798512


------------------------
MULLIKEN OVERLAP CHARGES
------------------------
B(  0-C ,  1-C ) :   0.8249 B(  0-C ,  2-O ) :  -0.0811 B(  0-C ,  4-C ) :  -0.1419 
B(  0-C ,  5-N ) :   0.8183 B(  0-C ,  6-H ) :   0.6788 B(  0-C ,  7-H ) :   0.6667 
B(  0-C ,  9-H ) :  -0.0729 B(  0-C , 14-H ) :  -0.0571 B(  1-C ,  2-O ) :   0.6885 
B(  1-C ,  3-C ) :  -0.1446 B(  1-C ,  5-N ) :  -0.1356 B(  1-C ,  6-H ) :  -0.0775 
B(  1-C ,  8-H ) :   0.6483 B(  1-C ,  9-H ) :   0.6672 B(  2-O ,  3-C ) :   0.6953 
B(  2-O ,  4-C ) :  -0.0910 B(  2-O ,  8-H ) :  -0.0625 B(  2-O ,  9-H ) :  -0.0869 
B(  2-O , 10-H ) :  -0.0831 B(  2-O , 11-H ) :  -0.0582 B(  3-C ,  4-C ) :   0.8526 
B(  3-C ,  5-N ) :  -0.0948 B(  3-C , 10-H ) :   0.6899 B(  3-C , 11-H ) :   0.6977 
B(  4-C ,  5-N ) :   0.7848 B(  4-C , 10-H ) :  -0.0802 B(  4-C , 12-H ) :   0.6571 
B(  4-C , 13-H ) :   0.6529 B(  4-C , 14-H ) :  -0.0667 B(  5-N ,  6-H ) :  -0.0846 
B(  5-N , 12-H ) :  -0.0721 B(  5-N , 13-H ) :  -0.0748 B(  5-N , 14-H ) :   0.6117 
B(  6-H ,  7-H ) :  -0.0642 B(  8-H ,  9-H ) :  -0.0905 B( 10-H , 11-H ) :  -0.0915 
B( 12-H , 13-H ) :  -0.0955 


                     *******************************
                     * LOEWDIN POPULATION ANALYSIS *
                     *******************************

----------------------
LOEWDIN ATOMIC CHARGES
----------------------
   0 C :   -0.190467
   1 C :   -0.126164
   2 O :   -0.181782
   3 C :   -0.117947
   4 C :   -0.187006
   5 N :   -0.275080
   6 H :    0.113052
   7 H :    0.119805
   8 H :    0.111354
   9 H :    0.093251
  10 H :    0.101314
  11 H :    0.116078
  12 H :    0.115018
  13 H :    0.098967
  14 H :    0.209607

-------------------------------
LOEWDIN REDUCED ORBITAL CHARGES
-------------------------------
  0 C s       :     2.911186  s :     2.911186
      pz      :     1.107435  p :     3.162496
      px      :     1.043683
      py      :     1.011379
      dz2     :     0.033066  d :     0.116785
      dxz     :     0.019418
      dyz     :     0.012906
      dx2y2   :     0.020730
      dxy     :     0.030665

  1 C s       :     2.925019  s :     2.925019
      pz      :     1.089940  p :     3.060733
      px      :     1.028697
      py      :     0.942096
      dz2     :     0.037299  d :     0.140412
      dxz     :     0.020308
      dyz     :     0.017847
      dx2y2   :     0.025516
      dxy     :     0.039441

  2 O s       :     3.471922  s :     3.471922
      pz      :     1.790805  p :     4.680415
      px      :     1.596393
      py      :     1.293217
      dz2     :     0.003796  d :     0.029446
      dxz     :     0.003270
      dyz     :     0.004088
      dx2y2   :     0.005371
      dxy     :     0.012922

  3 C s       :     2.918658  s :     2.918658
      pz      :     1.091868  p :     3.058285
      px      :     1.016619
      py      :     0.949798
      dz2     :     0.037249  d :     0.141004
      dxz     :     0.023286
      dyz     :     0.016502
      dx2y2   :     0.024486
      dxy     :     0.039481

  4 C s       :     2.914287  s :     2.914287
      pz      :     1.096878  p :     3.157070
      px      :     1.042865
      py      :     1.017327
      dz2     :     0.030949  d :     0.115650
      dxz     :     0.019702
      dyz     :     0.012407
      dx2y2   :     0.022984
      dxy     :     0.029608

  5 N s       :     3.186860  s :     3.186860
      pz      :     1.522896  p :     4.034325
      px      :     1.329092
      py      :     1.182337
      dz2     :     0.007783  d :     0.053896
      dxz     :     0.012254
      dyz     :     0.007987
      dx2y2   :     0.009317
      dxy     :     0.016555

  6 H s       :     0.886948  s :     0.886948

  7 H s       :     0.880195  s :     0.880195

  8 H s       :     0.888646  s :     0.888646

  9 H s       :     0.906749  s :     0.906749

 10 H s       :     0.898686  s :     0.898686

 11 H s       :     0.883922  s :     0.883922

 12 H s       :     0.884982  s :     0.884982

 13 H s       :     0.901033  s :     0.901033

 14 H s       :     0.790393  s :     0.790393


---------------------------------
LOEWDIN BOND ORDERS (THRESH 0.050000)
---------------------------------
B(  0-C ,  1-C ) :   1.0995 B(  0-C ,  2-O ) :   0.0583 B(  0-C ,  4-C ) :   0.0571 
B(  0-C ,  5-N ) :   1.1555 B(  0-C ,  6-H ) :   0.9023 B(  0-C ,  7-H ) :   0.9093 
B(  1-C ,  2-O ) :   1.1738 B(  1-C ,  3-C ) :   0.0597 B(  1-C ,  5-N ) :   0.0680 
B(  1-C ,  8-H ) :   0.9138 B(  1-C ,  9-H ) :   0.9078 B(  2-O ,  3-C ) :   1.1771 
B(  2-O ,  4-C ) :   0.0607 B(  3-C ,  4-C ) :   1.1061 B(  3-C , 10-H ) :   0.9048 
B(  3-C , 11-H ) :   0.9155 B(  4-C ,  5-N ) :   1.1449 B(  4-C , 12-H ) :   0.9056 
B(  4-C , 13-H ) :   0.9022 B(  5-N , 14-H ) :   0.8867 

------------------------------------------
LOEWDIN REDUCED ORBITAL POPULATIONS PER MO
-------------------------------------------
THRESHOLD FOR PRINTING IS 0.1%%
                      0         1         2         3         4         5   
                 -18.74946 -13.97227  -9.92913  -9.92713  -9.91110  -9.91061
                   2.00000   2.00000   2.00000   2.00000   2.00000   2.00000
                  --------  --------  --------  --------  --------  --------
 0 C  s               0.0       0.0       0.0       0.0      99.6       0.0
 1 C  s               0.0       0.0       0.0      99.6       0.0       0.0
 2 O  s              99.9       0.0       0.0       0.0       0.0       0.0
 3 C  s               0.0       0.0      99.6       0.0       0.0       0.0
 4 C  s               0.0       0.0       0.0       0.0       0.0      99.6
 5 N  s               0.0      99.8       0.0       0.0       0.0       0.0

                      6         7         8         9        10        11   
                  -0.93520  -0.81671  -0.69013  -0.60908  -0.59171  -0.48935
                   2.00000   2.00000   2.00000   2.00000   2.00000   2.00000
                  --------  --------  --------  --------  --------  --------
 0 C  s               1.5      10.2      12.0       7.9       7.7       2.5
 0 C  pz              0.2       0.6       0.3       0.1       0.9       7.1
 0 C  px              0.7       1.8       1.0       4.8       3.4       0.0
 0 C  py              0.4       3.7       0.4       1.8       0.0       0.8
 0 C  dxy             0.0       0.2       0.0       0.1       0.0       0.0
 1 C  s               9.0       0.1      14.9       6.0       8.0       5.4
 1 C  pz              0.6       0.0       0.2       0.1       1.2       5.6
 1 C  px              1.1       2.8       0.5       4.5       3.3       0.2
 1 C  py              5.6       0.2       0.4       2.2       0.1       5.8
 1 C  dz2             0.1       0.0       0.0       0.0       0.0       0.1
 1 C  dyz             0.1       0.0       0.0       0.0       0.0       0.1
 1 C  dxy             0.3       0.1       0.0       0.1       0.0       0.1
 2 O  s              50.6       4.4       0.0       6.7       0.1       1.0
 2 O  pz              0.0       0.0       0.7       0.0       2.5       0.0
 2 O  px              3.1       0.0       0.0       1.1       0.0       0.3
 2 O  py              0.0       0.0       9.2       0.1      12.9       1.0
 2 O  dxy             0.0       0.0       0.2       0.0       0.1       0.0
 3 C  s               9.1       0.1      15.4       8.3       4.2       5.6
 3 C  pz              0.8       0.1       0.3       0.0       1.2       1.2
 3 C  px              1.3       2.8       0.6       3.4       5.1       3.4
 3 C  py              5.4       0.2       0.5       1.9       0.3       5.2
 3 C  dz2             0.1       0.0       0.0       0.0       0.0       0.0
 3 C  dxz             0.0       0.0       0.0       0.1       0.1       0.0
 3 C  dyz             0.1       0.0       0.0       0.0       0.0       0.0
 3 C  dxy             0.3       0.1       0.0       0.1       0.0       0.1
 4 C  s               1.4      10.1      12.6       3.8      10.9       2.6
 4 C  pz              0.2       0.2       0.3       0.4       0.9       0.0
 4 C  px              0.7       1.8       1.1       6.1       1.3       0.2
 4 C  py              0.4       4.1       0.3       2.1       0.2       0.0
 4 C  dxy             0.0       0.2       0.0       0.1       0.0       0.1
 5 N  s               0.9      39.7       0.0       9.2       0.2       0.8
 5 N  pz              0.0       0.8       0.3       2.2       1.4       5.5
 5 N  px              0.2       1.4       0.0       3.9       0.0       8.8
 5 N  py              0.0       0.1       5.8       0.0      10.5       0.8
 5 N  dxy             0.0       0.0       0.1       0.0       0.2       0.0
 6 H  s               0.2       1.3       2.2       2.7       2.7       4.5
 7 H  s               0.2       1.5       2.8       2.2       3.1       0.0
 8 H  s               1.0       0.0       3.4       1.8       3.0       4.7
 9 H  s               1.0       0.0       2.8       1.6       2.9       6.7
10 H  s               1.0       0.1       2.8       2.8       1.6       2.7
11 H  s               1.1       0.0       3.6       2.5       1.7       7.2
12 H  s               0.1       1.4       2.8       1.2       4.0       1.0
13 H  s               0.2       1.3       2.4       0.9       3.8       0.7
14 H  s               0.2       8.0       0.0       6.2       0.0       7.6

                     12        13        14        15        16        17   
                  -0.46780  -0.44928  -0.42258  -0.38546  -0.37208  -0.34434
                   2.00000   2.00000   2.00000   2.00000   2.00000   2.00000
                  --------  --------  --------  --------  --------  --------
 0 C  s               2.3       0.3       0.0       0.0       0.1       0.6
 0 C  pz              0.0       8.0       0.0       0.5       6.6       0.0
 0 C  px              2.0       0.3      12.7       2.3       3.0       8.9
 0 C  py             12.4       2.7       2.3       0.4       6.0       6.1
 0 C  dz2             0.0       0.0       0.0       0.0       0.0       0.1
 0 C  dx2y2           0.0       0.0       0.0       0.2       0.0       0.2
 0 C  dxy             0.1       0.0       0.0       0.1       0.3       0.0
 1 C  s               0.7       0.1       0.3       0.2       0.1       0.5
 1 C  pz              0.0       8.4       3.1       8.8       8.3       0.0
 1 C  px              0.4       9.0       5.8       1.2       2.9       9.6
 1 C  py              0.4       2.3       6.2       5.6       3.0       9.0
 1 C  dxz             0.0       0.0       0.1       0.0       0.0       0.1
 1 C  dxy             0.1       0.0       0.2       0.1       0.3       0.0
 2 O  s               1.7       1.0       0.1       1.7       0.4       0.0
 2 O  pz              0.4       2.0      10.1       1.3       0.1       0.3
 2 O  px              1.7       4.3       0.3      12.5       0.7       0.1
 2 O  py              3.1       6.6      10.6       6.8       0.0       0.1
 2 O  dxy             0.0       0.0       0.1       0.0       0.0       0.1
 3 C  s               1.2       0.3       0.3       0.5       0.1       0.4
 3 C  pz              9.5       7.9       1.6       1.5       5.9       0.5
 3 C  px              3.1       0.0       3.3       5.2       3.1       8.6
 3 C  py              0.4       2.8       9.7       0.5       3.4       7.1
 3 C  dz2             0.0       0.0       0.0       0.2       0.0       0.0
 3 C  dxz             0.0       0.0       0.0       0.1       0.0       0.1
 3 C  dx2y2           0.0       0.0       0.0       0.1       0.0       0.2
 3 C  dxy             0.1       0.0       0.2       0.0       0.2       0.0
 4 C  s               2.7       0.1       0.0       0.1       0.1       0.6
 4 C  pz             13.4       2.8       0.3       3.3       8.6       0.2
 4 C  px              0.1       5.2       8.3       4.9       3.6       8.7
 4 C  py              6.3       6.1       3.1       0.2       3.2       7.1
 4 C  dxz             0.1       0.0       0.0       0.2       0.0       0.1
 4 C  dxy             0.1       0.0       0.0       0.0       0.2       0.0
 5 N  s               1.1       0.4       0.1       1.0       0.5       0.0
 5 N  pz              2.7       0.3       3.1      10.1       0.0       0.0
 5 N  px              4.0       5.2       0.0       7.4       0.5       0.2
 5 N  py              0.8       1.0      13.8       2.6       0.3       0.0
 5 N  dxy             0.0       0.0       0.1       0.0       0.0       0.1
 6 H  s               0.4       3.6       0.1       0.1       2.7       0.8
 7 H  s               8.6       0.9       0.1       0.0       8.1       6.5
 8 H  s               0.2       3.1       1.2       1.9       6.2       8.6
 9 H  s               0.1       4.1       0.2       4.1       3.1       0.4
10 H  s               6.1       3.6       0.0       2.2       2.5       0.1
11 H  s               0.1       0.5       2.2       1.0       5.6       6.9
12 H  s               2.9       4.7       0.0       1.0       6.4       6.2
13 H  s               9.0       0.9       0.0       1.8       3.7       0.2
14 H  s               1.4       1.0       0.0       7.7       0.0       0.0

                     18        19        20        21        22        23   
                  -0.33869  -0.33183  -0.32796  -0.25627  -0.19722  -0.17106
                   2.00000   2.00000   2.00000   2.00000   2.00000   2.00000
                  --------  --------  --------  --------  --------  --------
 0 C  s               0.1       0.1       0.2       0.2       0.3       0.0
 0 C  pz             11.0      18.2       0.1       0.0       0.5       1.3
 0 C  px              1.6       0.7       0.0       7.1       0.5       1.3
 0 C  py              3.8       0.5       8.0       0.3       0.2       0.6
 0 C  dz2             0.2       0.5       0.0       0.2       0.0       0.5
 0 C  dxz             0.0       0.0       0.0       0.0       0.0       0.4
 0 C  dyz             0.0       0.0       0.0       0.0       0.0       0.4
 0 C  dx2y2           0.0       0.0       0.2       0.0       0.0       0.1
 0 C  dxy             0.1       0.0       0.4       0.0       0.0       0.1
 1 C  s               0.0       0.1       0.4       0.3       0.0       0.5
 1 C  pz              0.4      14.6       0.0       0.1       2.2       0.9
 1 C  px              0.0       1.0       0.1       4.9       0.2       3.7
 1 C  py              0.6       0.3       4.2       0.8       0.4       0.0
 1 C  dz2             0.0       0.5       0.0       0.0       0.8       0.0
 1 C  dxz             0.1       0.0       0.0       0.1       0.4       0.0
 1 C  dyz             0.0       0.0       0.0       0.0       0.5       0.0
 1 C  dx2y2           0.2       0.1       0.1       0.5       0.0       0.0
 1 C  dxy             0.0       0.0       0.5       0.0       0.0       0.1
 2 O  s               0.7       0.3       0.3       4.7       0.0       0.1
 2 O  pz              9.7       0.1       2.5       0.4      58.6       0.8
 2 O  px              6.4       0.1       3.8      44.1       0.3       0.9
 2 O  py              1.0       0.4       5.3       0.4       7.0       0.0
 3 C  s               0.4       0.0       0.2       0.1       0.0       0.1
 3 C  pz             11.2       7.9       2.4       0.0       2.5       0.1
 3 C  px              1.0       0.1       1.0       8.5       0.1       0.1
 3 C  py              0.1       2.8       6.5       0.4       0.4       0.1
 3 C  dz2             0.1       0.4       0.1       0.0       0.7       0.1
 3 C  dxz             0.0       0.0       0.0       0.0       0.5       0.0
 3 C  dyz             0.1       0.0       0.0       0.0       0.4       0.0
 3 C  dx2y2           0.0       0.0       0.0       0.7       0.0       0.0
 3 C  dxy             0.0       0.0       0.6       0.1       0.0       0.0
 4 C  s               0.3       0.1       0.0       0.1       0.3       0.2
 4 C  pz              9.8       9.1       1.2       2.0       0.5       1.3
 4 C  px              0.4       0.1       0.8       5.8       1.8       0.9
 4 C  py              1.0       0.3      16.1       0.1       0.1       0.1
 4 C  dz2             0.3       0.3       0.0       0.0       0.0       0.5
 4 C  dxz             0.0       0.0       0.0       0.1       0.0       0.2
 4 C  dyz             0.0       0.0       0.0       0.0       0.0       0.3
 4 C  dx2y2           0.3       0.0       0.0       0.0       0.0       0.3
 4 C  dxy             0.1       0.0       0.6       0.0       0.1       0.1
 5 N  s               0.2       0.1       0.2       0.4       0.1       4.6
 5 N  pz              0.3       0.1       3.6       3.3       0.6      41.7
 5 N  px              8.5       1.3       4.6       0.5       0.6      19.2
 5 N  py              7.5       0.0      10.5       0.5       0.7       4.0
 5 N  dxz             0.1       0.0       0.1       0.1       0.0       0.0
 5 N  dx2y2           0.0       0.0       0.0       0.1       0.0       0.0
 5 N  dxy             0.2       0.0       0.1       0.0       0.0       0.0
 6 H  s               6.2      11.8       0.0       1.2       0.2       3.6
 7 H  s               0.1       0.9       6.0       2.8       0.2       0.1
 8 H  s               0.3       0.4       3.9       1.4       2.8       0.6
 9 H  s               0.3      10.4       0.1       0.3       6.8       0.3
10 H  s               4.0       6.7       1.6       0.2       6.2       0.7
11 H  s               0.4       1.9       4.5       3.4       1.4       0.1
12 H  s               0.4       0.6       7.7       0.3       0.7       3.0
13 H  s               7.6       6.8       0.3       0.3       0.1       5.1
14 H  s               2.9       0.3       0.9       2.5       0.0       0.7

                     24        25        26        27        28        29   
                   0.02486   0.05769   0.07356   0.07959   0.09550   0.10517
                   0.00000   0.00000   0.00000   0.00000   0.00000   0.00000
                  --------  --------  --------  --------  --------  --------
 0 C  s               3.2       4.6       3.2       0.9       1.3       1.4
 0 C  pz              0.2       4.3       0.5       0.0       1.0       3.3
 0 C  px              0.6       0.1       0.8       0.6       0.6       3.1
 0 C  py              2.7       0.5       6.1       1.2       0.0       2.1
 0 C  dz2             0.0       0.2       0.0       0.0       0.2       0.2
 0 C  dxz             0.1       0.0       0.1       0.2       0.1       0.0
 0 C  dyz             0.1       0.1       0.1       0.1       0.2       0.0
 0 C  dx2y2           0.1       0.0       0.0       0.0       0.0       0.4
 0 C  dxy             0.3       0.1       0.4       0.3       0.5       0.1
 1 C  s               3.4       0.6       0.6       9.0       1.7       0.1
 1 C  pz              1.7       0.4       1.0       2.4       0.1       2.1
 1 C  px              0.0       1.4       0.3       1.0       2.5       1.1
 1 C  py              0.7       0.2       2.1       1.8      15.4       4.8
 1 C  dz2             0.0       0.1       0.0       0.0       0.1       0.0
 1 C  dxz             0.0       0.3       0.0       0.1       0.3       0.1
 1 C  dyz             0.0       0.0       0.0       0.0       0.5       0.4
 1 C  dx2y2           0.0       0.1       0.0       0.1       0.3       0.6
 1 C  dxy             0.2       0.0       0.3       0.2       1.1       0.2
 2 O  s               0.2       0.2       0.6       1.6       5.9       2.6
 2 O  pz              0.0       0.1       0.1       0.1       0.0       0.2
 2 O  px              0.1       0.3       0.9       1.7       3.7       0.7
 2 O  py              0.0       0.1       0.0       0.5       0.1       0.1
 2 O  dyz             0.1       0.1       0.1       0.1       0.2       0.0
 2 O  dx2y2           0.0       0.0       0.0       0.0       0.0       0.2
 3 C  s               1.8       7.5       1.3       0.9       0.5       2.1
 3 C  pz              0.2       3.7       0.2       0.9       1.0       3.8
 3 C  px              0.1       0.0       1.8       0.8       2.0       4.4
 3 C  py              0.9       0.3       1.8       7.0       5.7       2.1
 3 C  dz2             0.0       0.2       0.1       0.0       0.1       0.3
 3 C  dxz             0.1       0.0       0.2       0.1       0.3       0.0
 3 C  dx2y2           0.0       0.0       0.1       0.1       0.2       0.4
 3 C  dxy             0.2       0.0       0.1       0.7       0.8       0.0
 4 C  s               4.7       0.1       6.9       0.1       0.1       0.1
 4 C  pz              2.3       0.7       2.9       0.5       0.5       0.9
 4 C  px              0.1       2.0       0.1       1.0       0.7       0.6
 4 C  py              0.7       0.2       1.3       4.2       1.1       3.0
 4 C  dz2             0.1       0.3       0.1       0.0       0.2       0.0
 4 C  dxz             0.1       0.4       0.0       0.0       0.0       0.1
 4 C  dyz             0.0       0.0       0.0       0.0       0.0       0.4
 4 C  dx2y2           0.0       0.1       0.0       0.0       0.0       0.5
 4 C  dxy             0.2       0.0       0.1       0.7       0.6       0.2
 5 N  s               4.5       3.3       2.3       3.5       0.7       2.5
 5 N  pz              2.2       1.0       0.8       0.2       0.2       0.3
 5 N  px              1.5       0.5       0.1       0.1       3.8       0.6
 5 N  py              0.2       0.0       0.5       0.1       0.1       0.1
 5 N  dxz             0.1       0.3       0.0       0.0       0.0       0.1
 5 N  dyz             0.1       0.1       0.1       0.0       0.0       0.0
 5 N  dx2y2           0.1       0.0       0.0       0.0       0.1       0.3
 6 H  s               1.3      21.1       3.4       0.3       6.2       3.2
 7 H  s              11.3       0.1      16.0       1.5       0.8      17.6
 8 H  s               3.1       4.0       2.3      10.5      18.9       0.3
 9 H  s               8.2       0.3       5.2      16.7       0.8       2.9
10 H  s               1.5      20.9       0.1       2.2       3.6       3.6
11 H  s               4.3       2.6       6.3       9.1       2.0      21.2
12 H  s               3.7       2.9       6.2      10.5       4.8       0.8
13 H  s              10.7       1.3      17.4       1.7       1.5       1.4
14 H  s              21.6      11.9       4.9       4.4       6.6       2.2

                     30        31        32        33        34        35   
                   0.10994   0.11463   0.13333   0.14747   0.15386   0.17115
                   0.00000   0.00000   0.00000   0.00000   0.00000   0.00000
                  --------  --------  --------  --------  --------  --------
 0 C  s               0.2       0.6       3.1       1.6       6.1       0.4
 0 C  pz              0.5       3.0       1.7       4.4       3.0       0.3
 0 C  px              0.5       3.3       0.9       0.2       4.8       6.4
 0 C  py              0.5       0.7       0.5       0.2       1.9      13.5
 0 C  dz2             0.1       0.7       0.0       0.1       0.3       0.1
 0 C  dxz             0.6       0.2       0.0       0.1       0.6       0.3
 0 C  dyz             0.1       0.0       0.1       0.2       0.6       0.4
 0 C  dx2y2           0.0       0.1       0.1       0.1       2.0       1.4
 0 C  dxy             0.1       0.1       0.0       0.2       0.1       2.0
 1 C  s               0.1       0.1       4.5       1.4       5.4       1.0
 1 C  pz              3.7       3.7       1.7       1.4       7.1       0.7
 1 C  px              6.7       2.5       2.0       0.5       3.0       0.7
 1 C  py              0.5       1.2       1.9       5.4       3.1       0.2
 1 C  dz2             0.5       0.5       0.0       0.1       0.5       0.0
 1 C  dxz             0.3       0.1       0.0       0.1       0.8       0.1
 1 C  dyz             0.0       0.0       0.1       0.2       0.8       0.2
 1 C  dx2y2           0.5       0.0       0.2       0.0       0.9       0.0
 1 C  dxy             0.0       0.0       0.2       0.7       0.3       1.0
 2 O  s               4.3       0.1       2.0       0.1       0.0       0.3
 2 O  pz              0.4       0.0       0.0       2.2       0.0       0.6
 2 O  px              0.6       0.1       0.8       0.2       0.0       0.7
 2 O  py              0.1       0.0       0.2       4.1       4.0       1.2
 2 O  dxz             0.1       0.0       0.0       0.3       0.1       0.0
 2 O  dyz             0.0       0.0       0.2       0.0       0.0       0.2
 2 O  dx2y2           0.2       0.2       0.1       0.0       0.0       0.0
 2 O  dxy             0.0       0.0       0.0       0.4       0.7       0.0
 3 C  s               1.1       0.2       2.3       7.2       3.3       0.3
 3 C  pz              1.7       1.3       1.6       1.3       5.5       3.4
 3 C  px              2.3       2.5       1.6       1.2       0.8       8.6
 3 C  py              8.7       1.2       0.9       4.8       2.8       1.1
 3 C  dz2             0.1       0.5       0.0       0.0       0.5       0.0
 3 C  dxz             0.0       0.1       0.0       0.1       0.3       1.7
 3 C  dyz             0.8       0.0       0.1       0.1       1.1       0.0
 3 C  dx2y2           0.5       0.0       0.2       0.1       0.7       0.5
 3 C  dxy             0.2       0.0       0.0       1.6       0.1       0.0
 4 C  s               3.2       0.6       3.5       0.0       6.1       2.0
 4 C  pz              1.1       2.8       5.4       2.4       2.9       0.2
 4 C  px              1.0       3.7       1.0       3.6       0.3       9.0
 4 C  py              5.6       1.1       0.8       2.4       8.0       0.6
 4 C  dz2             0.0       0.5       0.0       0.0       0.7       0.0
 4 C  dxz             0.1       0.1       0.1       0.8       0.1       1.1
 4 C  dyz             0.2       0.0       0.1       0.0       1.3       0.2
 4 C  dx2y2           0.0       0.1       0.1       0.4       0.4       2.0
 4 C  dxy             0.0       0.1       0.1       0.9       0.7       0.0
 5 N  s               0.1       2.5       2.3       0.2       0.6       2.3
 5 N  pz              0.4       0.1       0.8       0.1       0.0       4.5
 5 N  px              0.2       0.4       0.0       1.6       0.5       6.2
 5 N  py              0.1       0.1       0.0       1.1       5.8       0.8
 5 N  dz2             0.0       0.1       0.0       0.0       0.0       0.1
 5 N  dxz             0.1       0.0       0.0       0.2       0.4       0.0
 5 N  dyz             0.1       0.0       0.3       0.0       0.0       0.7
 5 N  dx2y2           0.1       0.3       0.0       0.0       0.1       0.4
 5 N  dxy             0.0       0.0       0.0       0.0       1.6       0.4
 6 H  s               0.2       4.2       8.1      12.9       0.6       1.2
 7 H  s               0.7       9.9       4.9       0.6       1.2       4.7
 8 H  s               9.4      12.2       2.2       3.1       2.1       1.2
 9 H  s               7.3       6.5       9.3       5.9       1.2       0.0
10 H  s               4.5       2.6       6.5      13.4       1.5       1.6
11 H  s               5.5      10.5       3.0       2.3       1.5       0.2
12 H  s              22.8      13.7       0.2       2.6       0.8       0.7
13 H  s               0.1       3.4      19.5       2.6       0.3       2.0
14 H  s               1.5       1.2       4.4       1.7       0.3      10.5

                     36        37        38        39        40        41   
                   0.20762   0.24202   0.24888   0.41296   0.42023   0.43679
                   0.00000   0.00000   0.00000   0.00000   0.00000   0.00000
                  --------  --------  --------  --------  --------  --------
 0 C  s               0.6       2.1       0.4       2.6       1.1       2.2
 0 C  pz              4.7       5.4       1.9       1.1       0.6       3.0
 0 C  px              0.3       2.1      15.4       6.6      10.8       0.7
 0 C  py              2.1       7.1       1.0       9.1       2.6       0.2
 0 C  dz2             0.2       2.4       0.1       0.5       1.4       0.2
 0 C  dxz             0.1       0.1       2.2       0.4       0.2       0.1
 0 C  dyz             0.1       1.0       0.0       0.2       1.0       0.1
 0 C  dx2y2           0.0       0.0       0.7       0.2       0.6       1.6
 0 C  dxy             1.1       0.7       0.5       0.2       1.1       0.1
 1 C  s               0.2       1.4       0.8       0.1       0.8       1.7
 1 C  pz              1.3       4.7       2.7       0.6       2.0       0.6
 1 C  px              6.1       0.7      12.1      11.0       2.8       7.6
 1 C  py              4.3       3.2       0.4       0.3       6.7       4.3
 1 C  dz2             0.1       2.0       0.0       0.0       0.7       0.6
 1 C  dxz             0.1       0.1       2.1       0.2       0.3       1.4
 1 C  dyz             0.1       0.8       0.0       0.2       0.3       0.9
 1 C  dx2y2           0.6       0.1       0.9       0.1       1.3       0.4
 1 C  dxy             1.4       0.0       0.1       0.0       0.0       1.3
 2 O  s               0.0       0.8       0.2       0.0       0.1       0.1
 2 O  pz              0.2       0.4       1.8       0.1       2.0       0.8
 2 O  px              0.1       1.0       0.4       0.3       0.4       2.0
 2 O  py             12.1       1.2       2.7       0.4       2.1       0.7
 2 O  dyz             0.0       0.2       0.0       0.0       0.0       0.0
 2 O  dx2y2           0.0       0.0       0.0       0.0       0.0       0.2
 2 O  dxy             0.4       0.0       0.0       0.2       0.8       0.1
 3 C  s               0.7       1.5       0.3       0.2       2.0       0.0
 3 C  pz              4.2       4.4       1.7       2.5       1.2       1.5
 3 C  px              3.5       7.0       4.3      19.0       0.1       1.6
 3 C  py              4.6       0.1       2.7       0.7       8.4       1.8
 3 C  dz2             0.3       0.3       1.4       0.1       1.5       0.2
 3 C  dxz             0.0       1.4       0.4       1.9       0.0       0.6
 3 C  dyz             0.2       0.2       0.6       0.4       0.3       0.1
 3 C  dx2y2           0.3       0.7       0.0       0.8       0.1       1.0
 3 C  dxy             1.9       0.0       0.1       0.5       0.8       0.3
 4 C  s               0.3       1.4       0.6       0.5       0.6      10.1
 4 C  pz              3.0       6.9       1.8       4.3       1.0       3.7
 4 C  px              3.1       5.8       7.5       9.7       7.7       1.0
 4 C  py              4.0       1.4       7.1       2.6       0.4      18.3
 4 C  dz2             0.0       0.5       2.0       0.4       1.6       0.3
 4 C  dxz             0.0       2.0       0.4       0.8       0.0       0.6
 4 C  dyz             0.2       0.6       0.7       0.1       0.4       0.9
 4 C  dx2y2           0.3       0.2       0.3       1.2       0.0       0.3
 4 C  dxy             1.8       0.0       1.1       0.0       0.0       1.0
 5 N  s               0.1       2.3       0.3       0.3       0.2       0.3
 5 N  pz              0.2       1.3       1.2       1.0       0.6       0.7
 5 N  px              0.1       4.5       1.2       1.0       0.9       0.2
 5 N  py              8.6       1.7       9.4       2.2       0.9       1.1
 5 N  dz2             0.0       0.2       0.0       0.2       0.2       0.4
 5 N  dxz             0.0       0.0       0.0       0.2       1.5       0.0
 5 N  dyz             0.0       0.1       0.1       0.2       0.1       0.4
 5 N  dx2y2           0.0       0.0       0.0       0.1       0.2       0.6
 5 N  dxy             0.7       0.0       0.3       2.2       0.0       0.5
 6 H  s               4.8       5.1       0.2       0.8       1.5       1.1
 7 H  s               2.1       0.3       0.6       1.0       9.6       1.7
 8 H  s               1.6       0.6       0.7       0.3       0.0       8.3
 9 H  s               2.2       4.3       0.5       0.0       1.8       0.4
10 H  s               4.6       1.6       2.6       0.1       2.1       0.3
11 H  s               2.1       0.2       0.9       4.0       4.3       1.2
12 H  s               2.3       0.5       0.1       0.5       0.4       8.5
13 H  s               5.0       3.0       2.4       2.0       3.9       0.1
14 H  s               1.1       2.0       0.2       3.8       5.9       0.0

                     42        43        44        45        46        47   
                   0.45180   0.46132   0.46590   0.49533   0.54147   0.56131
                   0.00000   0.00000   0.00000   0.00000   0.00000   0.00000
                  --------  --------  --------  --------  --------  --------
 0 C  s               1.8       3.6       2.5       3.1       0.1       1.7
 0 C  pz              0.9      10.1       8.7       0.8       5.7       5.2
 0 C  px              0.9       1.1       0.1      10.4       0.4      31.5
 0 C  py              3.7       6.2       2.7       9.0       1.3       2.4
 0 C  dz2             0.3       1.1       0.4       0.1       0.6       0.4
 0 C  dxz             0.2       1.3       1.4       0.6       0.5       0.0
 0 C  dyz             0.0       0.5       0.5       0.0       0.1       0.0
 0 C  dx2y2           0.1       0.0       0.1       0.0       0.6       0.1
 0 C  dxy             0.4       0.0       0.0       0.1       0.4       0.1
 1 C  s              11.3       0.2       2.8       0.3       0.2       1.3
 1 C  pz              5.9       0.3      14.6       4.7       4.0       1.9
 1 C  px              3.2       3.0       0.3      10.1       3.1      26.0
 1 C  py             20.5       5.2       2.7       1.7       0.1       2.1
 1 C  dz2             0.2       0.2       1.5       0.9       0.5       0.2
 1 C  dxz             0.0       0.1       1.3       0.4       0.2       0.1
 1 C  dyz             0.0       0.0       0.4       0.0       0.0       0.0
 1 C  dx2y2           0.1       0.2       0.1       0.0       0.1       0.1
 1 C  dxy             0.0       0.2       0.0       0.2       0.3       0.0
 2 O  s               0.5       0.0       0.0       0.0       1.1       0.5
 2 O  pz              0.1       1.1       6.3       0.0       0.1       1.0
 2 O  px              6.9       0.0       0.3       1.5       4.1       0.2
 2 O  py              0.2       3.1       1.2       0.0       0.1       0.2
 2 O  dz2             1.1       0.0       0.0       0.2       0.0       0.0
 2 O  dxz             0.0       0.1       0.3       0.0       0.0       0.0
 2 O  dyz             0.7       0.1       0.0       0.0       0.2       0.0
 2 O  dx2y2           0.4       0.0       0.0       0.2       0.0       0.0
 2 O  dxy             0.1       1.0       0.5       0.0       0.0       0.1
 3 C  s               7.0       3.0       3.7       0.3       0.2       0.2
 3 C  pz              3.3       3.7      13.1       5.6       2.5       0.6
 3 C  px              1.7       1.2       1.0      10.0      14.9       2.3
 3 C  py              9.6       9.9       4.5       3.0       1.6       1.0
 3 C  dz2             0.0       0.4       1.5       0.5       0.0       0.0
 3 C  dxz             0.0       0.2       0.6       0.9       0.9       0.0
 3 C  dyz             0.0       0.3       0.3       0.1       0.1       0.0
 3 C  dx2y2           0.3       0.0       0.3       0.0       0.1       0.0
 3 C  dxy             0.1       0.0       0.1       0.0       0.1       0.0
 4 C  s               0.8       2.2       0.7       1.0       1.7       0.2
 4 C  pz              0.1       1.7       2.4       5.4      17.1       0.5
 4 C  px              1.3       2.1       1.0       7.8       1.2       1.0
 4 C  py              1.8       8.9       2.6       3.4       1.7       0.0
 4 C  dz2             0.1       0.8       0.0       0.6       1.5       0.0
 4 C  dxz             0.4       0.0       0.6       1.5       0.6       0.0
 4 C  dyz             0.1       0.1       0.4       0.0       0.0       0.0
 4 C  dx2y2           0.1       0.1       0.2       0.0       0.7       0.0
 4 C  dxy             0.2       0.1       0.0       0.1       0.7       0.0
 5 N  s               0.7       0.2       0.4       1.2       1.1       0.4
 5 N  pz              0.0       1.7       0.2       0.1       3.0       3.0
 5 N  px              1.7       0.9       0.4       2.5       5.7       0.6
 5 N  py              0.1       3.5       1.1       0.2       0.0       0.3
 5 N  dz2             0.5       0.1       0.0       1.2       0.1       0.0
 5 N  dxz             0.0       0.5       0.3       0.0       0.2       0.2
 5 N  dyz             0.1       0.0       0.0       0.0       0.4       0.0
 5 N  dx2y2           0.1       0.0       0.0       0.2       0.5       0.1
 5 N  dxy             0.0       1.5       0.2       0.1       0.1       0.0
 6 H  s               1.8       6.2       1.5       0.0       2.0       5.5
 7 H  s               1.3       0.0       0.5       1.7       2.0       0.7
 8 H  s               0.9       0.9       0.2       0.9       1.3       1.4
 9 H  s               2.6       1.4       4.9       2.9       0.1       5.7
10 H  s               0.4       3.9       6.2       1.7       0.4       0.0
11 H  s               1.4       0.0       0.3       0.2       0.2       0.0
12 H  s               1.0       0.5       0.4       0.9       0.7       0.4
13 H  s               0.5       4.0       0.1       1.1       9.4       0.1
14 H  s               0.2       0.8       1.1       0.4       3.4       0.3

                     48        49        50        51        52        53   
                   0.57867   0.60239   0.60983   0.61665   0.63298   0.63624
                   0.00000   0.00000   0.00000   0.00000   0.00000   0.00000
                  --------  --------  --------  --------  --------  --------
 0 C  s               0.1       1.4       0.0       7.5       5.0       9.6
 0 C  pz              1.3       3.7       0.8       4.0       4.2       5.3
 0 C  px              3.0       3.8       0.6       0.0       1.3       0.7
 0 C  py              1.3       4.2       0.9       0.4       2.3       0.5
 0 C  dz2             0.1       0.4       0.0       0.5       0.0       0.0
 0 C  dxz             0.3       0.1       0.0       0.2       0.0       0.1
 0 C  dyz             0.0       0.6       0.5       0.0       0.0       0.1
 0 C  dx2y2           0.2       0.3       0.2       0.0       0.0       0.1
 0 C  dxy             0.0       0.6       0.0       0.0       0.1       0.1
 1 C  s               0.4       0.9       3.2      13.3       7.8       1.0
 1 C  pz              1.3       0.2       2.5      10.0      11.0       4.8
 1 C  px              0.1       0.7       1.9       0.3       0.2       0.9
 1 C  py              0.3       0.2       4.1       1.4       1.3       0.7
 1 C  dz2             0.8       0.0       1.7       0.6       0.1       0.3
 1 C  dxz             0.2       0.2       0.0       0.1       0.0       0.1
 1 C  dyz             0.0       0.1       0.7       0.1       0.0       0.3
 1 C  dx2y2           0.2       0.0       0.5       0.0       0.0       0.2
 1 C  dxy             0.1       0.0       1.2       0.0       0.1       0.2
 2 O  s               0.8       0.1       0.1       0.4       0.0       0.7
 2 O  pz              0.2       0.0       0.1       0.0       0.1       0.1
 2 O  px              0.2       0.4       0.1       0.2       0.0       0.1
 2 O  py              0.1       1.6       1.2       0.1       0.1       0.2
 2 O  dz2             0.1       0.1       0.1       0.0       0.0       0.0
 2 O  dx2y2           0.1       0.1       0.1       0.0       0.0       0.0
 3 C  s               1.3       6.0       0.1       5.3      10.0       2.1
 3 C  pz              8.9       1.1       3.0       3.9      14.5       2.4
 3 C  px             11.9       1.9       0.8       0.4       0.3       0.1
 3 C  py              0.5       4.4       0.8       0.0       1.7       0.5
 3 C  dz2             0.2       2.0       0.4       0.8       0.3       0.5
 3 C  dxz             0.1       0.0       0.0       0.1       0.1       0.1
 3 C  dyz             0.1       0.5       0.6       0.0       0.0       0.0
 3 C  dx2y2           0.4       0.8       0.0       0.0       0.0       0.1
 3 C  dxy             0.0       1.7       0.0       0.0       0.2       0.0
 4 C  s               1.9       0.8       3.6       6.5       4.6       1.3
 4 C  pz              0.2       1.4       0.8       7.5       0.9      15.5
 4 C  px             33.6       1.1       2.2       0.2       0.0       1.4
 4 C  py              2.9       1.2       4.6       0.0       2.0       0.8
 4 C  dz2             0.0       0.0       0.8       0.6       0.1       1.1
 4 C  dxz             0.1       0.0       0.1       0.1       0.0       0.1
 4 C  dyz             0.0       0.1       0.6       0.0       0.1       0.3
[...]
 3 C  px              1.3       0.7       0.1       0.4       0.5       0.0
 3 C  dz2             0.8       0.0       0.4       0.0       0.5       1.2
 3 C  dxz             8.6       6.5       0.1       1.8       1.5       0.3
 3 C  dyz             0.4       0.0       0.2       0.0       0.1       3.1
 3 C  dx2y2           9.3       5.0       0.0       0.4       0.9       0.3
 3 C  dxy             2.1       2.9       0.0       0.2       0.0       0.3
 4 C  s               2.1       1.1       0.1       0.0       0.0       0.0
 4 C  pz              1.2       0.3       0.0       0.0       0.0       0.0
 4 C  px              1.5       0.6       0.1       0.3       0.3       0.0
 4 C  py              0.3       0.2       0.1       0.1       0.3       0.0
 4 C  dz2             0.0       1.5       2.0       3.2       0.0       0.0
 4 C  dxz             6.1       7.3       6.0       3.5       1.1       0.2
 4 C  dyz             8.7       0.0       0.3       6.0       1.3       0.0
 4 C  dx2y2           5.3       4.4       1.4       0.0      13.0       0.1
 4 C  dxy             1.3       2.5       0.0       0.8       0.3       0.4
 5 N  s               0.8       0.0       0.7       3.0       1.3       0.1
 5 N  pz              0.0       0.3       0.0       0.0       0.3       0.0
 5 N  px              0.5       0.0       0.4       0.1       4.2       0.0
 5 N  py              0.0       0.2       0.0       0.0       0.0       0.1
 5 N  dz2            20.3       0.2       1.2       1.8      22.5       0.4
 5 N  dxz             1.2       0.9       4.9      50.8       4.9       0.0
 5 N  dyz             1.6       0.2      39.9       1.3       0.2       0.4
 5 N  dx2y2           0.0       0.0      17.9       1.1      16.6       0.8
 5 N  dxy             0.6       1.6       0.4       5.4       0.6       1.8
 6 H  s               0.1       0.2       0.4       0.1       0.0       0.0
 7 H  s               0.0       0.4       0.1       0.3       0.0       0.0
 8 H  s               0.0       0.4       0.0       0.0       0.1       0.1
 9 H  s               0.1       0.1       0.0       0.1       0.0       0.1
10 H  s               0.3       0.0       0.1       0.0       0.0       0.0
11 H  s               0.0       0.4       0.0       0.1       0.1       0.0
12 H  s               0.3       0.3       0.0       0.2       0.1       0.0
13 H  s               0.1       0.2       0.3       0.4       0.0       0.0
14 H  s               0.0       0.0       0.2       3.9       1.1       0.0

                     96        97        98        99       100       101   
                   2.79936   2.85596   2.92265   2.96519   3.16921   3.35778
                   0.00000   0.00000   0.00000   0.00000   0.00000   0.00000
                  --------  --------  --------  --------  --------  --------
 0 C  s               0.4       0.1       0.2       1.2       0.1       0.1
 0 C  px              0.6       0.1       0.0       1.1       0.1       0.1
 0 C  py              0.5       0.0       0.0       1.8       0.1       0.0
 0 C  dz2             1.3       0.7       0.3       0.7       0.0       0.0
 0 C  dxz             0.7       0.0       0.5       1.1       0.1       0.1
 0 C  dyz             0.3       0.0       0.1       1.1       0.2       0.0
 0 C  dx2y2           0.3       0.2       1.0       2.9       0.0       0.0
 0 C  dxy             5.3       0.7       2.3       5.1       0.6       0.0
 1 C  s               0.1       0.1       0.1       0.2       0.8       1.3
 1 C  px              0.1       0.0       0.2       0.2       0.6       0.8
 1 C  py              0.0       0.2       0.3       0.0       0.6       1.7
 1 C  dz2             0.4       0.5       0.0       0.0       1.7       0.5
 1 C  dxz             0.1       2.6       1.3       0.2       0.2       0.5
 1 C  dyz             0.0       0.4       3.2       0.3       0.0       0.8
 1 C  dx2y2           0.3       3.4       2.6       0.2       0.5       1.9
 1 C  dxy             0.1       0.0       0.9       0.0       5.6       2.9
 2 O  s               0.0       0.5       2.4       0.0       4.6       0.0
 2 O  pz              0.1       0.0       0.0       0.1       0.0       0.6
 2 O  px              0.1       1.1       1.6       0.0       0.4       0.0
 2 O  py              0.0       0.0       0.0       0.0       0.0       5.4
 2 O  dz2             5.5       0.0      50.7       0.0      15.8       0.0
 2 O  dxz             2.3       0.1       0.0       1.4       0.0       6.9
 2 O  dyz             9.2      34.1       3.2       0.0      26.9       0.0
 2 O  dx2y2           0.1      39.9       7.9       0.0      29.2       0.1
 2 O  dxy             0.3       0.2       0.0       0.4       0.0      65.3
 3 C  s               0.1       0.1       0.1       0.2       0.8       1.3
 3 C  pz              0.1       0.1       0.1       0.1       0.1       0.1
 3 C  px              0.1       0.0       0.1       0.2       0.6       0.8
 3 C  py              0.1       0.1       0.4       0.0       0.6       1.6
 3 C  dz2             1.7       0.7       0.0       0.0       1.6       0.5
 3 C  dxz             0.9       2.7       1.3       0.3       0.3       0.5
 3 C  dyz             0.5       0.4       3.6       0.2       0.0       0.9
 3 C  dx2y2           0.7       3.3       2.5       0.3       0.7       1.5
 3 C  dxy             0.0       0.1       0.9       0.0       5.0       3.1
 4 C  s               0.4       0.1       0.3       1.2       0.0       0.1
 4 C  px              1.0       0.1       0.0       1.1       0.0       0.1
 4 C  py              0.6       0.0       0.0       1.8       0.1       0.0
 4 C  dz2             2.6       0.8       0.2       0.7       0.1       0.0
 4 C  dxz             2.4       0.0       0.4       1.0       0.1       0.1
 4 C  dyz             0.2       0.0       0.0       1.0       0.2       0.1
 4 C  dx2y2           0.1       0.2       0.7       3.0       0.0       0.0
 4 C  dxy             3.5       0.7       2.3       5.2       0.5       0.0
 5 N  s               1.2       0.2       0.4       0.0       0.0       0.0
 5 N  pz              0.6       0.0       0.0       0.5       0.0       0.0
 5 N  px              1.3       0.1       0.1       0.0       0.0       0.0
 5 N  py              0.1       0.0       0.0       5.2       0.0       0.0
 5 N  dz2            17.3       0.1       0.5       0.0       0.0       0.0
 5 N  dxz             2.2       0.2       0.0       5.2       0.0       0.0
 5 N  dyz            12.9       1.9       4.0       0.0       0.3       0.0
 5 N  dx2y2          18.4       2.8       2.8       0.0       0.3       0.0
 5 N  dxy             0.1       0.0       0.0      54.6       0.0       0.0
 7 H  s               0.1       0.0       0.1       0.1       0.0       0.0
13 H  s               0.1       0.1       0.0       0.0       0.0       0.0
14 H  s               2.3       0.1       0.1       0.0       0.0       0.0



                      *****************************
                      * MAYER POPULATION ANALYSIS *
                      *****************************

  NA   - Mulliken gross atomic population
  ZA   - Total nuclear charge
  QA   - Mulliken gross atomic charge
  VA   - Mayer's total valence
  BVA  - Mayer's bonded valence
  FA   - Mayer's free valence

  ATOM       NA         ZA         QA         VA         BVA        FA
  0 C      6.1076     6.0000    -0.1076     4.1483     4.1483     0.0000
  1 C      5.9732     6.0000     0.0268     4.0397     4.0397    -0.0000
  2 O      8.3460     8.0000    -0.3460     2.1521     2.1521    -0.0000
  3 C      6.0003     6.0000    -0.0003     4.1099     4.1099     0.0000
  4 C      6.0827     6.0000    -0.0827     4.1109     4.1109    -0.0000
  5 N      7.3644     7.0000    -0.3644     3.1136     3.1136    -0.0000
  6 H      0.9100     1.0000     0.0900     0.9416     0.9416     0.0000
  7 H      0.9082     1.0000     0.0918     0.9511     0.9511    -0.0000
  8 H      0.9122     1.0000     0.0878     0.9505     0.9505    -0.0000
  9 H      0.9376     1.0000     0.0624     0.9467     0.9467    -0.0000
 10 H      0.9192     1.0000     0.0808     0.9414     0.9414    -0.0000
 11 H      0.9045     1.0000     0.0955     0.9501     0.9501     0.0000
 12 H      0.9100     1.0000     0.0900     0.9466     0.9466    -0.0000
 13 H      0.9256     1.0000     0.0744     0.9404     0.9404    -0.0000
 14 H      0.7985     1.0000     0.2015     0.9117     0.9117    -0.0000

  Mayer bond orders larger than 0.100000
B(  0-C ,  1-C ) :   1.1258 B(  0-C ,  5-N ) :   1.1087 B(  0-C ,  6-H ) :   0.9094 
B(  0-C ,  7-H ) :   0.9247 B(  1-C ,  2-O ) :   1.0245 B(  1-C ,  8-H ) :   0.9221 
B(  1-C ,  9-H ) :   0.9088 B(  2-O ,  3-C ) :   1.0298 B(  3-C ,  4-C ) :   1.1541 
B(  3-C , 10-H ) :   0.9083 B(  3-C , 11-H ) :   0.9293 B(  4-C ,  5-N ) :   1.0795 
B(  4-C , 12-H ) :   0.9167 B(  4-C , 13-H ) :   0.9017 B(  5-N , 14-H ) :   0.8821 


-------
TIMINGS
-------

Total SCF time: 0 days 0 hours 0 min 0 sec 

Total time                  ....       0.564 sec
Sum of individual times     ....       0.555 sec  ( 98.5%)

SCF preparation             ....       0.024 sec  (  4.3%)
Fock matrix formation       ....       0.496 sec  ( 88.0%)
  Startup                   ....       0.001 sec  (  0.1% of F)
  Split-RI-J                ....       0.197 sec  ( 39.7% of F)
  XC integration            ....       0.297 sec  ( 59.8% of F)
    Basis function eval.    ....       0.131 sec  ( 44.3% of XC)
    Density eval.           ....       0.061 sec  ( 20.6% of XC)
    XC-Functional eval.     ....       0.025 sec  (  8.5% of XC)
    XC-Potential eval.      ....       0.067 sec  ( 22.5% of XC)
Diagonalization             ....       0.000 sec  (  0.0%)
Density matrix formation    ....       0.001 sec  (  0.2%)
Total Energy calculation    ....       0.000 sec  (  0.0%)
Population analysis         ....       0.029 sec  (  5.1%)
Orbital Transformation      ....       0.001 sec  (  0.2%)
Orbital Orthonormalization  ....       0.000 sec  (  0.0%)
DIIS solution               ....       0.001 sec  (  0.3%)
  MO trafo                  ....       0.000 sec  (  0.1 % of DIIS)
  Orb grad                  ....       0.000 sec  (  0.0 % of DIIS)
  Energy W gradient         ....       0.000 sec  (  0.0 % of DIIS)
  DIIS error                ....       0.000 sec  (  9.6 % of DIIS)
  DIIS work                 ....       0.001 sec  ( 88.4 % of DIIS)
  Form Q                    ....       0.000 sec  (  0.0 % of DIIS)
  Form QpQm                 ....       0.000 sec  (  0.0 % of DIIS)
  Exp/Cayley                ....       0.000 sec  (  0.0 % of DIIS)
  Orb update                ....       0.000 sec  (  0.0 % of DIIS)
  Wake-sleep                ....       0.000 sec  (  2.0 % of DIIS)
SOSCF solution              ....       0.003 sec  (  0.5%)
  MO trafo                  ....       0.002 sec  ( 65.5 % of SOSCF)
  Orb grad                  ....       0.000 sec  (  1.3 % of SOSCF)
  Rot update                ....       0.000 sec  (  3.4 % of SOSCF)
  Step                      ....       0.001 sec  ( 28.0 % of SOSCF)
Finished LeanSCF after   0.6 sec

Maximum memory used throughout the entire LEANSCF-calculation: 10.1 MB


-------------------------------------------------------------------------------
                          DFT DISPERSION CORRECTION                            
                                                                               
                                DFTD4 V3.4.0                                   
-------------------------------------------------------------------------------
The PBE functional is recognized
Active option DFTDOPT                   ...         5   

-------------------------   ----------------
Dispersion correction           -0.011741074
-------------------------   ----------------

------------------   -----------------
gCP correction             0.075449450
------------------   -----------------

-------------------------   --------------------
FINAL SINGLE POINT ENERGY      -287.122197888523
-------------------------   --------------------


------------------------------------------------------------------------------
                              ORCA PROPERTY CALCULATIONS
------------------------------------------------------------------------------

GBWName                                 ... sp.gbw
Number of atoms                         ...     15
Number of basis functions               ...    102
Max core memory                         ...   1024 MB

Electric properties:
Dipole moment                           ... YES
Quadrupole moment                       ...  NO
Static polarizability (Dipole/Dipole)   ...  NO
Static polarizability (Dipole/Quad.)    ...  NO
Static polarizability (Quad./Quad.)     ...  NO
Static polarizability (Velocity)        ...  NO

Atomic electric properties:
Dipole moment                           ...  NO
Quadrupole moment                       ...  NO
Static polarizability                   ...  NO

Choice of electric origin               ... Center of mass
Position of electric origin             ...    -0.000027    -0.000000    -0.000001

General magnetic properties:
Magnetizability                         ...  NO

EPR properties:
g-Tensor (aka g-matrix)                 ...  NO
Zero-Field splitting spin-orbit         ...  NO
Zero-field splitting spin-spin          ...  NO
Hyperfine couplings                     ...  NO (   0 nuclei)
Quadrupole couplings                    ...  NO (   0 nuclei)
Contact density                         ...  NO (   0 nuclei)

NMR properties:
Chemical shifts                         ...  NO (   0 nuclei)
Spin-rotation constants                 ...  NO (   0 nuclei)
Spin-spin couplings                     ...  NO (   0 nuclei,    0 pairs)

Choice of magnetic origin               ... GIAO
Position of magnetic origin             ...     0.000000     0.000000     0.000000

Properties with geometric perturbations:
SCF Hessian                             ...  NO
IR spectrum                             ...  NO
VCD spectrum                            ...  NO
X-ray spectroscopy properties:
SCF XES/XAS/RIXS spectra                ...  NO


-------------
DIPOLE MOMENT
-------------

Method             : SCF
Type of density    : Electron Density
Multiplicity       :   1
Irrep              :   0
Energy             :  -287.1859062645753511 Eh
Relativity type    : 
Basis              : AO
                                X                 Y                 Z
Electronic contribution:      1.450914556       0.059830540       0.192571281
Nuclear contribution   :     -1.879322546      -0.192591152      -0.547614845
                        -----------------------------------------
Total Dipole Moment    :     -0.428407990      -0.132760612      -0.355043565
                        -----------------------------------------
Magnitude (a.u.)       :      0.572026852
Magnitude (Debye)      :      1.453976707



--------------------
Rotational spectrum 
--------------------
 
Rotational constants in cm-1:             0.168072             0.149289             0.092431 
Rotational constants in MHz :          5038.679629          4475.579590          2771.000175 

Dipole components along the rotational axes: 
x,y,z [a.u.] :    -0.431230     0.147687    -0.345607 
x,y,z [Debye]:    -1.096100     0.375390    -0.878463 

 

Dipole moment calculation done in   0.0 sec 

Maximum memory used throughout the entire PROP-calculation: 6.6 MB

--------------------------------
SUGGESTED CITATIONS FOR THIS RUN
--------------------------------

Below you find a list of papers that are relevant to this ORCA run
We neither can nor want to force you to cite these papers, but we appreciate if you do
You receive ORCA, which is the product of decades of hard work by many enthusiastic individuals, for free
The only thing we kindly ask in return is that you cite our papers,
We deeply appreciate it, if you show your appreciation for ORCA by not just citing the generic ORCA reference.

Please note that relegating all ORCA citations to the supporting information does *not* help us.
SI sections are not indexed - citations you put there will not count into any citation statistics
But we need these citations in order to attract the funding resources that allow us to do what we are doing

Therefore, if you are a happy ORCA user, please consider citing a few of the papers listed below in the main body of your paper

In addition to the list printed below, the program has created the file sp.bibtex that contains the list in bibtex format
You can import this file easily into all common literature databanks and citation aid programs


List of essential papers. We consider these as the minimum necessary citations

  1. Neese,F.
     Software update: the ORCA program system, version 5.0
     WIRES Comput. Molec. Sci., 2022 12(1)e1606
     doi.org/10.1002/wcms.1606

List of papers to cite with high priority. The work reported in these papers was absolutely
necessary for this run to complete.
Our perspective: the developers of density functionals and basis sets usually get cited in chemistry papers
Good! But without the algorithms to do something with them, the functionals or basis sets would not do anything.
Hence, in our opinion, the algorithm design and method developments papers are equally worthy of getting cited

  1. Neese,F.
     An improvement of the resolution of the identity approximation for the formation of the Coulomb matrix
     J. Comp. Chem., 2003 24(14)1740-1747
     doi.org/10.1002/jcc.10318
  2. Neese,F.
     The SHARK Integral Generation and Digestion System
     J. Comp. Chem., 2022  1-16
     doi.org/10.1002/jcc.26942
  3. Caldeweyher,E.; Bannwarth,C.; Grimme,S.
     Extension of the D3 dispersion coefficient model
     J. Chem. Phys., 2017 147 034112
     doi.org/10.1063/1.4993215
  4. Caldeweyher,E.; Ehlert,S.; Hansen,A.; Neugebauer,H.; Spicher,S.; Bannwarth,C.; Grimme,S.
     A generally applicable atomic-charge dependent London dispersion correction
     J. Chem. Phys., 2019 150 154122
     doi.org/10.1063/1.5090222
  5. Caldeweyher,E.; Mewes,J.; Ehlert,S.; Grimme,S.
     Extension and evaluation of the D4 London-dispersion model for periodic systems
     Phys. Chem. Chem. Phys., 2020 22(16)8499-8512
     doi.org/10.1039/D0CP00502A
  6. Wittmann,L.; Gordiy,I.; Friede,M.; Helmich-Paris,B.; Grimme,S.; Hansen,A.; Bursch,M.
     Extension of the D3 and D4 London Dispersion Corrections to the full Actinides Series
     Phys. Chem. Chem. Phys., 2024 26(32)21379-21394
     doi.org/https://doi.org/10.1039/D4CP01514B 

List of suggested additional citations. These are papers that are important in the 'surrounding' of 
of this run, or papers that preceded the highly important papers. If you like your results we are grateful for a citation.

  1. Neese,F.
     The ORCA program system
     WIRES Comput. Molec. Sci., 2012 2(1)73-78
     doi.org/10.1002/wcms.81
  2. Neese,F.
     Software update: the ORCA program system, version 4.0
     WIRES Comput. Molec. Sci., 2018 8(1)1-6
     doi.org/10.1002/wcms.1327
  3. Neese,F.; Wennmohs,F.; Becker,U.; Riplinger,C.
     The ORCA quantum chemistry program package
     J. Chem. Phys., 2020 152 Art. No. L224108
     doi.org/10.1063/5.0004608

List of optional additional citations

  1. Neese,F.
     Approximate second-order SCF convergence for spin unrestricted wavefunctions
     Chem. Phys. Lett., 2000 325(1-3)93-98
     doi.org/10.1016/s0009-2614(00)00662-x

Timings for individual modules:

Sum of individual times          ...        0.841 sec (=   0.014 min)
Startup calculation              ...        0.191 sec (=   0.003 min)  22.8 %
SCF iterations                   ...        0.616 sec (=   0.010 min)  73.3 %
Property calculations            ...        0.034 sec (=   0.001 min)   4.0 %
                             ****ORCA TERMINATED NORMALLY****
TOTAL RUN TIME: 0 days 0 hours 0 minutes 0 seconds 916 msec
