
                                 *****************
                                 * O   R   C   A *
                                 *****************

                                            #,                                       
                                            ###                                      
                                            ####                                     
                                            #####                                    
                                            ######                                   
                                           ########,                                 
                                     ,,################,,,,,                         
                               ,,#################################,,                 
                          ,,##########################################,,             
                       ,#########################################, ''#####,          
                    ,#############################################,,   '####,        
                  ,##################################################,,,,####,       
                ,###########''''           ''''###############################       
              ,#####''   ,,,,##########,,,,          '''####'''          '####       
            ,##' ,,,,###########################,,,                        '##       
           ' ,,###''''                  '''############,,,                           
         ,,##''                                '''############,,,,        ,,,,,,###''
      ,#''                                            '''#######################'''  
     '                                                          ''''####''''         
             ,#######,   #######,   ,#######,      ##                                
            ,#'     '#,  ##    ##  ,#'     '#,    #''#        ,####,   ,####,        
            ##       ##  ##   ,#'  ##            #'  '#       #'       #'  '#        
            ##       ##  #######   ##           ,######,      #####,   #    #        
            '#,     ,#'  ##    ##  '#,     ,#' ,#      #,     #,   #   #,  ,#        
             '#######'   ##     ##  '#######'  #'      '#     '####' # '####'        



                #########################################################
                #                        -***-                          #
                #          Department of theory and spectroscopy        #
                #                                                       #
                #                      Frank Neese                      #
                #                                                       #
                #     Directorship, Architecture, Infrastructure        #
                #                    SHARK, DRIVERS                     #
                #        Core code/Algorithms in most modules           #
                #                                                       #
                #        Max Planck Institute fuer Kohlenforschung      #
                #                Kaiser Wilhelm Platz 1                 #
                #                 D-45470 Muelheim/Ruhr                 #
                #                      Germany                          #
                #                                                       #
                #                  All rights reserved                  #
                #                        -***-                          #
                #########################################################


                         Program Version 6.0.1  -  RELEASE   -


 With contributions from (in alphabetic order):
[Max-Planck-Institut fuer Kohlenforschung]                               
  Daniel Aravena         : Magnetic Suceptibility                        
  Michael Atanasov       : Ab Initio Ligand Field Theory (pilot matlab implementation)
  Alexander A. Auer      : GIAO ZORA, VPT2 properties, NMR spectrum      
  Ute Becker             : All parallelization in ORCA, NUMFREQ, NUMCALC 
  Giovanni Bistoni       : ED, misc. LED, open-shell LED, HFLD           
  Martin Brehm           : Molecular dynamics                            
  Dmytro Bykov           : pre 5.0 version of the SCF Hessian            
  Marcos Casanova-Páez   : Triplet and SCS-CIS(D). UHF-(DLPNO)-IP/EA/STEOM-CCSD. UHF-CVS-IP/STEOM-CCSD   
  Vijay G. Chilkuri      : MRCI spin determinant printing, contributions to CSF-ICE 
  Pauline Colinet        : FMM embedding                                 
  Dipayan Datta          : RHF DLPNO-CCSD density                        
  Achintya Kumar Dutta   : EOM-CC, STEOM-CC                              
  Nicolas Foglia         : Exact transition moments, OPA infrastructure, MCD improvements    
  Dmitry Ganyushin       : Spin-Orbit,Spin-Spin,Magnetic field MRCI      
  Miquel Garcia-Rates    : C-PCM and meta-GGA Hessian, CCSD/C-PCM, Gaussian charge scheme 
  Tiago L. C. Gouveia    : GS-ROHF, GS-ROCIS                             
  Yang Guo               : DLPNO-NEVPT2, F12-NEVPT2, CIM, IAO-localization        
  Andreas Hansen         : Spin unrestricted coupled pair/coupled cluster methods 
  Ingolf Harden          : AUTO-CI MPn and infrastructure                
  Benjamin Helmich-Paris : MC-RPA, TRAH-(SCF,CASSCF), AVAS, COSX integrals, SCF dyn. polar. 
  Lee Huntington         : MR-EOM, pCC                                   
  Robert Izsak           : Overlap fitted RIJCOSX, COSX-SCS-MP3, EOM     
  Riya Kayal             : Wick's Theorem for AUTO-CI, AUTO-CI UHF-CCSDT 
  Emily Kempfer          : AUTO-CI, RHF CISDT and CCSDT                  
  Christian Kollmar      : KDIIS, OOCD, Brueckner-CCSD(T), CCSD density, CASPT2, CASPT2-K, improved NEVPT2 
  Axel Koslowski         : Symmetry handling                             
  Simone Kossmann        : meta-GGA functionals, TD-DFT gradient, OOMP2, (MP2 Hessian; deprecated post 5.0) 
  Lucas Lang             : DCDCAS                                        
  Marvin Lechner         : AUTO-CI (C++ implementation), FIC-MRCC        
  Spencer Leger          : CASSCF response                               
  Dagmar Lenk            : GEPOL surface, SMD, ORCA-2-JSON               
  Dimitrios Liakos       : Extrapolation schemes; Compound Job, initial MDCI parallelization 
  Dimitrios Manganas     : Further ROCIS development; embedding schemes. LFT, Crystal Embedding 
  Dimitrios Pantazis     : SARC Basis sets                               
  Anastasios Papadopoulos: AUTO-CI, single reference methods and gradients 
  Taras Petrenko         : pre 6.0 DFT Hessian and TD-DFT gradient, (ASA, deprecated), ECA, 1-Electron XAS/XES, NRVS 
  Peter Pinski           : DLPNO-MP2, DLPNO-MP2 Gradient                 
  Christoph Reimann      : Effective Core Potentials                     
  Marius Retegan         : Local ZFS, SOC                                
  Christoph Riplinger    : Optimizer, TS searches, QM/MM, DLPNO-CCSD(T), (RO)-DLPNO pert. Triples 
  Michael Roemelt        : Original ROCIS implementation                 
  Masaaki Saitow         : Open-shell DLPNO-CCSD energy and density      
  Barbara Sandhoefer     : DKH picture change effects                    
  Kantharuban Sivalingam : CASSCF convergence/infrastructure, NEVPT2 and variants, FIC-MRCI 
  Bernardo de Souza      : ESD, SOC TD-DFT                               
  Georgi L. Stoychev     : AutoAux, RI-MP2 NMR, DLPNO-MP2 response, X2C  
  Van Anh Tran           : RI-MP2 g-tensors                              
  Willem Van den Heuvel  : Paramagnetic NMR                              
  Zikuan Wang            : NOTCH, Electric field optimization            
  Frank Wennmohs         : Technical directorship and infrastructure     
  Hang Xu                : AUTO-CI-Response properties                   
                                                                         
[FACCTs GmbH]                                                            
  Markus Bursch, Miquel Garcia-Rates, Christoph Riplinger, Bernardo de Souza, Georgi L. Stoychev 
                                                                 
  APM, Basis sets (HGBS, AHGBS, def-TZVP (Ac-Lr), def2-XVPD (La-Lu)), CI-OPT, improved COSX, DLPNO-Multilevel,           
  DOCKER, DRACO, updates on ESD, GOAT, IRC, LR-CPCM, MBIS, meta-GGA TD-DFT gradient, ML-optimized integration grids, 
  MM, NACMEs, nearIR, NEB, NEB-TS, NL-DFT gradient (VV10), 2- and 3-layer-ONIOM, interface openCOSMO-RS, QMMM,   
  Crystal-QMMM, SF, symmetry and pop. for TD-DFT, r2SCAN hybrids, SOLVATOR                                   
                                                                         
[Other institutions]                                                     
  V. Asgeirsson          : NEB                                           
  Christoph Bannwarth    : sTDA-DFT, sTD-DFT, PBEh-3c, B97-3c, D3        
  Sebastian Ehlert       : rSCAN, r2SCAN, r2SCAN-3c, D4, dhf basis sets  
  Marvin Friede          : D4 for Fr, Ra, Ac-Lr                          
  Lars Goerigk           : TD-DFT with DH, B97 family of functionals     
  Stefan Grimme          : VdW corrections, initial TS optimization, DFT functionals, gCP, sTDA/sTD-DF 
  Waldemar Hujo          : DFT-NL                                        
  H. Jonsson             : NEB                                           
  Holger Kruse           : gCP                                           
  Marcel Mueller         : wB97X-3c, vDZP basis set                      
  Hagen Neugebauer       : wr2SCAN                                       
  Tobias Risthaus        : range-separated hybrid DFT                    
  Lukas Wittmann         : regularized MP2, r2SCAN double-hybrids, wr2SCAN        
                                                                         
We gratefully acknowledge several colleagues who have allowed us to      
interface, adapt or use parts of their codes:                            
  Ed Valeev, F. Pavosevic, A. Kumar             : LibInt (2-el integral package), F12 methods 
  Garnet Chan, S. Sharma, J. Yang, R. Olivares  : DMRG                   
  Ulf Ekstrom                                   : XCFun DFT Library      
  Mihaly Kallay                                 : mrcc  (arbitrary order and MRCC methods)
  Frank Weinhold                                : gennbo (NPA and NBO analysis)           
  Simon Mueller                                 : openCOSMO-RS                            
  Christopher J. Cramer and Donald G. Truhlar   : smd solvation model                     
  S Lehtola, MJT Oliveira, MAL Marques          : LibXC Library                           
  Liviu Ungur et al                             : ANISO software                          


 Your calculation uses the libint2 library for the computation of 2-el integrals
 For citations please refer to: http://libint.valeyev.net

 Your ORCA version has been built with support for libXC version: 6.2.2
 For citations please refer to: https://libxc.gitlab.io

 This ORCA versions uses:
   CBLAS   interface :  Fast vector & matrix operations
   LAPACKE interface :  Fast linear algebra routines
   SCALAPACK package :  Parallel linear algebra routines
   Shared memory     :  Shared parallel matrices
   BLAS/LAPACK       :  OpenBLAS 0.3.27  USE64BITINT DYNAMIC_ARCH NO_AFFINITY Zen SINGLE_THREADED
        Core in use  :  Zen
   Copyright (c) 2011-2014, The OpenBLAS Project


Your calculation utilizes the geometrical counterpoise correction gCP
Please cite in your paper:
H.Kruse, S. Grimme J.Chem.Phys., 136, (2012), 154101 
   

Your calculation utilizes the atom-pairwise dispersion correction
based on EEQ partial charges (D4)


================================================================================

----- Orbital basis set information -----
Your calculation utilizes the basis: def2-mTZVPP
   Stefan Grimme, Andreas Hansen, Sebastian Ehlert, and Jan-Michael Mewes 
   J. Chem. Phys. 154, 064103 (2021). DOI: 10.1063/5.0040021

----- AuxJ basis set information -----
Your calculation utilizes the auxiliary basis: def2/J
   F. Weigend, Phys. Chem. Chem. Phys. 8, 1057 (2006).

================================================================================
                                        WARNINGS
                       Please study these warnings very carefully!
================================================================================

WARNING: Old DensityContainer found on disk!
         Will remove this file - 
         If you want to keep old densities, please start your calculation with a different basename. 



WARNING: SCAN, rSCAN, or r2SCAN functional requested.
  ===> : libXC variant has now been activated.



================================================================================
                                       INPUT FILE
================================================================================
NAME = sp.inp
|  1> ! r2scan-3c def2/J RI DEFGRID2 scfconv6 printgap
|  2> %output
|  3>     printlevel normal
|  4> end
|  5> * xyz 0 1
|  6> C 0.5945134275 1.7004031545 0.003260012
|  7> C 1.3969663165 0.4229541147 -0.2664023532
|  8> H 1.5710247139 0.3293998453 -1.3479766202
|  9> C 0.5494383083 -0.7729970702 0.2004124343
| 10> H 0.3644614525 -0.6708954544 1.280217041
| 11> C -0.7920274046 -0.7456265075 -0.5372126005
| 12> H -0.6085437048 -0.8772086076 -1.6133431491
| 13> C -1.4703152266 0.6207067266 -0.2962161922
| 14> H -2.3582202376 0.7050953636 -0.9429188495
| 15> O -0.6448918752 1.6716526851 -0.6766679603
| 16> O -1.8334620472 0.7352476053 1.0498341853
| 17> O -1.6599104807 -1.7407296045 -0.053175905
| 18> O 1.1631459647 -2.0201124497 -0.0700613642
| 19> O 2.6201849265 0.4990661514 0.4331516407
| 20> H 1.1259323704 2.5715905705 -0.37934623
| 21> H 0.4444328757 1.810816593 1.0825753484
| 22> H -2.2412895895 -0.1053240063 1.2980830072
| 23> H -1.1734716952 -2.5745634394 -0.070751864
| 24> H 1.9456041959 -2.0999160141 0.4863705766
| 25> H 3.2445391549 -0.1221012966 0.0432673903
| 26> *
| 27> 
| 28>                          ****END OF INPUT****
================================================================================

                       ****************************
                       * Single Point Calculation *
                       ****************************

---------------------------------
CARTESIAN COORDINATES (ANGSTROEM)
---------------------------------
  C      0.594513    1.700403    0.003260
  C      1.396966    0.422954   -0.266402
  H      1.571025    0.329400   -1.347977
  C      0.549438   -0.772997    0.200412
  H      0.364461   -0.670895    1.280217
  C     -0.792027   -0.745627   -0.537213
  H     -0.608544   -0.877209   -1.613343
  C     -1.470315    0.620707   -0.296216
  H     -2.358220    0.705095   -0.942919
  O     -0.644892    1.671653   -0.676668
  O     -1.833462    0.735248    1.049834
  O     -1.659910   -1.740730   -0.053176
  O      1.163146   -2.020112   -0.070061
  O      2.620185    0.499066    0.433152
  H      1.125932    2.571591   -0.379346
  H      0.444433    1.810817    1.082575
  H     -2.241290   -0.105324    1.298083
  H     -1.173472   -2.574563   -0.070752
  H      1.945604   -2.099916    0.486371
  H      3.244539   -0.122101    0.043267

----------------------------
CARTESIAN COORDINATES (A.U.)
----------------------------
  NO LB      ZA    FRAG     MASS         X           Y           Z
   0 C     6.0000    0    12.011    1.123468    3.213296    0.006161
   1 C     6.0000    0    12.011    2.639884    0.799267   -0.503427
   2 H     1.0000    0     1.008    2.968806    0.622475   -2.547307
   3 C     6.0000    0    12.011    1.038288   -1.460753    0.378725
   4 H     1.0000    0     1.008    0.688732   -1.267809    2.419260
   5 C     6.0000    0    12.011   -1.496715   -1.409030   -1.015185
   6 H     1.0000    0     1.008   -1.149981   -1.657684   -3.048777
   7 C     6.0000    0    12.011   -2.778493    1.172966   -0.559767
   8 H     1.0000    0     1.008   -4.456390    1.332437   -1.781858
   9 O     8.0000    0    15.999   -1.218669    3.158966   -1.278717
  10 O     8.0000    0    15.999   -3.464741    1.389417    1.983899
  11 O     8.0000    0    15.999   -3.136776   -3.289502   -0.100488
  12 O     8.0000    0    15.999    2.198027   -3.817459   -0.132397
  13 O     8.0000    0    15.999    4.951432    0.943098    0.818538
  14 H     1.0000    0     1.008    2.127704    4.859602   -0.716860
  15 H     1.0000    0     1.008    0.839856    3.421947    2.045771
  16 H     1.0000    0     1.008   -4.235424   -0.199034    2.453021
  17 H     1.0000    0     1.008   -2.217540   -4.865220   -0.133702
  18 H     1.0000    0     1.008    3.676659   -3.968266    0.919107
  19 H     1.0000    0     1.008    6.131290   -0.230738    0.081764

--------------------------------
INTERNAL COORDINATES (ANGSTROEM)
--------------------------------
 C      0   0   0     0.000000000000     0.00000000     0.00000000
 C      1   0   0     1.532489634404     0.00000000     0.00000000
 H      2   1   0     1.099477886119   109.08209182     0.00000000
 C      2   1   3     1.538349442479   107.82820623   242.19450808
 H      4   2   1     1.100281402997   108.55919005   298.85439497
 C      4   2   1     1.531133599185   108.82032795    57.23483017
 H      6   4   2     1.099562219608   108.85333196    63.46771991
 C      6   4   2     1.544351043284   108.99208649   304.23105627
 H      8   6   4     1.101690100515   109.27749354   171.53913149
 O      8   6   4     1.389444012753   111.44106137    55.85477761
 O      8   6   4     1.398873419925   109.67093349   292.74173552
 O      6   4   2     1.406322413257   111.23673131   185.83406874
 O      4   2   1     1.416011981935   112.82739604   176.65992604
 O      2   1   3     1.411181278349   108.76541795   120.94925169
 H      1   2   3     1.089844549964   110.44055434   301.95643295
 H      1   2   3     1.095279368389   109.21904136   181.60171265
 H     11   8   6     0.966701306537   106.58419809   315.16789344
 H     12   6   4     0.965510471511   107.09195134   308.49335154
 H     13   4   2     0.963444859453   108.33807119    67.85061521
 H     14   2   1     0.963159867149   109.05298643   199.57536434

---------------------------
INTERNAL COORDINATES (A.U.)
---------------------------
 C      0   0   0     0.000000000000     0.00000000     0.00000000
 C      1   0   0     2.895985712097     0.00000000     0.00000000
 H      2   1   0     2.077712095068   109.08209182     0.00000000
 C      2   1   3     2.907059144556   107.82820623   242.19450808
 H      4   2   1     2.079230521911   108.55919005   298.85439497
 C      4   2   1     2.893423176904   108.82032795    57.23483017
 H      6   4   2     2.077871462266   108.85333196    63.46771991
 C      6   4   2     2.918400526443   108.99208649   304.23105627
 H      8   6   4     2.081892574425   109.27749354   171.53913149
 O      8   6   4     2.625668662519   111.44106137    55.85477761
 O      8   6   4     2.643487659680   109.67093349   292.74173552
 O      6   4   2     2.657564217052   111.23673131   185.83406874
 O      4   2   1     2.675874848209   112.82739604   176.65992604
 O      2   1   3     2.666746141396   108.76541795   120.94925169
 H      1   2   3     2.059507727979   110.44055434   301.95643295
 H      1   2   3     2.069778046389   109.21904136   181.60171265
 H     11   8   6     1.826800722659   106.58419809   315.16789344
 H     12   6   4     1.824550370589   107.09195134   308.49335154
 H     13   4   2     1.820646929500   108.33807119    67.85061521
 H     14   2   1     1.820108372095   109.05298643   199.57536434

---------------------
BASIS SET INFORMATION
---------------------
There are 3 groups of distinct atoms

 Group   1 Type C   : 11s6p1d contracted to 5s3p1d pattern {62111/411/1}
 Group   2 Type H   : 4s1p contracted to 2s1p pattern {31/1}
 Group   3 Type O   : 11s6p2d contracted to 5s3p2d pattern {62111/411/11}

Atom   0C    basis set group =>   1
Atom   1C    basis set group =>   1
Atom   2H    basis set group =>   2
Atom   3C    basis set group =>   1
Atom   4H    basis set group =>   2
Atom   5C    basis set group =>   1
Atom   6H    basis set group =>   2
Atom   7C    basis set group =>   1
Atom   8H    basis set group =>   2
Atom   9O    basis set group =>   3
Atom  10O    basis set group =>   3
Atom  11O    basis set group =>   3
Atom  12O    basis set group =>   3
Atom  13O    basis set group =>   3
Atom  14H    basis set group =>   2
Atom  15H    basis set group =>   2
Atom  16H    basis set group =>   2
Atom  17H    basis set group =>   2
Atom  18H    basis set group =>   2
Atom  19H    basis set group =>   2
---------------------------------
AUXILIARY/J BASIS SET INFORMATION
---------------------------------
There are 3 groups of distinct atoms

 Group   1 Type C   : 12s5p4d2f1g contracted to 6s4p3d1f1g pattern {711111/2111/211/2/1}
 Group   2 Type H   : 5s2p1d contracted to 3s1p1d pattern {311/2/1}
 Group   3 Type O   : 12s5p4d2f1g contracted to 6s4p3d1f1g pattern {711111/2111/211/2/1}

Atom   0C    basis set group =>   1
Atom   1C    basis set group =>   1
Atom   2H    basis set group =>   2
Atom   3C    basis set group =>   1
Atom   4H    basis set group =>   2
Atom   5C    basis set group =>   1
Atom   6H    basis set group =>   2
Atom   7C    basis set group =>   1
Atom   8H    basis set group =>   2
Atom   9O    basis set group =>   3
Atom  10O    basis set group =>   3
Atom  11O    basis set group =>   3
Atom  12O    basis set group =>   3
Atom  13O    basis set group =>   3
Atom  14H    basis set group =>   2
Atom  15H    basis set group =>   2
Atom  16H    basis set group =>   2
Atom  17H    basis set group =>   2
Atom  18H    basis set group =>   2
Atom  19H    basis set group =>   2

Checking for AutoStart:
The File: sp.gbw exists
Trying to determine its content:
     ... Fine, the file contains calculation information
     ... Fine, the calculation information was read
     ... Fine, the file contains a basis set
     ... Fine, the basis set was read
     ... Fine, the file contains a geometry
     ... Fine, the geometry was read
     ... Fine, the file contains a set of orbitals
     ... Fine, the orbitals can be read
     => possible old guess file was deleted
     => GBW file was renamed to GES file
     => GES file is set as startup file
     => Guess is set to MORead
     ... now leaving AutoStart

------------------------------------------------------------------------------
                             ORCA STARTUP CALCULATIONS
                           -- RI-GTO INTEGRALS CHOSEN --
------------------------------------------------------------------------------
------------------------------------------------------------------------------
                   ___                                                        
                  /   \      - P O W E R E D   B Y -                         
                 /     \                                                     
                 |  |  |   _    _      __       _____    __    __             
                 |  |  |  | |  | |    /  \     |  _  \  |  |  /  |          
                  \  \/   | |  | |   /    \    | | | |  |  | /  /          
                 / \  \   | |__| |  /  /\  \   | |_| |  |  |/  /          
                |  |  |   |  __  | /  /__\  \  |    /   |      \           
                |  |  |   | |  | | |   __   |  |    \   |  |\   \          
                \     /   | |  | | |  |  |  |  | |\  \  |  | \   \       
                 \___/    |_|  |_| |__|  |__|  |_| \__\ |__|  \__/        
                                                                              
                      - O R C A' S   B I G   F R I E N D -                    
                                      &                                       
                       - I N T E G R A L  F E E D E R -                       
                                                                              
 v1 FN, 2020, v2 2021, v3 2022-2024                                           
------------------------------------------------------------------------------


----------------------
SHARK INTEGRAL PACKAGE
----------------------

Number of atoms                             ...     20
Number of basis functions                   ...    265
Number of shells                            ...    125
Maximum angular momentum                    ...      2
Integral batch strategy                     ... SHARK/LIBINT Hybrid
RI-J (if used) integral strategy            ... SPLIT-RIJ (Revised 2003 algorithm where possible)
Printlevel                                  ...      1
Contraction scheme used                     ... SEGMENTED contraction
Prescreening option                         ... SCHWARTZ
   Thresh                                   ... 1.000e-10
   Tcut                                     ... 1.000e-11
   Tpresel                                  ... 1.000e-11 
Coulomb Range Separation                    ... NOT USED
Exchange Range Separation                   ... NOT USED
Multipole approximations                    ... NOT USED
Finite Nucleus Model                        ... NOT USED
CABS basis                                  ... NOT available
Auxiliary Coulomb fitting basis             ... AVAILABLE
   # of basis functions in Aux-J            ...    600
   # of shells in Aux-J                     ...    200
   Maximum angular momentum in Aux-J        ...      4
Auxiliary J/K fitting basis                 ... NOT available
Auxiliary Correlation fitting basis         ... NOT available
Auxiliary 'external' fitting basis          ... NOT available

Checking pre-screening integrals            ... done (  0.0 sec) Dimension = 125
Check shell pair data                       ... done (  0.0 sec)
Shell pair information
Shell pair cut-off parameter TPreSel        ...   1.0e-11
Total number of shell pairs                 ...      7875
Shell pairs after pre-screening             ...      7075
Total number of primitive shell pairs       ...     27980
Primitive shell pairs kept                  ...     17692
          la=0 lb=0:   2144 shell pairs
          la=1 lb=0:   2520 shell pairs
          la=1 lb=1:    768 shell pairs
          la=2 lb=0:    964 shell pairs
          la=2 lb=1:    563 shell pairs
          la=2 lb=2:    116 shell pairs

Calculating one electron integrals          ... done (  0.0 sec)
Calculating RI/J V-Matrix + Cholesky decomp.... done (  0.0 sec)
Calculating Nuclear repulsion               ... done (  0.0 sec) ENN=    625.221028903758 Eh

Diagonalization of the overlap matrix:
Smallest eigenvalue                        ... 4.544e-05
Time for diagonalization                   ...    0.009 sec
Threshold for overlap eigenvalues          ... 1.000e-07
Number of eigenvalues below threshold      ... 0
Time for construction of square roots      ...    0.003 sec
Total time needed                          ...    0.014 sec

-------------------
DFT GRID GENERATION
-------------------

General Integration Accuracy     IntAcc      ... 4.388
Radial Grid Type                 RadialGrid  ... OptM3 with GC (2021)
Angular Grid (max. ang.)         AngularGrid ... 4 (Lebedev-302)
Angular grid pruning method      GridPruning ... 4 (adaptive)
Weight generation scheme         WeightScheme... mBecke (2022)
Basis function cutoff            BFCut       ... 1.0000e-10
Integration weight cutoff        WCut        ... 1.0000e-14
Partially contracted basis set               ... off
Rotationally invariant grid construction     ... off
Angular grids for H and He will be reduced by one unit
Diffuse basis detected: some atoms will have their outermost
                        angular grid increased by 1.

Total number of grid points                  ...    93489
Total number of batches                      ...     1469
Average number of points per batch           ...       63
Average number of grid points per atom       ...     4674
Initializing property integral containers    ... done (  0.0 sec)

SHARK setup successfully completed in   1.1 seconds

Maximum memory used throughout the entire STARTUP-calculation: 45.9 MB
-------------------------------------------------------------------------------
                                 ORCA GUESS
                   Start orbitals & Density for SCF / CASSCF
-------------------------------------------------------------------------------

------------
SCF SETTINGS
------------
Hamiltonian:
 Density Functional     Method          .... DFT(GTOs)
  Functional kind                       .... Exchange
  Functional name                       .... Re-regularized SCAN exchange by Furness et al
  Functional family                     .... MGGA
  Functional refs                              
    [ 0] J. W. Furness, A. D. Kaplan, J. Ning, J. P. Perdew, and J. Sun.,  J. Phys. Chem. Lett. 11, 8208-8215 (2020), doi: 10.1021/acs.jpclett.0c02405
    [ 1] J. W. Furness, A. D. Kaplan, J. Ning, J. P. Perdew, and J. Sun.,  J. Phys. Chem. Lett. 11, 9248-9248 (2020), doi: 10.1021/acs.jpclett.0c03077
  Functional external parameters        .... 6
    Parameter  0 _c1        =  6.670000e-01 : c1 parameter        
    Parameter  1 _c2        =  8.000000e-01 : c2 parameter        
    Parameter  2 _d         =  1.240000e+00 : d parameter         
    Parameter  3 _k1        =  6.500000e-02 : k1 parameter        
    Parameter  4 _eta       =  1.000000e-03 : eta parameter       
    Parameter  5 _dp2       =  3.610000e-01 : dp2 parameter       
  Functional kind                       .... Correlation
  Functional name                       .... Re-regularized SCAN correlation by Furness et al
  Functional family                     .... MGGA
  Functional refs                              
    [ 0] J. W. Furness, A. D. Kaplan, J. Ning, J. P. Perdew, and J. Sun.,  J. Phys. Chem. Lett. 11, 8208-8215 (2020), doi: 10.1021/acs.jpclett.0c02405
    [ 1] J. W. Furness, A. D. Kaplan, J. Ning, J. P. Perdew, and J. Sun.,  J. Phys. Chem. Lett. 11, 9248-9248 (2020), doi: 10.1021/acs.jpclett.0c03077
  Functional external parameters        .... 1
    Parameter  0 _eta       =  1.000000e-03 : Regularization parameter
 Gradients option       PostSCFGGA      .... off
 RI-approximation to the Coulomb term is turned on
   Number of AuxJ basis functions       .... 600


General Settings:
 Integral files         IntName         .... sp
 Hartree-Fock type      HFTyp           .... RHF
 Total Charge           Charge          ....    0
 Multiplicity           Mult            ....    1
 Number of Electrons    NEL             ....   80
 Basis Dimension        Dim             ....  265
 Nuclear Repulsion      ENuc            ....    625.2210289038 Eh

Convergence Acceleration:
 AO-DIIS                CNVDIIS         .... on
   Start iteration      DIISMaxIt       ....    12
   Startup error        DIISStart       ....  0.200000
   # of expansion vecs  DIISMaxEq       ....     5
   Bias factor          DIISBfac        ....   1.050
   Max. coefficient     DIISMaxC        ....  10.000
 MO-DIIS                CNVKDIIS        .... off
 Trust-Rad. Augm. Hess. CNVTRAH         .... auto
   Auto Start mean grad. ratio tolernc. ....  1.125000
   Auto Start start iteration           ....     1
   Auto Start num. interpolation iter.  ....    10
   Max. Number of Micro iterations      ....    24
   Max. Number of Macro iterations      .... Maxiter - #DIIS iter
   Number of Davidson start vectors     ....     2
   Converg. threshold    (grad. norm)   ....   3.330e-04
   Grad. Scal. Fac. for Micro threshold ....   0.100
   Minimum threshold for Micro iter.    ....   1.000e-02
   NR start threshold (gradient norm)   ....   1.000e-04
   Initial trust radius                 ....   0.400
   Minimum AH scaling param. (alpha)    ....   1.000
   Maximum AH scaling param. (alpha)    .... 1000.000
   Quad. conv. algorithm                .... NR
   White noise on init. David. guess    .... on
   Maximum white noise                  ....   0.010
   Pseudo random numbers                .... off
   Inactive MOs                         .... canonical
   Orbital update algorithm             .... Taylor
   Preconditioner                       .... Diag
   Full preconditioner red. dimension   ....   250
   COSX micro iterations for RIJONX calc.... off
 SOSCF                  CNVSOSCF        .... on
   Start iteration      SOSCFMaxIt      ....   150
   Startup grad/error   SOSCFStart      ....  0.003300
   Hessian update       SOSCFHessUp     .... L-BFGS
 Level Shifting         CNVShift        .... on
   Level shift para.    LevelShift      ....    0.2500
   Turn off err/grad.   ShiftErr        ....    0.0010
 Zerner damping         CNVZerner       .... off
 Static damping         CNVDamp         .... on
   Fraction old density DampFac         ....    0.7000
   Max. Damping (<1)    DampMax         ....    0.9800
   Min. Damping (>=0)   DampMin         ....    0.0000
   Turn off err/grad.   DampErr         ....    0.1000

SCF Procedure:
 Maximum # iterations   MaxIter         ....   125
 SCF integral mode      SCFMode         .... Direct
   Integral package                     .... SHARK and LIBINT hybrid scheme
 Reset frequency        DirectResetFreq ....    20
 Integral Threshold     Thresh          ....  1.000e-10 Eh
 Primitive CutOff       TCut            ....  1.000e-11 Eh

Convergence Tolerance:
 Convergence Check Mode ConvCheckMode   .... Total+1el-Energy
 Convergence forced     ConvForced      .... 0
 Energy Change          TolE            ....  1.000e-06 Eh
 1-El. energy change                    ....  1.000e-03 Eh
 Orbital Gradient       TolG            ....  3.330e-04
 Orbital Rotation angle TolX            ....  3.330e-04
 DIIS Error             TolErr          ....  1.000e-06

---------------------
INITIAL GUESS: MOREAD
---------------------
Guess MOs are being read from file: sp.ges
Input Geometry matches current geometry (good)
Atom 0: N(Shells)= 9 and 6 - projection required
Input basis set needs projection
NBasis(read)= 160
NBasis(calc)= 265
Basis set overlap was calculated
Using GuessMode=FMatrix for the initial guess
C*T matrix was formed
Effective Fockian was calculated
Effective Fockian was diagonalized
Initial density was built
                      ------------------
                      INITIAL GUESS DONE (   0.0 sec)
                      ------------------
             **** ENERGY FILE WAS UPDATED (sp.en.tmp) ****
Finished Guess after   0.1 sec
Maximum memory used throughout the entire GUESS-calculation: 21.6 MB

-------------------------------------------------------------------------------------------
                                      ORCA LEAN-SCF
                              memory conserving SCF solver
-------------------------------------------------------------------------------------------

----------------------------------------D-I-I-S--------------------------------------------
Iteration    Energy (Eh)           Delta-E    RMSDP     MaxDP     DIISErr   Damp  Time(sec)
-------------------------------------------------------------------------------------------
               ***  Starting incremental Fock matrix formation  ***
    1    -572.2395702534815882     0.00e+00  7.49e-03  3.93e-01  6.27e-01  0.700   3.0
    2    -572.3380434242278625    -9.85e-02  5.62e-03  2.46e-01  4.40e-01  0.700   2.2
    3    -572.4078038262200607    -6.98e-02  4.01e-03  1.61e-01  3.09e-01  0.700   3.2
    4    -572.4568064297941419    -4.90e-02  2.83e-03  1.09e-01  2.16e-01  0.700   2.3
                               ***Turning on AO-DIIS***
    5    -572.4911938782267953    -3.44e-02  2.01e-03  7.40e-02  1.51e-01  0.700   2.9
    6    -572.5153089496013763    -2.41e-02  1.41e-03  5.11e-02  1.06e-01  0.700   2.1
    7    -572.5322209081475648    -1.69e-02  9.92e-04  3.54e-02  7.41e-02  0.700   2.3
    8    -572.5440746863603181    -1.19e-02  2.32e-03  8.17e-02  5.19e-02  0.000   2.0
                              *** Initializing SOSCF ***
---------------------------------------S-O-S-C-F--------------------------------------
Iteration    Energy (Eh)           Delta-E    RMSDP     MaxDP     MaxGrad    Time(sec)
--------------------------------------------------------------------------------------
    9    -572.5717825485346566    -2.77e-02  1.24e-05  6.24e-04  1.59e-04     2.4
               *** Restarting incremental Fock matrix formation ***
   10    -572.5717827099556416    -1.61e-07  1.29e-05  8.78e-04  2.22e-05     3.0
                  *** Gradient check signals convergence ***

               *****************************************************
               *                     SUCCESS                       *
               *           SCF CONVERGED AFTER  10 CYCLES          *
               *****************************************************

             **** ENERGY FILE WAS UPDATED (sp.en.tmp) ****

----------------
TOTAL SCF ENERGY
----------------

Total Energy       :       -572.57178270995564 Eh          -15580.47030 eV

Components:
Nuclear Repulsion  :        625.22102890375777 Eh           17013.12913 eV
Electronic Energy  :      -1197.79281161371341 Eh          -32593.59943 eV
One Electron Energy:      -2025.45291047105366 Eh          -55115.37571 eV
Two Electron Energy:        827.66009885734024 Eh           22521.77627 eV

Virial components:
Potential Energy   :      -1142.93939513897658 Eh          -31100.96208 eV
Kinetic Energy     :        570.36761242902094 Eh           15520.49178 eV
Virial Ratio       :          2.00386447307474

DFT components:
N(Alpha)           :       39.999969650665 electrons
N(Beta)            :       39.999969650665 electrons
N(Total)           :       79.999939301330 electrons
E(X)               :      -71.071421865879 Eh       
E(C)               :       -2.660553387154 Eh       
E(XC)              :      -73.731975253033 Eh       

---------------
SCF CONVERGENCE
---------------

  Last Energy change         ...    1.6142e-07  Tolerance :   1.0000e-06
  Last MAX-Density change    ...    8.7821e-04  Tolerance :   1.0000e-05
  Last RMS-Density change    ...    1.2894e-05  Tolerance :   1.0000e-06
  Last DIIS Error            ...    1.5876e-04  Tolerance :   1.0000e-06
  Last Orbital Gradient      ...    2.2194e-05  Tolerance :   3.3300e-04
  Last Orbital Rotation      ...    3.7518e-05  Tolerance :   3.3300e-04


----------------
ORBITAL ENERGIES
----------------

  NO   OCC          E(Eh)            E(eV) 
   0   2.0000     -18.974683      -516.3274 
   1   2.0000     -18.971337      -516.2363 
   2   2.0000     -18.970786      -516.2213 
   3   2.0000     -18.968825      -516.1680 
   4   2.0000     -18.955099      -515.7945 
   5   2.0000     -10.136184      -275.8196 
   6   2.0000     -10.094362      -274.6815 
   7   2.0000     -10.093384      -274.6549 
   8   2.0000     -10.092046      -274.6185 
   9   2.0000     -10.081775      -274.3390 
  10   2.0000      -1.049617       -28.5615 
  11   2.0000      -1.021926       -27.8080 
  12   2.0000      -1.010363       -27.4934 
  13   2.0000      -0.995587       -27.0913 
  14   2.0000      -0.976015       -26.5587 
  15   2.0000      -0.755171       -20.5492 
  16   2.0000      -0.724667       -19.7192 
  17   2.0000      -0.619965       -16.8701 
  18   2.0000      -0.614600       -16.7241 
  19   2.0000      -0.552751       -15.0411 
  20   2.0000      -0.522339       -14.2136 
  21   2.0000      -0.513498       -13.9730 
  22   2.0000      -0.493695       -13.4341 
  23   2.0000      -0.485877       -13.2214 
  24   2.0000      -0.454502       -12.3676 
  25   2.0000      -0.444351       -12.0914 
  26   2.0000      -0.437643       -11.9089 
  27   2.0000      -0.400980       -10.9112 
  28   2.0000      -0.393147       -10.6981 
  29   2.0000      -0.376157       -10.2358 
  30   2.0000      -0.348885        -9.4937 
  31   2.0000      -0.342638        -9.3237 
  32   2.0000      -0.329379        -8.9629 
  33   2.0000      -0.314128        -8.5479 
  34   2.0000      -0.300750        -8.1838 
  35   2.0000      -0.287759        -7.8303 
  36   2.0000      -0.262924        -7.1545 
  37   2.0000      -0.254279        -6.9193 
  38   2.0000      -0.243136        -6.6161 
  39   2.0000      -0.232074        -6.3150 
  40   0.0000       0.014561         0.3962 
  41   0.0000       0.060021         1.6332 
  42   0.0000       0.067448         1.8354 
  43   0.0000       0.076475         2.0810 
  44   0.0000       0.099561         2.7092 
  45   0.0000       0.122314         3.3283 
  46   0.0000       0.124598         3.3905 
  47   0.0000       0.131697         3.5836 
  48   0.0000       0.136599         3.7171 
  49   0.0000       0.150268         4.0890 
  50   0.0000       0.155783         4.2391 
*Only the first 10 virtual orbitals were printed.

                    ********************************
                    * MULLIKEN POPULATION ANALYSIS *
                    ********************************

-----------------------
MULLIKEN ATOMIC CHARGES
-----------------------
   0 C :   -0.264740
   1 C :   -0.010715
   2 H :    0.152569
   3 C :    0.048955
   4 H :    0.170846
   5 C :   -0.070772
   6 H :    0.167349
   7 C :    0.031066
   8 H :    0.141795
   9 O :   -0.204770
  10 O :   -0.412985
  11 O :   -0.453549
  12 O :   -0.442514
  13 O :   -0.417895
  14 H :    0.153109
  15 H :    0.176187
  16 H :    0.322295
  17 H :    0.316563
  18 H :    0.295744
  19 H :    0.301461
Sum of atomic charges:    0.0000000

--------------------------------
MULLIKEN REDUCED ORBITAL CHARGES
--------------------------------
  0 C s       :     3.311483  s :     3.311483
      pz      :     1.036571  p :     2.897219
      px      :     0.804546
      py      :     1.056102
      dz2     :     0.014431  d :     0.056038
      dxz     :     0.011756
      dyz     :     0.004539
      dx2y2   :     0.010871
      dxy     :     0.014441

  1 C s       :     3.190671  s :     3.190671
      pz      :     0.996414  p :     2.753288
      px      :     0.799717
      py      :     0.957158
      dz2     :     0.016212  d :     0.066756
      dxz     :     0.013754
      dyz     :     0.005920
      dx2y2   :     0.012471
      dxy     :     0.018399

  2 H s       :     0.830467  s :     0.830467
      pz      :     0.011234  p :     0.016964
      px      :     0.002396
      py      :     0.003334

  3 C s       :     3.126179  s :     3.126179
      pz      :     1.056573  p :     2.758988
      px      :     0.924363
      py      :     0.778053
      dz2     :     0.013796  d :     0.065877
      dxz     :     0.009027
      dyz     :     0.010492
      dx2y2   :     0.016432
      dxy     :     0.016130

  4 H s       :     0.812052  s :     0.812052
      pz      :     0.011242  p :     0.017101
      px      :     0.003393
      py      :     0.002466

  5 C s       :     3.224519  s :     3.224519
      pz      :     1.028897  p :     2.780054
      px      :     0.896192
      py      :     0.854966
      dz2     :     0.015576  d :     0.066199
      dxz     :     0.011863
      dyz     :     0.009066
      dx2y2   :     0.014063
      dxy     :     0.015631

  6 H s       :     0.815710  s :     0.815710
      pz      :     0.011222  p :     0.016941
      px      :     0.003071
      py      :     0.002648

  7 C s       :     3.213229  s :     3.213229
      pz      :     0.826031  p :     2.660652
      px      :     0.981013
      py      :     0.853608
      dz2     :     0.023878  d :     0.095054
      dxz     :     0.023599
      dyz     :     0.015638
      dx2y2   :     0.015621
      dxy     :     0.016318

  8 H s       :     0.841784  s :     0.841784
      pz      :     0.005469  p :     0.016422
      px      :     0.008516
      py      :     0.002436

  9 O s       :     3.735803  s :     3.735803
      pz      :     1.688837  p :     4.442942
      px      :     1.216437
      py      :     1.537669
      dz2     :     0.004703  d :     0.026025
      dxz     :     0.004006
      dyz     :     0.006061
      dx2y2   :     0.003687
      dxy     :     0.007568

 10 O s       :     3.749755  s :     3.749755
      pz      :     1.325315  p :     4.647933
      px      :     1.773041
      py      :     1.549577
      dz2     :     0.004066  d :     0.015296
      dxz     :    -0.001707
      dyz     :     0.002241
      dx2y2   :     0.004766
      dxy     :     0.005930

 11 O s       :     3.768233  s :     3.768233
      pz      :     1.832909  p :     4.667503
      px      :     1.594463
      py      :     1.240130
      dz2     :     0.004369  d :     0.017813
      dxz     :     0.003591
      dyz     :     0.001711
      dx2y2   :     0.003723
      dxy     :     0.004418

 12 O s       :     3.765296  s :     3.765296
      pz      :     1.725332  p :     4.657314
      px      :     1.464830
      py      :     1.467153
      dz2     :     0.003206  d :     0.019903
      dxz     :     0.004721
      dyz     :     0.003477
      dx2y2   :     0.005086
      dxy     :     0.003414

 13 O s       :     3.760618  s :     3.760618
      pz      :     1.696058  p :     4.638597
      px      :     1.246879
      py      :     1.695659
      dz2     :     0.002451  d :     0.018679
      dxz     :     0.004140
      dyz     :     0.006273
      dx2y2   :     0.002517
      dxy     :     0.003298

 14 H s       :     0.829425  s :     0.829425
      pz      :     0.004005  p :     0.017466
      px      :     0.004597
      py      :     0.008865

 15 H s       :     0.806534  s :     0.806534
      pz      :     0.011423  p :     0.017278
      px      :     0.002506
      py      :     0.003350

 16 H s       :     0.633943  s :     0.633943
      pz      :     0.009175  p :     0.043763
      px      :     0.014032
      py      :     0.020556

 17 H s       :     0.639865  s :     0.639865
      pz      :     0.011984  p :     0.043572
      px      :     0.012785
      py      :     0.018802

 18 H s       :     0.660441  s :     0.660441
      pz      :     0.015621  p :     0.043815
      px      :     0.018947
      py      :     0.009248

 19 H s       :     0.654638  s :     0.654638
      pz      :     0.012711  p :     0.043901
      px      :     0.014343
      py      :     0.016847


------------------------
MULLIKEN OVERLAP CHARGES
------------------------
B(  0-C ,  1-C ) :  -0.1883 B(  0-C ,  3-C ) :  -0.1734 B(  0-C ,  4-H ) :   0.0536 
B(  0-C ,  5-C ) :   0.2353 B(  0-C ,  7-C ) :  -0.6026 B(  0-C ,  9-O ) :   0.4493 
B(  0-C , 13-O ) :  -0.0523 B(  0-C , 14-H ) :   0.6832 B(  0-C , 15-H ) :   0.8917 
B(  1-C ,  2-H ) :   0.8964 B(  1-C ,  4-H ) :  -0.1344 B(  1-C ,  5-C ) :  -0.1153 
B(  1-C ,  7-C ) :   0.1349 B(  1-C ,  9-O ) :  -0.1805 B(  1-C , 12-O ) :  -0.1560 
B(  1-C , 13-O ) :   0.3518 B(  1-C , 15-H ) :  -0.1276 B(  1-C , 19-H ) :  -0.0964 
B(  2-H ,  3-C ) :  -0.2341 B(  2-H ,  5-C ) :   0.1005 B(  2-H , 13-O ) :  -0.0973 
B(  3-C ,  4-H ) :   0.8436 B(  3-C ,  5-C ) :  -0.3068 B(  3-C ,  6-H ) :  -0.1253 
B(  3-C ,  7-C ) :   0.1891 B(  3-C , 12-O ) :   0.4496 B(  3-C , 13-O ) :  -0.1422 
B(  3-C , 18-H ) :  -0.1021 B(  4-H , 12-O ) :  -0.1067 B(  5-C ,  6-H ) :   0.8670 
B(  5-C ,  7-C ) :  -0.1756 B(  5-C ,  8-H ) :  -0.0998 B(  5-C ,  9-O ) :  -0.0849 
B(  5-C , 10-O ) :  -0.1935 B(  5-C , 11-O ) :   0.2159 B(  5-C , 12-O ) :  -0.1155 
B(  5-C , 17-H ) :  -0.1307 B(  6-H ,  7-C ) :  -0.0638 B(  6-H , 11-O ) :  -0.0922 
B(  7-C ,  8-H ) :   0.8549 B(  7-C ,  9-O ) :   0.5600 B(  7-C , 10-O ) :   0.3840 
B(  7-C , 11-O ) :  -0.0629 B(  7-C , 16-H ) :  -0.1017 B(  8-H ,  9-O ) :  -0.1137 
B(  8-H , 10-O ) :  -0.1112 B(  9-O , 10-O ) :  -0.1739 B(  9-O , 14-H ) :  -0.0781 
B(  9-O , 15-H ) :  -0.0859 B( 10-O , 16-H ) :   0.6048 B( 11-O , 17-H ) :   0.6108 
B( 12-O , 18-H ) :   0.5896 B( 13-O , 19-H ) :   0.5883 


                     *******************************
                     * LOEWDIN POPULATION ANALYSIS *
                     *******************************

----------------------
LOEWDIN ATOMIC CHARGES
----------------------
   0 C :    0.059992
   1 C :    0.098421
   2 H :    0.178248
   3 C :    0.096546
   4 H :    0.190293
   5 C :    0.117371
   6 H :    0.185302
   7 C :    0.297607
   8 H :    0.196984
   9 O :   -0.653577
  10 O :   -0.518512
  11 O :   -0.575405
  12 O :   -0.584488
  13 O :   -0.577689
  14 H :    0.190356
  15 H :    0.188022
  16 H :    0.287227
  17 H :    0.283056
  18 H :    0.271139
  19 H :    0.269107

-------------------------------
LOEWDIN REDUCED ORBITAL CHARGES
-------------------------------
  0 C s       :     2.853402  s :     2.853402
      pz      :     1.047318  p :     2.960228
      px      :     0.877182
      py      :     1.035728
      dz2     :     0.034351  d :     0.126379
      dxz     :     0.026598
      dyz     :     0.008227
      dx2y2   :     0.023689
      dxy     :     0.033515

  1 C s       :     2.836317  s :     2.836317
      pz      :     1.024331  p :     2.921260
      px      :     0.879878
      py      :     1.017051
      dz2     :     0.037266  d :     0.144002
      dxz     :     0.030299
      dyz     :     0.010112
      dx2y2   :     0.025389
      dxy     :     0.040937

  2 H s       :     0.780824  s :     0.780824
      pz      :     0.026563  p :     0.040928
      px      :     0.006534
      py      :     0.007832

  3 C s       :     2.834713  s :     2.834713
      pz      :     1.067657  p :     2.926697
      px      :     0.966028
      py      :     0.893012
      dz2     :     0.031292  d :     0.142045
      dxz     :     0.018603
      dyz     :     0.021782
      dx2y2   :     0.035834
      dxy     :     0.034533

  4 H s       :     0.768136  s :     0.768136
      pz      :     0.027515  p :     0.041571
      px      :     0.007893
      py      :     0.006163

  5 C s       :     2.830361  s :     2.830361
      pz      :     1.039256  p :     2.909799
      px      :     0.956648
      py      :     0.913894
      dz2     :     0.035018  d :     0.142469
      dxz     :     0.025649
      dyz     :     0.017346
      dx2y2   :     0.029704
      dxy     :     0.034751

  6 H s       :     0.773474  s :     0.773474
      pz      :     0.026750  p :     0.041224
      px      :     0.007341
      py      :     0.007134

  7 C s       :     2.762213  s :     2.762213
      pz      :     0.876626  p :     2.733570
      px      :     0.957704
      py      :     0.899239
      dz2     :     0.054087  d :     0.206611
      dxz     :     0.052522
      dyz     :     0.030173
      dx2y2   :     0.032727
      dxy     :     0.037102

  8 H s       :     0.765995  s :     0.765995
      pz      :     0.012756  p :     0.037021
      px      :     0.018665
      py      :     0.005601

  9 O s       :     3.477154  s :     3.477154
      pz      :     1.697358  p :     4.693841
      px      :     1.394201
      py      :     1.602282
      dz2     :     0.089885  d :     0.482582
      dxz     :     0.096202
      dyz     :     0.046525
      dx2y2   :     0.118243
      dxy     :     0.131728

 10 O s       :     3.497390  s :     3.497390
      pz      :     1.446454  p :     4.750379
      px      :     1.748806
      py      :     1.555119
      dz2     :     0.081789  d :     0.270743
      dxz     :     0.068365
      dyz     :     0.060199
      dx2y2   :     0.025941
      dxy     :     0.034448

 11 O s       :     3.499122  s :     3.499122
      pz      :     1.824028  p :     4.787005
      px      :     1.624679
      py      :     1.338298
      dz2     :     0.047679  d :     0.289277
      dxz     :     0.037634
      dyz     :     0.048622
      dx2y2   :     0.077752
      dxy     :     0.077589

 12 O s       :     3.505484  s :     3.505484
      pz      :     1.742530  p :     4.793650
      px      :     1.503761
      py      :     1.547359
      dz2     :     0.033683  d :     0.285354
      dxz     :     0.041948
      dyz     :     0.055538
      dx2y2   :     0.083754
      dxy     :     0.070432

 13 O s       :     3.506064  s :     3.506064
      pz      :     1.729205  p :     4.790377
      px      :     1.375576
      py      :     1.685595
      dz2     :     0.056975  d :     0.281248
      dxz     :     0.067664
      dyz     :     0.021239
      dx2y2   :     0.051438
      dxy     :     0.083932

 14 H s       :     0.769799  s :     0.769799
      pz      :     0.009831  p :     0.039845
      px      :     0.009317
      py      :     0.020696

 15 H s       :     0.769991  s :     0.769991
      pz      :     0.027771  p :     0.041987
      px      :     0.006360
      py      :     0.007857

 16 H s       :     0.587730  s :     0.587730
      pz      :     0.024009  p :     0.125043
      px      :     0.038161
      py      :     0.062873

 17 H s       :     0.593462  s :     0.593462
      pz      :     0.030964  p :     0.123482
      px      :     0.037449
      py      :     0.055070

 18 H s       :     0.604685  s :     0.604685
      pz      :     0.044362  p :     0.124176
      px      :     0.055683
      py      :     0.024131

 19 H s       :     0.606496  s :     0.606496
      pz      :     0.035616  p :     0.124397
      px      :     0.039843
      py      :     0.048937


---------------------------------
LOEWDIN BOND ORDERS (THRESH 0.050000)
---------------------------------
B(  0-C ,  1-C ) :   0.9156 B(  0-C ,  3-C ) :   0.0683 B(  0-C ,  7-C ) :   0.0720 
B(  0-C ,  9-O ) :   1.3718 B(  0-C , 13-O ) :   0.1645 B(  0-C , 14-H ) :   0.8171 
B(  0-C , 15-H ) :   0.8068 B(  1-C ,  2-H ) :   0.7893 B(  1-C ,  3-C ) :   0.8923 
B(  1-C ,  5-C ) :   0.0727 B(  1-C ,  9-O ) :   0.1528 B(  1-C , 12-O ) :   0.1548 
B(  1-C , 13-O ) :   1.4046 B(  2-H , 13-O ) :   0.0938 B(  3-C ,  4-H ) :   0.7761 
B(  3-C ,  5-C ) :   0.8898 B(  3-C ,  7-C ) :   0.0587 B(  3-C , 11-O ) :   0.1541 
B(  3-C , 12-O ) :   1.3920 B(  3-C , 13-O ) :   0.1618 B(  4-H , 12-O ) :   0.0934 
B(  5-C ,  6-H ) :   0.7795 B(  5-C ,  7-C ) :   0.8297 B(  5-C ,  9-O ) :   0.1443 
B(  5-C , 10-O ) :   0.1447 B(  5-C , 11-O ) :   1.3958 B(  5-C , 12-O ) :   0.1593 
B(  6-H , 11-O ) :   0.0961 B(  7-C ,  8-H ) :   0.7357 B(  7-C ,  9-O ) :   1.3447 
B(  7-C , 10-O ) :   1.3195 B(  7-C , 11-O ) :   0.1471 B(  7-C , 16-H ) :   0.0509 
B(  8-H ,  9-O ) :   0.0911 B(  8-H , 10-O ) :   0.0938 B(  9-O , 10-O ) :   0.2947 
B(  9-O , 14-H ) :   0.0966 B(  9-O , 15-H ) :   0.0962 B( 10-O , 11-O ) :   0.0946 
B( 10-O , 16-H ) :   0.9273 B( 11-O , 12-O ) :   0.0626 B( 11-O , 17-H ) :   0.9453 
B( 12-O , 13-O ) :   0.0502 B( 12-O , 18-H ) :   0.9634 B( 13-O , 19-H ) :   0.9679 


------------------------------------------
LOEWDIN REDUCED ORBITAL POPULATIONS PER MO
-------------------------------------------
THRESHOLD FOR PRINTING IS 0.1%%
                      0         1         2         3         4         5   
                 -18.97468 -18.97134 -18.97079 -18.96882 -18.95510 -10.13618
                   2.00000   2.00000   2.00000   2.00000   2.00000   2.00000
                  --------  --------  --------  --------  --------  --------
 7 C  s               0.0       0.0       0.0       0.0       0.0      99.0
 9 O  s               0.0       0.0      99.9       0.0       0.0       0.0
 9 O  dxy             0.0       0.0       0.0       0.0       0.0       0.2
10 O  s               0.0       0.0       0.0       0.0      99.9       0.0
10 O  pz              0.0       0.0       0.0       0.0       0.0       0.1
10 O  dz2             0.0       0.0       0.0       0.0       0.0       0.2
11 O  s               0.0       0.0       0.0      99.9       0.0       0.0
12 O  s              99.9       0.0       0.0       0.0       0.0       0.0
13 O  s               0.0      99.9       0.0       0.0       0.0       0.0

                      6         7         8         9        10        11   
                 -10.09436 -10.09338 -10.09205 -10.08177  -1.04962  -1.02193
                   2.00000   2.00000   2.00000   2.00000   2.00000   2.00000
                  --------  --------  --------  --------  --------  --------
 0 C  s               0.0       0.0       0.0      99.4       4.5       0.1
 0 C  pz              0.0       0.0       0.0       0.0       0.7       0.1
 0 C  px              0.0       0.0       0.0       0.0       3.2       1.4
 0 C  py              0.1       0.0       0.0       0.0       0.3       0.3
 0 C  dxz             0.0       0.0       0.0       0.0       0.2       0.0
 0 C  dx2y2           0.0       0.0       0.0       0.0       0.2       0.0
 1 C  s              99.3       0.0       0.1       0.0       1.3       3.1
 1 C  pz              0.0       0.0       0.0       0.0       0.1       0.7
 1 C  px              0.0       0.0       0.0       0.0       0.4       1.2
 1 C  py              0.0       0.0       0.0       0.1       0.1       1.1
 2 H  s               0.0       0.0       0.0       0.0       0.1       0.2
 3 C  s               0.1       0.3      99.0       0.0       1.4       6.8
 3 C  pz              0.0       0.0       0.0       0.0       0.1       0.3
 3 C  px              0.0       0.1       0.0       0.0       0.3       1.2
 3 C  py              0.0       0.0       0.0       0.0       0.1       2.9
 3 C  dz2             0.0       0.0       0.0       0.0       0.0       0.1
 3 C  dxy             0.0       0.0       0.0       0.0       0.0       0.1
 4 H  s               0.0       0.0       0.0       0.0       0.1       0.4
 5 C  s               0.0      99.1       0.3       0.0       3.6       1.9
 5 C  pz              0.0       0.0       0.0       0.0       0.5       0.4
 5 C  px              0.0       0.0       0.1       0.0       0.3       0.4
 5 C  py              0.0       0.0       0.0       0.0       0.6       2.1
 6 H  s               0.0       0.0       0.0       0.0       0.2       0.1
 7 C  s               0.0       0.0       0.0       0.0      13.1       0.8
 7 C  pz              0.0       0.0       0.0       0.0       0.9       0.1
 7 C  px              0.0       0.0       0.0       0.0       1.2       0.1
 7 C  py              0.0       0.1       0.0       0.0       1.3       1.4
 7 C  dxz             0.0       0.0       0.0       0.0       0.2       0.0
 7 C  dxy             0.0       0.0       0.0       0.0       0.2       0.1
 8 H  s               0.0       0.0       0.0       0.0       0.8       0.0
 9 O  s               0.0       0.0       0.0       0.0      29.2       4.7
 9 O  pz              0.0       0.0       0.0       0.0       0.9       0.1
 9 O  py              0.0       0.0       0.0       0.0       1.3       0.1
 9 O  dxz             0.0       0.0       0.0       0.2       0.0       0.0
 9 O  dyz             0.0       0.0       0.0       0.0       0.2       0.0
 9 O  dx2y2           0.0       0.0       0.0       0.1       0.0       0.0
 9 O  dxy             0.0       0.0       0.0       0.0       0.3       0.1
10 O  s               0.0       0.0       0.0       0.0      15.9       1.7
10 O  pz              0.0       0.0       0.0       0.0       1.5       0.1
10 O  py              0.0       0.0       0.0       0.0       0.2       0.0
10 O  dz2             0.0       0.0       0.0       0.0       0.4       0.1
10 O  dxz             0.0       0.0       0.0       0.0       0.5       0.0
11 O  s               0.0       0.0       0.0       0.0       4.5       7.7
11 O  px              0.0       0.0       0.0       0.0       0.2       0.5
11 O  py              0.0       0.1       0.0       0.0       0.2       0.0
11 O  dxy             0.0       0.2       0.0       0.0       0.0       0.0
12 O  s               0.0       0.0       0.0       0.0       1.5      30.4
12 O  pz              0.0       0.0       0.0       0.0       0.0       0.5
12 O  py              0.0       0.0       0.1       0.0       0.1       1.0
12 O  dz2             0.0       0.0       0.1       0.0       0.0       0.1
12 O  dxy             0.0       0.0       0.1       0.0       0.0       0.1
13 O  s               0.0       0.0       0.0       0.0       1.0      12.4
13 O  pz              0.0       0.0       0.0       0.0       0.0       0.4
13 O  px              0.1       0.0       0.0       0.0       0.1       0.1
13 O  py              0.0       0.0       0.0       0.0       0.0       0.2
13 O  dxz             0.2       0.0       0.0       0.0       0.0       0.0
13 O  dx2y2           0.1       0.0       0.0       0.0       0.0       0.0
14 H  s               0.0       0.0       0.0       0.0       0.3       0.0
15 H  s               0.0       0.0       0.0       0.0       0.3       0.0
16 H  s               0.0       0.0       0.0       0.0       2.6       0.2
16 H  px              0.0       0.0       0.0       0.0       0.1       0.0
16 H  py              0.0       0.0       0.0       0.0       0.4       0.0
17 H  s               0.0       0.0       0.0       0.0       0.8       1.5
17 H  py              0.0       0.0       0.0       0.0       0.1       0.2
18 H  s               0.0       0.0       0.0       0.0       0.3       5.3
18 H  pz              0.0       0.0       0.0       0.0       0.0       0.3
18 H  px              0.0       0.0       0.0       0.0       0.0       0.8
19 H  s               0.0       0.0       0.0       0.0       0.2       2.2
19 H  px              0.0       0.0       0.0       0.0       0.0       0.2
19 H  py              0.0       0.0       0.0       0.0       0.0       0.2

                     12        13        14        15        16        17   
                  -1.01036  -0.99559  -0.97601  -0.75517  -0.72467  -0.61997
                   2.00000   2.00000   2.00000   2.00000   2.00000   2.00000
                  --------  --------  --------  --------  --------  --------
 0 C  s               1.3       0.1       2.3       3.8      14.1       4.6
 0 C  pz              0.1       0.1       0.7       0.0       0.1       0.4
 0 C  px              0.2       0.8       1.5       1.6       0.4       3.1
 0 C  py              0.2       0.1       0.0       2.3       0.1       0.1
 0 C  dxz             0.0       0.0       0.1       0.0       0.0       0.1
 0 C  dx2y2           0.0       0.0       0.1       0.1       0.0       0.1
 1 C  s               4.5       1.4       0.0      11.9       3.2       1.0
 1 C  pz              0.9       0.4       0.0       0.0       0.0       0.1
 1 C  px              2.9       3.1       0.4       5.1       0.4       0.1
 1 C  py              0.1       0.3       0.2       0.1       3.2       6.6
 1 C  dxz             0.2       0.2       0.0       0.1       0.0       0.0
 1 C  dx2y2           0.2       0.1       0.0       0.1       0.0       0.0
 1 C  dxy             0.0       0.0       0.0       0.0       0.1       0.1
 2 H  s               0.3       0.1       0.0       1.9       0.5       0.3
 2 H  pz              0.0       0.0       0.0       0.2       0.0       0.0
 3 C  s               0.0       1.8       0.0      13.7       0.8       9.6
 3 C  pz              0.0       0.0       0.0       0.6       0.2       0.3
 3 C  px              2.1       1.1       0.1       0.7       2.2       0.1
 3 C  py              0.9       3.9       0.1       4.7       0.2       0.3
 3 C  dx2y2           0.0       0.1       0.0       0.0       0.1       0.0
 3 C  dxy             0.0       0.3       0.0       0.1       0.0       0.0
 4 H  s               0.0       0.1       0.0       2.1       0.1       2.8
 4 H  pz              0.0       0.0       0.0       0.2       0.0       0.2
 5 C  s               3.6       1.1       0.3       6.9       8.6       1.1
 5 C  pz              0.6       0.1       0.1       0.2       0.1       1.1
 5 C  px              1.8       2.1       0.1       3.6       0.0       7.4
 5 C  py              3.0       1.1       0.6       0.9       2.5       2.2
 5 C  dxz             0.0       0.0       0.0       0.1       0.0       0.1
 5 C  dxy             0.2       0.1       0.1       0.0       0.1       0.0
 6 H  s               0.2       0.1       0.0       1.2       1.7       0.4
 6 H  pz              0.0       0.0       0.0       0.1       0.2       0.0
 7 C  s               0.0       0.0       0.6       0.1       9.3       5.3
 7 C  pz              0.2       0.1       8.9       0.0       2.6       0.6
 7 C  px              0.3       0.1       3.7       0.8       0.4       0.5
 7 C  py              1.7       0.8       0.9       3.2       0.8       2.9
 7 C  dz2             0.0       0.0       0.9       0.0       0.1       0.0
 7 C  dxy             0.1       0.0       0.2       0.2       0.0       0.1
 8 H  s               0.0       0.0       0.1       0.0       2.3       2.3
 8 H  px              0.0       0.0       0.0       0.0       0.2       0.1
 9 O  s               3.3       2.0      16.5       3.2       0.0       3.2
 9 O  pz              0.1       0.0       0.2       0.1       0.5       0.2
 9 O  px              0.1       0.0       0.7       1.2      10.9       0.0
 9 O  py              0.0       0.0       0.2       0.1       3.6       0.9
 9 O  dz2             0.0       0.0       0.1       0.2       0.1       0.3
 9 O  dxz             0.0       0.0       0.5       0.2       0.7       0.1
 9 O  dyz             0.0       0.0       0.1       0.0       0.0       0.0
 9 O  dx2y2           0.0       0.0       0.0       0.0       1.4       0.1
 9 O  dxy             0.0       0.0       0.1       0.2       0.4       0.4
10 O  s               0.7       0.1      41.0       0.2       2.5       1.2
10 O  pz              0.0       0.0       0.5       0.0       2.5       3.3
10 O  px              0.0       0.0       0.1       0.0       0.4       0.2
10 O  py              0.1       0.0       1.2       0.1       0.2       0.0
10 O  dz2             0.0       0.0       0.0       0.0       0.8       0.5
10 O  dxz             0.0       0.0       0.1       0.0       0.1       0.0
10 O  dyz             0.1       0.0       0.0       0.1       0.1       0.3
10 O  dxy             0.0       0.0       0.0       0.1       0.1       0.0
11 O  s              27.1      15.5       4.7       1.9       2.0       0.0
11 O  pz              0.1       0.1       0.0       0.1       0.3       0.5
11 O  px              1.1       0.5       0.2       0.4       0.3       0.3
11 O  py              0.0       0.0       0.1       1.5       3.2       3.6
11 O  dyz             0.0       0.0       0.1       0.1       0.2       0.2
11 O  dx2y2           0.0       0.0       0.1       0.0       0.0       0.5
11 O  dxy             0.0       0.0       0.0       0.6       0.6       0.0
12 O  s               0.1      27.9       0.4       2.9       0.1       1.6
12 O  pz              0.0       0.4       0.0       0.1       0.0       0.2
12 O  px              0.0       0.1       0.0       1.9       0.4       7.5
12 O  py              0.0       0.5       0.0       2.5       0.2       6.3
12 O  dz2             0.0       0.0       0.0       0.3       0.0       0.2
12 O  dxz             0.0       0.0       0.0       0.0       0.0       0.2
12 O  dyz             0.0       0.0       0.0       0.0       0.0       0.2
12 O  dx2y2           0.1       0.0       0.0       0.5       0.0       0.3
12 O  dxy             0.1       0.0       0.0       0.6       0.2       0.3
13 O  s              27.4      18.6       0.4       2.7       0.8       0.1
13 O  pz              0.7       0.4       0.0       0.2       0.1       0.1
13 O  px              0.2       0.0       0.0       3.7       1.6       1.7
13 O  py              0.3       0.2       0.0       0.2       0.4       1.2
13 O  dxz             0.1       0.0       0.0       0.5       0.2       0.1
13 O  dx2y2           0.1       0.0       0.0       0.6       0.2       0.0
13 O  dxy             0.0       0.0       0.0       0.1       0.1       0.3
14 H  s               0.1       0.0       0.2       0.5       3.2       1.6
14 H  py              0.0       0.0       0.0       0.0       0.2       0.1
15 H  s               0.1       0.0       0.1       0.6       2.3       1.4
15 H  pz              0.0       0.0       0.0       0.1       0.2       0.1
16 H  s               0.2       0.1       7.3       0.0       1.0       0.6
16 H  pz              0.0       0.0       0.2       0.0       0.0       0.0
16 H  px              0.0       0.0       0.3       0.0       0.0       0.0
16 H  py              0.0       0.0       1.3       0.0       0.2       0.1
17 H  s               4.5       2.5       0.9       0.7       1.2       0.9
17 H  px              0.2       0.1       0.0       0.1       0.1       0.0
17 H  py              0.8       0.5       0.2       0.1       0.1       0.0
18 H  s               0.0       5.0       0.1       1.5       0.2       3.4
18 H  pz              0.0       0.3       0.0       0.1       0.0       0.2
18 H  px              0.0       0.8       0.0       0.2       0.0       0.2
19 H  s               4.8       3.3       0.1       1.4       0.6       0.6
19 H  pz              0.1       0.1       0.0       0.1       0.0       0.0
19 H  px              0.5       0.4       0.0       0.1       0.0       0.0
19 H  py              0.4       0.3       0.0       0.1       0.0       0.0

                     18        19        20        21        22        23   
                  -0.61460  -0.55275  -0.52234  -0.51350  -0.49370  -0.48588
                   2.00000   2.00000   2.00000   2.00000   2.00000   2.00000
                  --------  --------  --------  --------  --------  --------
 0 C  s               3.6       3.7       0.9       0.0       0.0       1.6
 0 C  pz              0.1       6.3       0.1       0.4       3.0       0.1
 0 C  px              1.5       0.1       1.4       0.9       0.4       2.1
 0 C  py              3.8       0.8       1.2       1.3       1.5       0.4
 0 C  dx2y2           0.0       0.0       0.0       0.0       0.0       0.1
 1 C  s               8.1       3.1       0.0       0.3       0.6       0.4
 1 C  pz              0.1       6.2       4.7       7.0       4.7       0.1
 1 C  px              0.1       0.6       0.5       5.4       0.2       2.3
 1 C  py              0.9       0.7       1.2       1.5       2.4       0.1
 1 C  dxz             0.0       0.0       0.0       0.3       0.1       0.1
 2 H  s               2.3       4.6       1.3       2.3       2.8       0.2
 2 H  pz              0.2       0.3       0.1       0.1       0.1       0.0
 3 C  s               0.1       1.6       0.7       0.1       0.4       0.7
 3 C  pz              0.1       4.9      11.7       1.6       0.1       1.0
 3 C  px              4.9       0.6       0.1       0.1       4.3       0.3
 3 C  py              1.9       0.3       6.3       4.7       0.5       0.0
 3 C  dxz             0.1       0.0       0.0       0.0       0.2       0.0
 3 C  dyz             0.0       0.0       0.1       0.1       0.0       0.0
 4 H  s               0.0       2.7       5.1       0.3       0.1       0.9
 4 H  pz              0.0       0.2       0.3       0.0       0.0       0.0
 5 C  s               7.2       1.1       0.2       0.0       1.4       0.9
 5 C  pz              0.1       3.4       5.6       0.1       3.0       0.3
 5 C  px              0.0       0.1       2.4       1.4       6.1       0.3
 5 C  py              0.1       0.1       0.9       2.2       0.5       3.5
 5 C  dxy             0.0       0.0       0.1       0.0       0.0       0.2
 6 H  s               2.1       2.0       2.3       0.0       3.4       0.1
 6 H  pz              0.2       0.1       0.1       0.0       0.2       0.0
 7 C  s               2.1       2.1       0.4       0.1       0.3       1.8
 7 C  pz              0.2       2.9       0.2       1.8       0.7      13.5
 7 C  px              0.5       0.4       1.5       1.5       7.0       3.0
 7 C  py              5.5       0.5       1.2       0.3       0.3       1.0
 7 C  dyz             0.0       0.1       0.0       0.1       0.0       0.1
 8 H  s               1.2       0.4       0.8       0.6       1.5       7.5
 8 H  px              0.1       0.0       0.0       0.0       0.0       0.3
 9 O  s               0.0       2.6       0.4       1.5       0.2       0.2
 9 O  pz              0.2       4.5       0.0       1.1       0.0       4.3
 9 O  px             11.1       0.2       0.3       2.1       1.5       0.3
 9 O  py              2.9       0.0       0.0       1.4       4.5       0.4
 9 O  dz2             0.0       0.1       0.0       0.0       0.1       0.9
 9 O  dxz             0.3       0.1       0.0       0.0       0.1       0.7
 9 O  dyz             0.1       0.2       0.1       0.2       0.0       0.4
 9 O  dx2y2           0.0       0.2       0.3       0.1       0.5       0.2
 9 O  dxy             0.0       0.5       0.3       0.3       0.3       0.5
10 O  s               0.0       0.5       0.2       0.0       0.7       0.6
10 O  pz              1.7      10.2       1.6       1.3       6.4       4.0
10 O  px              0.1       4.1       0.0       1.7       0.0       7.7
10 O  py              1.3       3.9       2.6       0.7       0.1       7.4
10 O  dz2             0.4       0.2       0.2       0.0       0.2       0.2
10 O  dxz             0.0       0.0       0.1       0.1       0.2       0.1
10 O  dyz             0.1       0.0       0.0       0.0       0.2       0.0
10 O  dx2y2           0.0       0.2       0.0       0.1       0.1       0.0
11 O  s               1.5       0.0       0.5       0.1       0.8       0.1
11 O  pz              0.6       0.6       0.6       0.2       0.1       1.1
11 O  px              0.8       0.0       1.0       0.1       1.9       1.8
11 O  py              8.1       1.7       5.6       6.5      12.3       5.7
11 O  dz2             0.0       0.1       0.0       0.0       0.0       0.0
11 O  dxz             0.1       0.2       0.2       0.0       0.2       0.0
11 O  dyz             0.1       0.0       0.1       0.0       0.0       0.0
11 O  dx2y2           0.0       0.0       0.1       0.1       0.0       0.3
11 O  dxy             0.6       0.0       0.1       0.0       0.1       0.3
12 O  s               0.1       0.1       0.8       0.0       0.2       0.1
12 O  pz              0.0       0.4       6.6       0.0       0.0       0.3
12 O  px              0.4       1.5      12.7       6.4       0.8       0.2
12 O  py              0.1       0.4       1.6       1.8       5.9       0.8
12 O  dxz             0.0       0.1       0.0       0.1       0.1       0.0
12 O  dyz             0.0       0.3       0.4       0.2       0.0       0.1
12 O  dx2y2           0.3       0.0       0.1       0.0       0.5       0.0
12 O  dxy             0.2       0.1       0.0       0.0       0.1       0.0
13 O  s               1.3       0.4       0.0       0.5       1.0       0.0
13 O  pz              0.5       1.6       0.7       0.6       1.9       0.3
13 O  px              9.0       1.1       0.6      19.3       1.8       5.9
13 O  py              0.3       0.0       0.4       6.5       3.3       0.7
13 O  dz2             0.0       0.3       0.2       0.0       0.1       0.1
13 O  dxz             0.6       0.5       0.1       0.1       0.1       0.1
13 O  dyz             0.0       0.0       0.0       0.1       0.1       0.0
13 O  dx2y2           0.3       0.0       0.0       0.0       0.0       0.0
13 O  dxy             0.3       0.1       0.3       0.1       0.1       0.1
14 H  s               1.9       1.2       1.6       0.2       0.4       2.1
15 H  s               0.8       4.8       0.1       0.0       0.6       0.5
15 H  pz              0.1       0.3       0.0       0.0       0.0       0.0
16 H  s               0.7       4.5       0.7       0.9       0.6       4.5
16 H  py              0.0       0.4       0.0       0.0       0.1       0.2
17 H  s               2.2       0.5       1.5       1.5       3.3       1.1
17 H  px              0.2       0.0       0.0       0.1       0.0       0.1
17 H  py              0.1       0.0       0.0       0.0       0.1       0.0
18 H  s               0.0       0.2       4.8       1.9       0.7       0.0
18 H  px              0.0       0.0       0.1       0.0       0.0       0.0
19 H  s               2.2       0.1       0.1       6.6       1.1       1.4
19 H  pz              0.1       0.0       0.0       0.1       0.0       0.1
19 H  py              0.2       0.0       0.0       0.1       0.0       0.0

                     24        25        26        27        28        29   
                  -0.45450  -0.44435  -0.43764  -0.40098  -0.39315  -0.37616
                   2.00000   2.00000   2.00000   2.00000   2.00000   2.00000
                  --------  --------  --------  --------  --------  --------
 0 C  s               0.2       0.6       0.2       0.2       0.0       0.2
 0 C  pz              4.8       9.0       1.5       5.4       1.9       3.5
 0 C  px              1.0       1.5       5.8       0.0       0.7       8.5
 0 C  py              1.5       2.5       1.7      16.1       0.0       6.4
 0 C  dxz             0.0       0.2       0.1       0.1       0.0       0.0
 0 C  dx2y2           0.0       0.1       0.0       0.0       0.0       0.1
 0 C  dxy             0.0       0.0       0.0       0.1       0.0       0.1
 1 C  s               0.0       0.2       0.2       0.1       0.1       0.3
 1 C  pz              3.0       0.7       3.5       1.6       1.2       0.5
 1 C  px              0.5       1.9       0.2      11.5       1.1       1.3
 1 C  py              7.0       0.6       1.8       4.1       2.2       0.4
 1 C  dxz             0.0       0.2       0.1       0.0       0.0       0.0
 1 C  dx2y2           0.0       0.1       0.0       0.0       0.0       0.2
 1 C  dxy             0.0       0.1       0.0       0.0       0.1       0.2
 2 H  s               0.8       0.4       1.9       1.2       0.3       0.9
 2 H  px              0.0       0.0       0.0       0.1       0.0       0.0
 3 C  s               0.2       0.2       0.6       0.0       0.0       0.4
 3 C  pz              0.1       0.6       4.4       0.1       8.7       4.3
 3 C  px              6.1       0.2       6.2       0.1       2.8       0.4
 3 C  py              2.3       0.3       0.2       0.2       5.4       1.0
 3 C  dz2             0.0       0.0       0.1       0.0       0.0       0.0
 3 C  dx2y2           0.0       0.1       0.2       0.3       0.1       0.0
 3 C  dxy             0.1       0.0       0.0       0.0       0.2       0.0
 4 H  s               0.0       0.6       3.9       0.0       2.5       1.2
 4 H  pz              0.0       0.0       0.1       0.0       0.0       0.0
 5 C  s               0.5       0.4       0.4       0.3       0.0       0.0
 5 C  pz             14.3       1.0       0.8       1.0       7.3       0.1
 5 C  px              0.1       0.9       1.9       0.3       3.1       0.7
 5 C  py              2.7       2.1       4.9       2.7       0.6       1.3
 5 C  dx2y2           0.0       0.0       0.0       0.0       0.1       0.1
 5 C  dxy             0.1       0.2       0.1       0.1       0.0       0.0
 6 H  s               7.1       1.1       0.0       0.1       2.5       0.0
 6 H  pz              0.3       0.0       0.0       0.0       0.0       0.0
 7 C  s               0.4       0.3       0.3       0.1       0.0       0.2
 7 C  pz              0.4       1.1       0.1       0.2       0.0       0.7
 7 C  px              3.0       3.2       1.4       4.0       5.7       3.1
 7 C  py              1.8       5.0       5.0       0.6       0.4       0.2
 7 C  dz2             0.0       0.1       0.0       0.1       0.0       0.0
 7 C  dyz             0.1       0.1       0.0       0.0       0.1       0.0
 7 C  dx2y2           0.0       0.1       0.0       0.1       0.0       0.1
 7 C  dxy             0.0       0.2       0.0       0.0       0.0       0.0
 8 H  s               0.7       0.9       0.3       0.9       2.0       3.0
[...]
 5 C  dxy             0.4       0.1       0.5       0.0       0.0       0.0
 7 C  s               0.0       0.0       0.1       0.4       1.9       1.1
 7 C  pz              0.2       0.3       1.2       0.0       0.0       0.0
 7 C  px              0.0       0.1       0.4       0.0       0.0       0.0
 7 C  dz2             0.3       0.3       1.4       0.0       0.0       0.0
 7 C  dyz             0.1       0.1       0.2       0.0       0.0       0.0
 7 C  dxy             0.1       0.1       0.1       0.0       0.0       0.0
 9 O  s               0.1       0.1       0.3       0.0       0.0       0.0
 9 O  px              0.2       0.1       0.3       0.0       0.0       0.0
 9 O  py              0.1       0.1       0.4       0.0       0.0       0.0
 9 O  dz2             0.0       0.0       0.2       0.0       0.0       0.0
 9 O  dxz             0.1       0.0       0.1       0.0       0.0       0.0
 9 O  dxy             0.1       0.2       0.4       0.0       0.0       0.0
10 O  s               0.6       1.2       3.8       0.0       0.0       0.0
10 O  pz              0.8       0.9       3.6       0.0       0.0       0.0
10 O  px              0.4       0.6       2.5       0.0       0.0       0.0
10 O  py              1.2       2.2       6.6       0.0       0.0       0.0
10 O  dz2             1.7       2.5       8.2       0.0       0.0       0.0
10 O  dyz             0.6       0.9       2.9       0.0       0.0       0.0
10 O  dx2y2           1.0       1.6       5.7       0.0       0.0       0.0
10 O  dxy             1.7       2.3       7.6       0.0       0.0       0.0
11 O  s               2.0       1.2       2.1       0.0       0.0       0.0
11 O  px              0.4       0.3       0.7       0.0       0.0       0.0
11 O  py              5.9       2.5       6.7       0.0       0.0       0.0
11 O  dz2             1.7       0.9       1.9       0.0       0.0       0.0
11 O  dxz             0.0       0.0       0.1       0.0       0.0       0.0
11 O  dyz             0.2       0.1       0.1       0.0       0.0       0.0
11 O  dx2y2           1.1       0.6       1.1       0.0       0.0       0.0
11 O  dxy             9.2       3.8       8.8       0.0       0.0       0.0
12 O  s               0.0       4.3       0.4       0.0       0.0       0.1
12 O  pz              0.1       2.2       0.2       0.0       0.0       0.0
12 O  px              0.4       7.8       0.4       0.0       0.0       0.0
12 O  py              0.0       0.9       0.1       0.0       0.0       0.0
12 O  dz2             0.0       0.2       0.0       0.0       0.0       0.0
12 O  dxz             0.4      12.1       0.8       0.0       0.0       0.0
12 O  dyz             0.0       0.3       0.0       0.0       0.0       0.0
12 O  dx2y2           0.3       7.6       0.5       0.0       0.0       0.0
13 O  s               3.2       1.2       0.0       0.0       0.1       0.0
13 O  pz              0.4       0.1       0.0       0.0       0.0       0.0
13 O  px              7.4       1.6       0.0       0.0       0.0       0.0
13 O  py              3.3       1.0       0.0       0.0       0.0       0.0
13 O  dz2             0.7       0.3       0.0       0.0       0.0       0.0
13 O  dxz             7.2       1.6       0.0       0.0       0.0       0.0
13 O  dyz             3.6       0.9       0.0       0.0       0.0       0.0
13 O  dx2y2           0.6       0.1       0.0       0.0       0.0       0.0
13 O  dxy             9.2       2.1       0.0       0.0       0.0       0.0
16 H  s               1.6       2.5       8.0       0.0       0.0       0.0
16 H  pz              0.1       0.2       0.5       0.0       0.0       0.0
16 H  px              0.3       0.5       1.7       0.0       0.0       0.0
16 H  py              1.5       2.3       7.2       0.0       0.0       0.0
17 H  s               4.2       1.9       4.4       0.0       0.0       0.0
17 H  px              1.2       0.7       1.3       0.0       0.0       0.0
17 H  py              3.7       1.6       3.6       0.0       0.0       0.0
18 H  s               0.2       7.3       0.5       0.0       0.0       0.0
18 H  pz              0.2       2.9       0.1       0.0       0.0       0.0
18 H  px              0.2       5.5       0.4       0.0       0.0       0.0
19 H  s               7.3       1.7       0.0       0.0       0.0       0.0
19 H  pz              1.5       0.4       0.0       0.0       0.0       0.0
19 H  px              3.3       0.8       0.0       0.0       0.0       0.0
19 H  py              3.6       0.9       0.0       0.0       0.0       0.0

                    258       259       260       261       262       263   
                  22.26614  22.32184  43.66959  43.74584  43.77297  43.84631
                   0.00000   0.00000   0.00000   0.00000   0.00000   0.00000
                  --------  --------  --------  --------  --------  --------
 0 C  s              11.4       0.2       0.0       0.0       0.0       0.0
 1 C  s               5.5       5.0       0.0       0.1       0.0       0.0
 3 C  s               6.3       0.1       0.0       0.0       0.0       0.0
 5 C  s              69.0       5.6       0.0       0.0       0.0       0.1
 7 C  s               7.3      88.8       0.0       0.0       0.0       0.0
 9 O  s               0.0       0.1       1.8       5.9      17.7      26.2
10 O  s               0.0       0.0       9.5       6.5      28.1       8.6
11 O  s               0.0       0.0      26.5      12.9       3.5      53.0
12 O  s               0.0       0.0      51.9       0.1      36.6      11.3
13 O  s               0.0       0.0      10.1      74.4      13.9       0.7

                    264   
                  43.87458
                   0.00000
                  --------
 7 C  s               0.1
 9 O  s              48.3
10 O  s              47.1
11 O  s               3.9
13 O  s               0.6


                      *****************************
                      * MAYER POPULATION ANALYSIS *
                      *****************************

  NA   - Mulliken gross atomic population
  ZA   - Total nuclear charge
  QA   - Mulliken gross atomic charge
  VA   - Mayer's total valence
  BVA  - Mayer's bonded valence
  FA   - Mayer's free valence

  ATOM       NA         ZA         QA         VA         BVA        FA
  0 C      6.2647     6.0000    -0.2647     3.7924     3.7924     0.0000
  1 C      6.0107     6.0000    -0.0107     3.6654     3.6654     0.0000
  2 H      0.8474     1.0000     0.1526     0.9585     0.9585     0.0000
  3 C      5.9510     6.0000     0.0490     3.5379     3.5379    -0.0000
  4 H      0.8292     1.0000     0.1708     0.9534     0.9534     0.0000
  5 C      6.0708     6.0000    -0.0708     3.7474     3.7474     0.0000
  6 H      0.8327     1.0000     0.1673     0.9492     0.9492     0.0000
  7 C      5.9689     6.0000     0.0311     3.8394     3.8394     0.0000
  8 H      0.8582     1.0000     0.1418     0.9500     0.9500     0.0000
  9 O      8.2048     8.0000    -0.2048     1.8587     1.8587     0.0000
 10 O      8.4130     8.0000    -0.4130     1.8077     1.8077     0.0000
 11 O      8.4535     8.0000    -0.4535     1.8261     1.8261     0.0000
 12 O      8.4425     8.0000    -0.4425     1.8400     1.8400     0.0000
 13 O      8.4179     8.0000    -0.4179     1.8302     1.8302    -0.0000
 14 H      0.8469     1.0000     0.1531     0.9522     0.9522     0.0000
 15 H      0.8238     1.0000     0.1762     0.9493     0.9493     0.0000
 16 H      0.6777     1.0000     0.3223     0.9137     0.9137     0.0000
 17 H      0.6834     1.0000     0.3166     0.9095     0.9095     0.0000
 18 H      0.7043     1.0000     0.2957     0.9171     0.9171     0.0000
 19 H      0.6985     1.0000     0.3015     0.9083     0.9083    -0.0000

  Mayer bond orders larger than 0.100000
B(  0-C ,  1-C ) :   0.9293 B(  0-C ,  9-O ) :   0.9111 B(  0-C , 14-H ) :   0.9373 
B(  0-C , 15-H ) :   0.9724 B(  1-C ,  2-H ) :   0.9812 B(  1-C ,  3-C ) :   0.8417 
B(  1-C , 13-O ) :   0.9339 B(  3-C ,  4-H ) :   0.9641 B(  3-C ,  5-C ) :   0.9058 
B(  3-C , 12-O ) :   0.9267 B(  5-C ,  6-H ) :   0.9699 B(  5-C ,  7-C ) :   0.9103 
B(  5-C , 11-O ) :   0.8825 B(  7-C ,  8-H ) :   0.9547 B(  7-C ,  9-O ) :   1.0394 
B(  7-C , 10-O ) :   0.9749 B( 10-O , 16-H ) :   0.8584 B( 11-O , 17-H ) :   0.8765 
B( 12-O , 18-H ) :   0.8919 B( 13-O , 19-H ) :   0.8920 

-------
TIMINGS
-------

Total SCF time: 0 days 0 hours 0 min 25 sec 

Total time                  ....      25.809 sec
Sum of individual times     ....      25.771 sec  ( 99.9%)

SCF preparation             ....       0.048 sec  (  0.2%)
Fock matrix formation       ....      25.311 sec  ( 98.1%)
  Startup                   ....       0.006 sec  (  0.0% of F)
  Split-RI-J                ....       6.523 sec  ( 25.8% of F)
  XC integration            ....      18.739 sec  ( 74.0% of F)
    XC Preparation          ....       0.000 sec  (  0.0% of XC)
    Basis function eval.    ....       2.881 sec  ( 15.4% of XC)
    Density eval.           ....       7.098 sec  ( 37.9% of XC)
    XC-Functional eval.     ....       1.489 sec  (  7.9% of XC)
    XC-Potential eval.      ....       6.996 sec  ( 37.3% of XC)
Diagonalization             ....       0.000 sec  (  0.0%)
Density matrix formation    ....       0.026 sec  (  0.1%)
Total Energy calculation    ....       0.003 sec  (  0.0%)
Population analysis         ....       0.168 sec  (  0.7%)
Orbital Transformation      ....       0.032 sec  (  0.1%)
Orbital Orthonormalization  ....       0.000 sec  (  0.0%)
DIIS solution               ....       0.159 sec  (  0.6%)
  MO trafo                  ....       0.000 sec  (  0.0 % of DIIS)
  Orb grad                  ....       0.000 sec  (  0.0 % of DIIS)
  Energy W gradient         ....       0.000 sec  (  0.0 % of DIIS)
  DIIS error                ....       0.028 sec  ( 17.6 % of DIIS)
  DIIS work                 ....       0.115 sec  ( 72.5 % of DIIS)
  Form Q                    ....       0.000 sec  (  0.0 % of DIIS)
  Form QpQm                 ....       0.000 sec  (  0.0 % of DIIS)
  Exp/Cayley                ....       0.000 sec  (  0.0 % of DIIS)
  Orb update                ....       0.000 sec  (  0.0 % of DIIS)
  Wake-sleep                ....       0.001 sec  (  0.7 % of DIIS)
SOSCF solution              ....       0.025 sec  (  0.1%)
  MO trafo                  ....       0.020 sec  ( 82.8 % of SOSCF)
  Orb grad                  ....       0.000 sec  (  0.3 % of SOSCF)
  Rot update                ....       0.000 sec  (  0.1 % of SOSCF)
  Step                      ....       0.004 sec  ( 16.6 % of SOSCF)
Finished LeanSCF after  25.8 sec

Maximum memory used throughout the entire LEANSCF-calculation: 31.3 MB


-------------------------------------------------------------------------------
                          DFT DISPERSION CORRECTION                            
                                                                               
                                DFTD4 V3.4.0                                   
-------------------------------------------------------------------------------
The R2SCAN3C composite method is recognized
Using three-body term ABC
Active option DFTDOPT                   ...         5   

-------------------------   ----------------
Dispersion correction           -0.006301197
-------------------------   ----------------

------------------   -----------------
gCP correction             0.016553638
------------------   -----------------

-------------------------   --------------------
FINAL SINGLE POINT ENERGY      -572.561530268608
-------------------------   --------------------


------------------------------------------------------------------------------
                              ORCA PROPERTY CALCULATIONS
------------------------------------------------------------------------------

GBWName                                 ... sp.gbw
Number of atoms                         ...     20
Number of basis functions               ...    265
Max core memory                         ...   1024 MB

Electric properties:
Dipole moment                           ... YES
Quadrupole moment                       ...  NO
Static polarizability (Dipole/Dipole)   ...  NO
Static polarizability (Dipole/Quad.)    ...  NO
Static polarizability (Quad./Quad.)     ...  NO
Static polarizability (Velocity)        ...  NO

Atomic electric properties:
Dipole moment                           ...  NO
Quadrupole moment                       ...  NO
Static polarizability                   ...  NO

Choice of electric origin               ... Center of mass
Position of electric origin             ...     0.000005     0.000003    -0.000004

General magnetic properties:
Magnetizability                         ...  NO

EPR properties:
g-Tensor (aka g-matrix)                 ...  NO
Zero-Field splitting spin-orbit         ...  NO
Zero-field splitting spin-spin          ...  NO
Hyperfine couplings                     ...  NO (   0 nuclei)
Quadrupole couplings                    ...  NO (   0 nuclei)
Contact density                         ...  NO (   0 nuclei)

NMR properties:
Chemical shifts                         ...  NO (   0 nuclei)
Spin-rotation constants                 ...  NO (   0 nuclei)
Spin-spin couplings                     ...  NO (   0 nuclei,    0 pairs)

Choice of magnetic origin               ... GIAO
Position of magnetic origin             ...     0.000000     0.000000     0.000000

Properties with geometric perturbations:
SCF Hessian                             ...  NO
IR spectrum                             ...  NO
VCD spectrum                            ...  NO
X-ray spectroscopy properties:
SCF XES/XAS/RIXS spectra                ...  NO


-------------
DIPOLE MOMENT
-------------

Method             : SCF
Type of density    : Electron Density
Multiplicity       :   1
Irrep              :   0
Energy             :  -572.5717827099556416 Eh
Relativity type    : 
Basis              : AO
                                X                 Y                 Z
Electronic contribution:     -1.330620377       0.045151191       0.010444796
Nuclear contribution   :      2.166107999      -0.981894144      -0.143574679
                        -----------------------------------------
Total Dipole Moment    :      0.835487622      -0.936742953      -0.133129884
                        -----------------------------------------
Magnitude (a.u.)       :      1.262240267
Magnitude (Debye)      :      3.208359787



--------------------
Rotational spectrum 
--------------------
 
Rotational constants in cm-1:             0.057426             0.044826             0.029004 
Rotational constants in MHz :          1721.592646          1343.854244           869.528047 

Dipole components along the rotational axes: 
x,y,z [a.u.] :     0.804280     0.963268    -0.136013 
x,y,z [Debye]:     2.044317     2.448432    -0.345718 

 

Dipole moment calculation done in   0.0 sec 

Maximum memory used throughout the entire PROP-calculation: 19.8 MB

--------------------------------
SUGGESTED CITATIONS FOR THIS RUN
--------------------------------

Below you find a list of papers that are relevant to this ORCA run
We neither can nor want to force you to cite these papers, but we appreciate if you do
You receive ORCA, which is the product of decades of hard work by many enthusiastic individuals, for free
The only thing we kindly ask in return is that you cite our papers,
We deeply appreciate it, if you show your appreciation for ORCA by not just citing the generic ORCA reference.

Please note that relegating all ORCA citations to the supporting information does *not* help us.
SI sections are not indexed - citations you put there will not count into any citation statistics
But we need these citations in order to attract the funding resources that allow us to do what we are doing

Therefore, if you are a happy ORCA user, please consider citing a few of the papers listed below in the main body of your paper

In addition to the list printed below, the program has created the file sp.bibtex that contains the list in bibtex format
You can import this file easily into all common literature databanks and citation aid programs


List of essential papers. We consider these as the minimum necessary citations

  1. Neese,F.
     Software update: the ORCA program system, version 5.0
     WIRES Comput. Molec. Sci., 2022 12(1)e1606
     doi.org/10.1002/wcms.1606
  2. Grimme,S.; Hansen,A.; Ehlert,S.; Mewes,J.
     r2SCAN-3c: A 'Swiss army knife' composite electronic-structure method
     J. Chem. Phys., 2021 154 064103
     doi.org/10.1063/5.0040021

List of papers to cite with high priority. The work reported in these papers was absolutely
necessary for this run to complete.
Our perspective: the developers of density functionals and basis sets usually get cited in chemistry papers
Good! But without the algorithms to do something with them, the functionals or basis sets would not do anything.
Hence, in our opinion, the algorithm design and method developments papers are equally worthy of getting cited

  1. Neese,F.
     An improvement of the resolution of the identity approximation for the formation of the Coulomb matrix
     J. Comp. Chem., 2003 24(14)1740-1747
     doi.org/10.1002/jcc.10318
  2. Neese,F.
     The SHARK Integral Generation and Digestion System
     J. Comp. Chem., 2022  1-16
     doi.org/10.1002/jcc.26942
  3. Lehtola,S.; Steigemann,C.; Oliveira,M.; Marques,M.
     Recent developments in Libxc - A comprehensive library of functionals for density functional theory
     Software X, 2018 7 
     doi.org/10.1016/j.softx.2017.11.002
  4. Caldeweyher,E.; Bannwarth,C.; Grimme,S.
     Extension of the D3 dispersion coefficient model
     J. Chem. Phys., 2017 147 034112
     doi.org/10.1063/1.4993215
  5. Caldeweyher,E.; Ehlert,S.; Hansen,A.; Neugebauer,H.; Spicher,S.; Bannwarth,C.; Grimme,S.
     A generally applicable atomic-charge dependent London dispersion correction
     J. Chem. Phys., 2019 150 154122
     doi.org/10.1063/1.5090222
  6. Caldeweyher,E.; Mewes,J.; Ehlert,S.; Grimme,S.
     Extension and evaluation of the D4 London-dispersion model for periodic systems
     Phys. Chem. Chem. Phys., 2020 22(16)8499-8512
     doi.org/10.1039/D0CP00502A
  7. Wittmann,L.; Gordiy,I.; Friede,M.; Helmich-Paris,B.; Grimme,S.; Hansen,A.; Bursch,M.
     Extension of the D3 and D4 London Dispersion Corrections to the full Actinides Series
     Phys. Chem. Chem. Phys., 2024 26(32)21379-21394
     doi.org/https://doi.org/10.1039/D4CP01514B 

List of suggested additional citations. These are papers that are important in the 'surrounding' of 
of this run, or papers that preceded the highly important papers. If you like your results we are grateful for a citation.

  1. Neese,F.
     The ORCA program system
     WIRES Comput. Molec. Sci., 2012 2(1)73-78
     doi.org/10.1002/wcms.81
  2. Neese,F.
     Software update: the ORCA program system, version 4.0
     WIRES Comput. Molec. Sci., 2018 8(1)1-6
     doi.org/10.1002/wcms.1327
  3. Neese,F.; Wennmohs,F.; Becker,U.; Riplinger,C.
     The ORCA quantum chemistry program package
     J. Chem. Phys., 2020 152 Art. No. L224108
     doi.org/10.1063/5.0004608

List of optional additional citations

  1. Neese,F.
     Approximate second-order SCF convergence for spin unrestricted wavefunctions
     Chem. Phys. Lett., 2000 325(1-3)93-98
     doi.org/10.1016/s0009-2614(00)00662-x

Timings for individual modules:

Sum of individual times          ...       27.140 sec (=   0.452 min)
Startup calculation              ...        1.117 sec (=   0.019 min)   4.1 %
SCF iterations                   ...       25.971 sec (=   0.433 min)  95.7 %
Property calculations            ...        0.052 sec (=   0.001 min)   0.2 %
                             ****ORCA TERMINATED NORMALLY****
TOTAL RUN TIME: 0 days 0 hours 0 minutes 27 seconds 242 msec
