
                                 *****************
                                 * O   R   C   A *
                                 *****************

                                            #,                                       
                                            ###                                      
                                            ####                                     
                                            #####                                    
                                            ######                                   
                                           ########,                                 
                                     ,,################,,,,,                         
                               ,,#################################,,                 
                          ,,##########################################,,             
                       ,#########################################, ''#####,          
                    ,#############################################,,   '####,        
                  ,##################################################,,,,####,       
                ,###########''''           ''''###############################       
              ,#####''   ,,,,##########,,,,          '''####'''          '####       
            ,##' ,,,,###########################,,,                        '##       
           ' ,,###''''                  '''############,,,                           
         ,,##''                                '''############,,,,        ,,,,,,###''
      ,#''                                            '''#######################'''  
     '                                                          ''''####''''         
             ,#######,   #######,   ,#######,      ##                                
            ,#'     '#,  ##    ##  ,#'     '#,    #''#        ,####,   ,####,        
            ##       ##  ##   ,#'  ##            #'  '#       #'       #'  '#        
            ##       ##  #######   ##           ,######,      #####,   #    #        
            '#,     ,#'  ##    ##  '#,     ,#' ,#      #,     #,   #   #,  ,#        
             '#######'   ##     ##  '#######'  #'      '#     '####' # '####'        



                #########################################################
                #                        -***-                          #
                #          Department of theory and spectroscopy        #
                #                                                       #
                #                      Frank Neese                      #
                #                                                       #
                #     Directorship, Architecture, Infrastructure        #
                #                    SHARK, DRIVERS                     #
                #        Core code/Algorithms in most modules           #
                #                                                       #
                #        Max Planck Institute fuer Kohlenforschung      #
                #                Kaiser Wilhelm Platz 1                 #
                #                 D-45470 Muelheim/Ruhr                 #
                #                      Germany                          #
                #                                                       #
                #                  All rights reserved                  #
                #                        -***-                          #
                #########################################################


                         Program Version 6.0.1  -  RELEASE   -


 With contributions from (in alphabetic order):
[Max-Planck-Institut fuer Kohlenforschung]                               
  Daniel Aravena         : Magnetic Suceptibility                        
  Michael Atanasov       : Ab Initio Ligand Field Theory (pilot matlab implementation)
  Alexander A. Auer      : GIAO ZORA, VPT2 properties, NMR spectrum      
  Ute Becker             : All parallelization in ORCA, NUMFREQ, NUMCALC 
  Giovanni Bistoni       : ED, misc. LED, open-shell LED, HFLD           
  Martin Brehm           : Molecular dynamics                            
  Dmytro Bykov           : pre 5.0 version of the SCF Hessian            
  Marcos Casanova-Páez   : Triplet and SCS-CIS(D). UHF-(DLPNO)-IP/EA/STEOM-CCSD. UHF-CVS-IP/STEOM-CCSD   
  Vijay G. Chilkuri      : MRCI spin determinant printing, contributions to CSF-ICE 
  Pauline Colinet        : FMM embedding                                 
  Dipayan Datta          : RHF DLPNO-CCSD density                        
  Achintya Kumar Dutta   : EOM-CC, STEOM-CC                              
  Nicolas Foglia         : Exact transition moments, OPA infrastructure, MCD improvements    
  Dmitry Ganyushin       : Spin-Orbit,Spin-Spin,Magnetic field MRCI      
  Miquel Garcia-Rates    : C-PCM and meta-GGA Hessian, CCSD/C-PCM, Gaussian charge scheme 
  Tiago L. C. Gouveia    : GS-ROHF, GS-ROCIS                             
  Yang Guo               : DLPNO-NEVPT2, F12-NEVPT2, CIM, IAO-localization        
  Andreas Hansen         : Spin unrestricted coupled pair/coupled cluster methods 
  Ingolf Harden          : AUTO-CI MPn and infrastructure                
  Benjamin Helmich-Paris : MC-RPA, TRAH-(SCF,CASSCF), AVAS, COSX integrals, SCF dyn. polar. 
  Lee Huntington         : MR-EOM, pCC                                   
  Robert Izsak           : Overlap fitted RIJCOSX, COSX-SCS-MP3, EOM     
  Riya Kayal             : Wick's Theorem for AUTO-CI, AUTO-CI UHF-CCSDT 
  Emily Kempfer          : AUTO-CI, RHF CISDT and CCSDT                  
  Christian Kollmar      : KDIIS, OOCD, Brueckner-CCSD(T), CCSD density, CASPT2, CASPT2-K, improved NEVPT2 
  Axel Koslowski         : Symmetry handling                             
  Simone Kossmann        : meta-GGA functionals, TD-DFT gradient, OOMP2, (MP2 Hessian; deprecated post 5.0) 
  Lucas Lang             : DCDCAS                                        
  Marvin Lechner         : AUTO-CI (C++ implementation), FIC-MRCC        
  Spencer Leger          : CASSCF response                               
  Dagmar Lenk            : GEPOL surface, SMD, ORCA-2-JSON               
  Dimitrios Liakos       : Extrapolation schemes; Compound Job, initial MDCI parallelization 
  Dimitrios Manganas     : Further ROCIS development; embedding schemes. LFT, Crystal Embedding 
  Dimitrios Pantazis     : SARC Basis sets                               
  Anastasios Papadopoulos: AUTO-CI, single reference methods and gradients 
  Taras Petrenko         : pre 6.0 DFT Hessian and TD-DFT gradient, (ASA, deprecated), ECA, 1-Electron XAS/XES, NRVS 
  Peter Pinski           : DLPNO-MP2, DLPNO-MP2 Gradient                 
  Christoph Reimann      : Effective Core Potentials                     
  Marius Retegan         : Local ZFS, SOC                                
  Christoph Riplinger    : Optimizer, TS searches, QM/MM, DLPNO-CCSD(T), (RO)-DLPNO pert. Triples 
  Michael Roemelt        : Original ROCIS implementation                 
  Masaaki Saitow         : Open-shell DLPNO-CCSD energy and density      
  Barbara Sandhoefer     : DKH picture change effects                    
  Kantharuban Sivalingam : CASSCF convergence/infrastructure, NEVPT2 and variants, FIC-MRCI 
  Bernardo de Souza      : ESD, SOC TD-DFT                               
  Georgi L. Stoychev     : AutoAux, RI-MP2 NMR, DLPNO-MP2 response, X2C  
  Van Anh Tran           : RI-MP2 g-tensors                              
  Willem Van den Heuvel  : Paramagnetic NMR                              
  Zikuan Wang            : NOTCH, Electric field optimization            
  Frank Wennmohs         : Technical directorship and infrastructure     
  Hang Xu                : AUTO-CI-Response properties                   
                                                                         
[FACCTs GmbH]                                                            
  Markus Bursch, Miquel Garcia-Rates, Christoph Riplinger, Bernardo de Souza, Georgi L. Stoychev 
                                                                 
  APM, Basis sets (HGBS, AHGBS, def-TZVP (Ac-Lr), def2-XVPD (La-Lu)), CI-OPT, improved COSX, DLPNO-Multilevel,           
  DOCKER, DRACO, updates on ESD, GOAT, IRC, LR-CPCM, MBIS, meta-GGA TD-DFT gradient, ML-optimized integration grids, 
  MM, NACMEs, nearIR, NEB, NEB-TS, NL-DFT gradient (VV10), 2- and 3-layer-ONIOM, interface openCOSMO-RS, QMMM,   
  Crystal-QMMM, SF, symmetry and pop. for TD-DFT, r2SCAN hybrids, SOLVATOR                                   
                                                                         
[Other institutions]                                                     
  V. Asgeirsson          : NEB                                           
  Christoph Bannwarth    : sTDA-DFT, sTD-DFT, PBEh-3c, B97-3c, D3        
  Sebastian Ehlert       : rSCAN, r2SCAN, r2SCAN-3c, D4, dhf basis sets  
  Marvin Friede          : D4 for Fr, Ra, Ac-Lr                          
  Lars Goerigk           : TD-DFT with DH, B97 family of functionals     
  Stefan Grimme          : VdW corrections, initial TS optimization, DFT functionals, gCP, sTDA/sTD-DF 
  Waldemar Hujo          : DFT-NL                                        
  H. Jonsson             : NEB                                           
  Holger Kruse           : gCP                                           
  Marcel Mueller         : wB97X-3c, vDZP basis set                      
  Hagen Neugebauer       : wr2SCAN                                       
  Tobias Risthaus        : range-separated hybrid DFT                    
  Lukas Wittmann         : regularized MP2, r2SCAN double-hybrids, wr2SCAN        
                                                                         
We gratefully acknowledge several colleagues who have allowed us to      
interface, adapt or use parts of their codes:                            
  Ed Valeev, F. Pavosevic, A. Kumar             : LibInt (2-el integral package), F12 methods 
  Garnet Chan, S. Sharma, J. Yang, R. Olivares  : DMRG                   
  Ulf Ekstrom                                   : XCFun DFT Library      
  Mihaly Kallay                                 : mrcc  (arbitrary order and MRCC methods)
  Frank Weinhold                                : gennbo (NPA and NBO analysis)           
  Simon Mueller                                 : openCOSMO-RS                            
  Christopher J. Cramer and Donald G. Truhlar   : smd solvation model                     
  S Lehtola, MJT Oliveira, MAL Marques          : LibXC Library                           
  Liviu Ungur et al                             : ANISO software                          


 Your calculation uses the libint2 library for the computation of 2-el integrals
 For citations please refer to: http://libint.valeyev.net

 Your ORCA version has been built with support for libXC version: 6.2.2
 For citations please refer to: https://libxc.gitlab.io

 This ORCA versions uses:
   CBLAS   interface :  Fast vector & matrix operations
   LAPACKE interface :  Fast linear algebra routines
   SCALAPACK package :  Parallel linear algebra routines
   Shared memory     :  Shared parallel matrices
   BLAS/LAPACK       :  OpenBLAS 0.3.27  USE64BITINT DYNAMIC_ARCH NO_AFFINITY Zen SINGLE_THREADED
        Core in use  :  Zen
   Copyright (c) 2011-2014, The OpenBLAS Project


Your calculation utilizes the geometrical counterpoise correction gCP
Please cite in your paper:
H.Kruse, S. Grimme J.Chem.Phys., 136, (2012), 154101 
   

Your calculation utilizes the DFT-NL dispersion correction.
Cite in your paper:
Vydrov, O. A.; Van Voorhis, T. J. Chem. Phys. 2010, 133, 244103
Hujo, W.; Grimme, S. J. Chem. Theory Comput. 2011, 7, 3866 
   

================================================================================

----- Orbital basis set information -----
Your calculation utilizes the basis: def2-TZVP
   F. Weigend and R. Ahlrichs, Phys. Chem. Chem. Phys. 7, 3297 (2005).

----- AuxJ basis set information -----
Your calculation utilizes the auxiliary basis: def2/J
   F. Weigend, Phys. Chem. Chem. Phys. 8, 1057 (2006).

================================================================================
                                        WARNINGS
                       Please study these warnings very carefully!
================================================================================

WARNING: Old DensityContainer found on disk!
         Will remove this file - 
         If you want to keep old densities, please start your calculation with a different basename. 


================================================================================
                                       INPUT FILE
================================================================================
NAME = sp.inp
|  1> ! wb97x-v def2-tzvp def2/J RIJCOSX DEFGRID2 scfconv7 GCP(DFT/TZ) printgap
|  2> %output
|  3>     printlevel normal
|  4> end
|  5> * xyz 0 1
|  6> C -1.2367458918973684 -0.00013657274152754445 8.33182513745766e-05
|  7> C -0.5670487171338646 -1.21324020834178 -0.06877635879712582
|  8> C 0.8323725948913875 -1.2160328480012763 -0.06902992921324308
|  9> C 1.5280879854751694 0.00017415626459641942 -7.57537826785973e-05
| 10> C 0.8321068691329639 1.2162299288024057 0.06894243195454379
| 11> C -0.567311075945965 1.2131096513695043 0.06882717028423839
| 12> Cl -1.4698304722549254 2.6814758881584835 0.15165705395653412
| 13> Cl 1.6873462606913663 2.7093234545016807 0.1534591373073027
| 14> Cl 3.251887424311226 0.0003441184781961211 -0.00015743142538600583
| 15> Cl 1.6879675372530456 -2.708913431433565 -0.15365073276400004
| 16> Cl -1.469217394739823 -2.6818258164971733 -0.15147314460800046
| 17> N -2.7210512333587524 -0.0002783527642200334 0.00023377503829713484
| 18> O -3.2589614391915314 0.059440998125512096 -1.089245159624389
| 19> O -3.2587719741357613 -0.06023609249954261 1.0897721398116416
| 20> *
| 21> 
| 22>                          ****END OF INPUT****
================================================================================

                       ****************************
                       * Single Point Calculation *
                       ****************************

---------------------------------
CARTESIAN COORDINATES (ANGSTROEM)
---------------------------------
  C     -1.236746   -0.000137    0.000083
  C     -0.567049   -1.213240   -0.068776
  C      0.832373   -1.216033   -0.069030
  C      1.528088    0.000174   -0.000076
  C      0.832107    1.216230    0.068942
  C     -0.567311    1.213110    0.068827
  Cl    -1.469830    2.681476    0.151657
  Cl     1.687346    2.709323    0.153459
  Cl     3.251887    0.000344   -0.000157
  Cl     1.687968   -2.708913   -0.153651
  Cl    -1.469217   -2.681826   -0.151473
  N     -2.721051   -0.000278    0.000234
  O     -3.258961    0.059441   -1.089245
  O     -3.258772   -0.060236    1.089772

----------------------------
CARTESIAN COORDINATES (A.U.)
----------------------------
  NO LB      ZA    FRAG     MASS         X           Y           Z
   0 C     6.0000    0    12.011   -2.337111   -0.000258    0.000157
   1 C     6.0000    0    12.011   -1.071567   -2.292692   -0.129968
   2 C     6.0000    0    12.011    1.572956   -2.297969   -0.130448
   3 C     6.0000    0    12.011    2.887668    0.000329   -0.000143
   4 C     6.0000    0    12.011    1.572454    2.298341    0.130282
   5 C     6.0000    0    12.011   -1.072063    2.292445    0.130065
   6 Cl   17.0000    0    35.453   -2.777577    5.067255    0.286590
   7 Cl   17.0000    0    35.453    3.188622    5.119879    0.289996
   8 Cl   17.0000    0    35.453    6.145177    0.000650   -0.000298
   9 Cl   17.0000    0    35.453    3.189796   -5.119105   -0.290358
  10 Cl   17.0000    0    35.453   -2.776419   -5.067916   -0.286243
  11 N     7.0000    0    14.007   -5.142042   -0.000526    0.000442
  12 O     8.0000    0    15.999   -6.158545    0.112327   -2.058375
  13 O     8.0000    0    15.999   -6.158187   -0.113830    2.059371

--------------------------------
INTERNAL COORDINATES (ANGSTROEM)
--------------------------------
 C      0   0   0     0.000000000000     0.00000000     0.00000000
 C      1   0   0     1.387391938753     0.00000000     0.00000000
 C      2   1   0     1.399424121446   118.97677974     0.00000000
 C      3   2   1     1.402830731140   119.61680144     0.00000000
 C      4   3   2     1.402834582618   120.52450409     0.00000000
 C      1   2   3     1.387384261955   122.28812029     0.00000000
 Cl     6   1   2     1.725543814478   119.61411849   179.97987276
 Cl     5   4   3     1.722761088149   120.49160766   180.00523261
 Cl     4   3   2     1.723799449150   119.73702974   179.99901168
 Cl     3   2   1     1.722758201890   119.89285881   179.99532529
 Cl     2   1   3     1.725540718070   119.61551822   179.97908791
 N      1   2   3     1.484305355858   118.85690266   180.00253332
 O     12   1   2     1.216502420665   116.23680906   270.10539838
 O     12   1   2     1.216483610218   116.23949539    90.09814360

---------------------------
INTERNAL COORDINATES (A.U.)
---------------------------
 C      0   0   0     0.000000000000     0.00000000     0.00000000
 C      1   0   0     2.621790804653     0.00000000     0.00000000
 C      2   1   0     2.644528334736   118.97677974     0.00000000
 C      3   2   1     2.650965894102   119.61680144     0.00000000
 C      4   3   2     2.650973172342   120.52450409     0.00000000
 C      1   2   3     2.621776297607   122.28812029     0.00000000
 Cl     6   1   2     3.260805241446   119.61411849   179.97987276
 Cl     5   4   3     3.255546650779   120.49160766   180.00523261
 Cl     4   3   2     3.257508868698   119.73702974   179.99901168
 Cl     3   2   1     3.255541196538   119.89285881   179.99532529
 Cl     2   1   3     3.260799390082   119.61551822   179.97908791
 N      1   2   3     2.804930621685   118.85690266   180.00253332
 O     12   1   2     2.298856416309   116.23680906   270.10539838
 O     12   1   2     2.298820869716   116.23949539    90.09814360

---------------------
BASIS SET INFORMATION
---------------------
There are 4 groups of distinct atoms

 Group   1 Type C   : 11s6p2d1f contracted to 5s3p2d1f pattern {62111/411/11/1}
 Group   2 Type Cl  : 14s9p3d1f contracted to 5s5p2d1f pattern {73211/51111/21/1}
 Group   3 Type N   : 11s6p2d1f contracted to 5s3p2d1f pattern {62111/411/11/1}
 Group   4 Type O   : 11s6p2d1f contracted to 5s3p2d1f pattern {62111/411/11/1}

Atom   0C    basis set group =>   1
Atom   1C    basis set group =>   1
Atom   2C    basis set group =>   1
Atom   3C    basis set group =>   1
Atom   4C    basis set group =>   1
Atom   5C    basis set group =>   1
Atom   6Cl   basis set group =>   2
Atom   7Cl   basis set group =>   2
Atom   8Cl   basis set group =>   2
Atom   9Cl   basis set group =>   2
Atom  10Cl   basis set group =>   2
Atom  11N    basis set group =>   3
Atom  12O    basis set group =>   4
Atom  13O    basis set group =>   4
---------------------------------
AUXILIARY/J BASIS SET INFORMATION
---------------------------------
There are 4 groups of distinct atoms

 Group   1 Type C   : 12s5p4d2f1g contracted to 6s4p3d1f1g pattern {711111/2111/211/2/1}
 Group   2 Type Cl  : 14s5p5d2f1g contracted to 8s4p3d1f1g pattern {71111111/2111/311/2/1}
 Group   3 Type N   : 12s5p4d2f1g contracted to 6s4p3d1f1g pattern {711111/2111/211/2/1}
 Group   4 Type O   : 12s5p4d2f1g contracted to 6s4p3d1f1g pattern {711111/2111/211/2/1}

Atom   0C    basis set group =>   1
Atom   1C    basis set group =>   1
Atom   2C    basis set group =>   1
Atom   3C    basis set group =>   1
Atom   4C    basis set group =>   1
Atom   5C    basis set group =>   1
Atom   6Cl   basis set group =>   2
Atom   7Cl   basis set group =>   2
Atom   8Cl   basis set group =>   2
Atom   9Cl   basis set group =>   2
Atom  10Cl   basis set group =>   2
Atom  11N    basis set group =>   3
Atom  12O    basis set group =>   4
Atom  13O    basis set group =>   4

Checking for AutoStart:
The File: sp.gbw exists
Trying to determine its content:
     ... Fine, the file contains calculation information
     ... Fine, the calculation information was read
     ... Fine, the file contains a basis set
     ... Fine, the basis set was read
     ... Fine, the file contains a geometry
     ... Fine, the geometry was read
     ... Fine, the file contains a set of orbitals
     ... Fine, the orbitals can be read
     => possible old guess file was deleted
     => GBW file was renamed to GES file
     => GES file is set as startup file
     => Guess is set to MORead
     ... now leaving AutoStart

------------------------------------------------------------------------------
                             ORCA STARTUP CALCULATIONS
                           -- RI-GTO INTEGRALS CHOSEN --
------------------------------------------------------------------------------
------------------------------------------------------------------------------
                   ___                                                        
                  /   \      - P O W E R E D   B Y -                         
                 /     \                                                     
                 |  |  |   _    _      __       _____    __    __             
                 |  |  |  | |  | |    /  \     |  _  \  |  |  /  |          
                  \  \/   | |  | |   /    \    | | | |  |  | /  /          
                 / \  \   | |__| |  /  /\  \   | |_| |  |  |/  /          
                |  |  |   |  __  | /  /__\  \  |    /   |      \           
                |  |  |   | |  | | |   __   |  |    \   |  |\   \          
                \     /   | |  | | |  |  |  |  | |\  \  |  | \   \       
                 \___/    |_|  |_| |__|  |__|  |_| \__\ |__|  \__/        
                                                                              
                      - O R C A' S   B I G   F R I E N D -                    
                                      &                                       
                       - I N T E G R A L  F E E D E R -                       
                                                                              
 v1 FN, 2020, v2 2021, v3 2022-2024                                           
------------------------------------------------------------------------------


----------------------
SHARK INTEGRAL PACKAGE
----------------------

Number of atoms                             ...     14
Number of basis functions                   ...    464
Number of shells                            ...    164
Maximum angular momentum                    ...      3
Integral batch strategy                     ... SHARK/LIBINT Hybrid
RI-J (if used) integral strategy            ... SPLIT-RIJ (Revised 2003 algorithm where possible)
Printlevel                                  ...      1
Contraction scheme used                     ... SEGMENTED contraction
Prescreening option                         ... SCHWARTZ
   Thresh                                   ... 3.000e-11
   Tcut                                     ... 1.000e-12
   Tpresel                                  ... 1.000e-12 
Coulomb Range Separation                    ... NOT USED
Exchange Range Separation                   ... Long Range
   Mu parameter                             ... 3.000e-01
   Scaling (regular/separated)              ... 1.670e-01 8.330e-01
Multipole approximations                    ... NOT USED
Finite Nucleus Model                        ... NOT USED
CABS basis                                  ... NOT available
Auxiliary Coulomb fitting basis             ... AVAILABLE
   # of basis functions in Aux-J            ...    696
   # of shells in Aux-J                     ...    220
   Maximum angular momentum in Aux-J        ...      4
Auxiliary J/K fitting basis                 ... NOT available
Auxiliary Correlation fitting basis         ... NOT available
Auxiliary 'external' fitting basis          ... NOT available

Checking pre-screening integrals            ... done (  0.0 sec) Dimension = 164
Check shell pair data                       ... done (  0.0 sec)
Shell pair information
Shell pair cut-off parameter TPreSel        ...   1.0e-12
Total number of shell pairs                 ...     13530
Shell pairs after pre-screening             ...     10728
Total number of primitive shell pairs       ...     50148
Primitive shell pairs kept                  ...     26112
          la=0 lb=0:   1770 shell pairs
          la=1 lb=0:   2862 shell pairs
          la=1 lb=1:   1160 shell pairs
          la=2 lb=0:   1564 shell pairs
          la=2 lb=1:   1247 shell pairs
          la=2 lb=2:    357 shell pairs
          la=3 lb=0:    746 shell pairs
          la=3 lb=1:    589 shell pairs
          la=3 lb=2:    341 shell pairs
          la=3 lb=3:     92 shell pairs

Calculating one electron integrals          ... done (  0.0 sec)
Calculating RI/J V-Matrix + Cholesky decomp.... done (  0.0 sec)
Calculating Nuclear repulsion               ... done (  0.0 sec) ENN=   1491.618998629236 Eh

Diagonalization of the overlap matrix:
Smallest eigenvalue                        ... 7.623e-06
Time for diagonalization                   ...    0.017 sec
Threshold for overlap eigenvalues          ... 1.000e-07
Number of eigenvalues below threshold      ... 0
Time for construction of square roots      ...    0.008 sec
Total time needed                          ...    0.025 sec

-------------------
DFT GRID GENERATION
-------------------

General Integration Accuracy     IntAcc      ... 4.388
Radial Grid Type                 RadialGrid  ... OptM3 with GC (2021)
Angular Grid (max. ang.)         AngularGrid ... 4 (Lebedev-302)
Angular grid pruning method      GridPruning ... 4 (adaptive)
Weight generation scheme         WeightScheme... mBecke (2022)
Basis function cutoff            BFCut       ... 1.0000e-11
Integration weight cutoff        WCut        ... 1.0000e-14
Partially contracted basis set               ... off
Rotationally invariant grid construction     ... off
Angular grids for H and He will be reduced by one unit

Total number of grid points                  ...    90642
Total number of batches                      ...     1423
Average number of points per batch           ...       63
Average number of grid points per atom       ...     6474

--------------------
COSX GRID GENERATION
--------------------

GRIDX 1
-------
General Integration Accuracy     IntAcc      ... 3.816
Radial Grid Type                 RadialGrid  ... OptM3 with GC (2021)
Angular Grid (max. ang.)         AngularGrid ... 1 (Lebedev-50)
Angular grid pruning method      GridPruning ... 4 (adaptive)
Weight generation scheme         WeightScheme... mBecke (2022)
Basis function cutoff            BFCut       ... 1.0000e-11
Integration weight cutoff        WCut        ... 1.0000e-14
Partially contracted basis set               ... on
Rotationally invariant grid construction     ... off
Angular grids for H and He will be reduced by one unit

Total number of grid points                  ...    16578
Total number of batches                      ...      138
Average number of points per batch           ...      120
Average number of grid points per atom       ...     1184
UseSFitting                                  ... on

GRIDX 2
-------
General Integration Accuracy     IntAcc      ... 4.020
Radial Grid Type                 RadialGrid  ... OptM3 with GC (2021)
Angular Grid (max. ang.)         AngularGrid ... 2 (Lebedev-110)
Angular grid pruning method      GridPruning ... 4 (adaptive)
Weight generation scheme         WeightScheme... mBecke (2022)
Basis function cutoff            BFCut       ... 1.0000e-11
Integration weight cutoff        WCut        ... 1.0000e-14
Partially contracted basis set               ... on
Rotationally invariant grid construction     ... off
Angular grids for H and He will be reduced by one unit

Total number of grid points                  ...    25893
Total number of batches                      ...      208
Average number of points per batch           ...      124
Average number of grid points per atom       ...     1850
UseSFitting                                  ... on

GRIDX 3
-------
General Integration Accuracy     IntAcc      ... 4.338
Radial Grid Type                 RadialGrid  ... OptM3 with GC (2021)
Angular Grid (max. ang.)         AngularGrid ... 3 (Lebedev-194)
Angular grid pruning method      GridPruning ... 4 (adaptive)
Weight generation scheme         WeightScheme... mBecke (2022)
Basis function cutoff            BFCut       ... 1.0000e-11
Integration weight cutoff        WCut        ... 1.0000e-14
Partially contracted basis set               ... on
Rotationally invariant grid construction     ... off
Angular grids for H and He will be reduced by one unit

Total number of grid points                  ...    60301
Total number of batches                      ...      479
Average number of points per batch           ...      125
Average number of grid points per atom       ...     4307
UseSFitting                                  ... on
Initializing property integral containers    ... done (  0.0 sec)

SHARK setup successfully completed in   1.8 seconds

Maximum memory used throughout the entire STARTUP-calculation: 71.2 MB
-------------------------------------------------------------------------------
                                 ORCA GUESS
                   Start orbitals & Density for SCF / CASSCF
-------------------------------------------------------------------------------

------------
SCF SETTINGS
------------
Hamiltonian:
 Density Functional     Method          .... DFT(GTOs)
 Exchange Functional    Exchange        .... WB97X-V
 Correlation Functional Correlation     .... WB97X-V
 Gradients option       PostSCFGGA      .... off
 Hybrid DFT is turned on
   Fraction HF Exchange ScalHFX         ....  0.167000
   Scaling of DF-GGA-X  ScalDFX         ....  0.000000
   Scaling of DF-GGA-C  ScalDFC         ....  1.000000
   Scaling of DF-LDA-C  ScalLDAC        ....  1.000000
   Perturbative correction              ....  0.000000
 Long-range corrected/Screened/Range-Separated Hybrid DFT is turned on
   Amount of maximum screened exact exchange              ....  0.833000
   Range separation parameter mu (erf(mu*r12)/r12)        ....  0.300000
   NL short-range parameter             ....  6.000000
   NL long-range parameter              ....  0.010000
 RI-approximation to the Coulomb term is turned on
   Number of AuxJ basis functions       .... 696
   RIJ-COSX (HFX calculated with COS-X)).... on


General Settings:
 Integral files         IntName         .... sp
 Hartree-Fock type      HFTyp           .... RHF
 Total Charge           Charge          ....    0
 Multiplicity           Mult            ....    1
 Number of Electrons    NEL             ....  144
 Basis Dimension        Dim             ....  464
 Nuclear Repulsion      ENuc            ....   1491.6189986292 Eh

Convergence Acceleration:
 AO-DIIS                CNVDIIS         .... on
   Start iteration      DIISMaxIt       ....    12
   Startup error        DIISStart       ....  0.200000
   # of expansion vecs  DIISMaxEq       ....     5
   Bias factor          DIISBfac        ....   1.050
   Max. coefficient     DIISMaxC        ....  10.000
 MO-DIIS                CNVKDIIS        .... off
 Trust-Rad. Augm. Hess. CNVTRAH         .... auto
   Auto Start mean grad. ratio tolernc. ....  1.125000
   Auto Start start iteration           ....     1
   Auto Start num. interpolation iter.  ....    10
   Max. Number of Micro iterations      ....    24
   Max. Number of Macro iterations      .... Maxiter - #DIIS iter
   Number of Davidson start vectors     ....     2
   Converg. threshold    (grad. norm)   ....   1.000e-04
   Grad. Scal. Fac. for Micro threshold ....   0.100
   Minimum threshold for Micro iter.    ....   1.000e-02
   NR start threshold (gradient norm)   ....   1.000e-04
   Initial trust radius                 ....   0.400
   Minimum AH scaling param. (alpha)    ....   1.000
   Maximum AH scaling param. (alpha)    .... 1000.000
   Quad. conv. algorithm                .... NR
   White noise on init. David. guess    .... on
   Maximum white noise                  ....   0.010
   Pseudo random numbers                .... off
   Inactive MOs                         .... canonical
   Orbital update algorithm             .... Taylor
   Preconditioner                       .... Diag
   Full preconditioner red. dimension   ....   250
 SOSCF                  CNVSOSCF        .... on
   Start iteration      SOSCFMaxIt      ....   150
   Startup grad/error   SOSCFStart      ....  0.003300
   Hessian update       SOSCFHessUp     .... L-BFGS
 Level Shifting         CNVShift        .... on
   Level shift para.    LevelShift      ....    0.2500
   Turn off err/grad.   ShiftErr        ....    0.0010
 Zerner damping         CNVZerner       .... off
 Static damping         CNVDamp         .... on
   Fraction old density DampFac         ....    0.7000
   Max. Damping (<1)    DampMax         ....    0.9800
   Min. Damping (>=0)   DampMin         ....    0.0000
   Turn off err/grad.   DampErr         ....    0.1000

SCF Procedure:
 Maximum # iterations   MaxIter         ....   125
 SCF integral mode      SCFMode         .... Direct
   Integral package                     .... SHARK and LIBINT hybrid scheme
 Reset frequency        DirectResetFreq ....    20
 Integral Threshold     Thresh          ....  3.000e-11 Eh
 Primitive CutOff       TCut            ....  1.000e-12 Eh

Convergence Tolerance:
 Convergence Check Mode ConvCheckMode   .... Total+1el-Energy
 Convergence forced     ConvForced      .... 0
 Energy Change          TolE            ....  1.000e-07 Eh
 1-El. energy change                    ....  1.000e-04 Eh
 Orbital Gradient       TolG            ....  1.000e-04
 Orbital Rotation angle TolX            ....  1.000e-04
 DIIS Error             TolErr          ....  1.000e-07

---------------------
INITIAL GUESS: MOREAD
---------------------
Guess MOs are being read from file: sp.ges
Input Geometry matches current geometry (good)
Atom 0: N(Shells)= 11 and 9 - projection required
Input basis set needs projection
NBasis(read)= 321
NBasis(calc)= 464
Basis set overlap was calculated
Using GuessMode=FMatrix for the initial guess
C*T matrix was formed
Effective Fockian was calculated
Effective Fockian was diagonalized
Initial density was built
                      ------------------
                      INITIAL GUESS DONE (   0.1 sec)
                      ------------------
             **** ENERGY FILE WAS UPDATED (sp.en.tmp) ****
Finished Guess after   0.1 sec
Maximum memory used throughout the entire GUESS-calculation: 57.0 MB

-------------------------------------------------------------------------------------------
                                      ORCA LEAN-SCF
                              memory conserving SCF solver
-------------------------------------------------------------------------------------------

----------------------------------------D-I-I-S--------------------------------------------
Iteration    Energy (Eh)           Delta-E    RMSDP     MaxDP     DIISErr   Damp  Time(sec)
-------------------------------------------------------------------------------------------
               ***  Starting incremental Fock matrix formation  ***
    1    -2734.9934498343027371     0.00e+00  2.02e-03  1.27e-01  7.06e-02  0.700  22.0
    2    -2735.0087365766430594    -1.53e-02  1.59e-03  9.93e-02  5.19e-02  0.700  12.4
                               ***Turning on AO-DIIS***
    3    -2735.0201534565730981    -1.14e-02  1.18e-03  7.24e-02  3.74e-02  0.700  12.2
    4    -2735.0285167290649042    -8.36e-03  2.78e-03  1.70e-01  2.66e-02  0.000  12.1
                              *** Initializing SOSCF ***
---------------------------------------S-O-S-C-F--------------------------------------
Iteration    Energy (Eh)           Delta-E    RMSDP     MaxDP     MaxGrad    Time(sec)
--------------------------------------------------------------------------------------
    5    -2735.0497278808206829    -2.12e-02  1.01e-04  3.55e-03  1.62e-03    12.7
               *** Restarting incremental Fock matrix formation ***
    6    -2735.0498387934785569    -1.11e-04  6.01e-05  2.64e-03  1.22e-03    21.7
    7    -2735.0498738846536071    -3.51e-05  4.27e-05  1.68e-03  4.20e-04    16.6
    8    -2735.0498786994148759    -4.81e-06  6.49e-06  2.68e-04  2.07e-04    16.1
    9    -2735.0498795998828427    -9.00e-07  5.22e-06  1.65e-04  9.17e-05    14.3
   10    -2735.0498798634198465    -2.64e-07  2.56e-06  1.68e-04  3.16e-05    13.7
   11    -2735.0498798916114538    -2.82e-08  9.02e-07  3.38e-05  1.98e-05    11.7
                 **** Energy Check signals convergence ****

               *****************************************************
               *                     SUCCESS                       *
               *           SCF CONVERGED AFTER  11 CYCLES          *
               *****************************************************


------------------
NL GRID GENERATION
------------------

General Integration Accuracy     IntAcc      ... 4.004
Radial Grid Type                 RadialGrid  ... OptM3 with GC (2021)
Angular Grid (max. ang.)         AngularGrid ... 2 (Lebedev-110)
Angular grid pruning method      GridPruning ... 4 (adaptive)
Weight generation scheme         WeightScheme... mBecke (2022)
Basis function cutoff            BFCut       ... 1.0000e-10
Integration weight cutoff        WCut        ... 1.0000e-14
Partially contracted basis set               ... off
Rotationally invariant grid construction     ... off
Angular grids for H and He will be reduced by one unit

Total number of grid points                  ...    30648
Total number of batches                      ...      488
Average number of points per batch           ...       62
Average number of grid points per atom       ...     2189
Final grid set up in    0.2 sec

-------------------------------------------------------------------------------
                    post-SCF DFT-NL dispersion correction                      
-------------------------------------------------------------------------------

SCF Energy:    -2735.049879892 
NL    Energy:      0.564733502 
SC+NL Energy:  -2734.485146389 
NL done in  :              2.7 sec
-------------------------------------------------------------------------------
Recomputing exchange energy using gridx3       ... done (   43.855 sec)
Old exchange energy                            :    -51.170280392 Eh
New exchange energy                            :    -51.170291399 Eh
Exchange energy change after final integration :     -0.000011007 Eh
Total energy after final integration           :  -2734.485157396 Eh
             **** ENERGY FILE WAS UPDATED (sp.en.tmp) ****

----------------
TOTAL SCF ENERGY
----------------

Total Energy       :      -2734.48515739612048 Eh          -74409.12402 eV

Components:
Nuclear Repulsion  :       1491.61899862923588 Eh           40589.01646 eV
Electronic Energy  :      -4226.66887852084619 Eh         -115013.50736 eV
One Electron Energy:      -6736.73393471020336 Eh         -183315.84996 eV
Two Electron Energy:       2510.06505618935671 Eh           68302.34260 eV

Virial components:
Potential Energy   :      -5464.03224840795338 Eh         -148683.87642 eV
Kinetic Energy     :       2729.54709101183289 Eh           74274.75240 eV
Virial Ratio       :          2.00180911565899

DFT components:
N(Alpha)           :       72.000000894897 electrons
N(Beta)            :       72.000000894897 electrons
N(Total)           :      144.000001789794 electrons
E(X)               :     -139.767374390157 Eh       
E(C)               :       -7.082961042086 Eh       
NL Energy, E(C,NL) :        0.564733502328 Eh       
E(XC)              :     -146.285601929916 Eh       

---------------
SCF CONVERGENCE
---------------

  Last Energy change         ...    2.8192e-08  Tolerance :   1.0000e-07
  Last MAX-Density change    ...    3.3772e-05  Tolerance :   1.0000e-05
  Last RMS-Density change    ...    9.0167e-07  Tolerance :   1.0000e-06
  Last DIIS Error            ...    1.6196e-03  Tolerance :   1.0000e-07
  Last Orbital Gradient      ...    1.9799e-05  Tolerance :   1.0000e-04
  Last Orbital Rotation      ...    2.1074e-05  Tolerance :   1.0000e-04


----------------
ORBITAL ENERGIES
----------------

  NO   OCC          E(Eh)            E(eV) 
   0   2.0000    -101.567020     -2763.7791 
   1   2.0000    -101.567017     -2763.7790 
   2   2.0000    -101.563580     -2763.6855 
   3   2.0000    -101.563579     -2763.6855 
   4   2.0000    -101.563398     -2763.6806 
   5   2.0000     -19.280484      -524.6487 
   6   2.0000     -19.280461      -524.6480 
   7   2.0000     -14.688538      -399.6954 
   8   2.0000     -10.405335      -283.1436 
   9   2.0000     -10.405322      -283.1432 
  10   2.0000     -10.403801      -283.1018 
  11   2.0000     -10.401974      -283.0521 
  12   2.0000     -10.401894      -283.0499 
  13   2.0000     -10.390956      -282.7523 
  14   2.0000      -9.606294      -261.4006 
  15   2.0000      -9.606292      -261.4005 
  16   2.0000      -9.602934      -261.3091 
  17   2.0000      -9.602933      -261.3091 
  18   2.0000      -9.602783      -261.3050 
  19   2.0000      -7.361955      -200.3290 
  20   2.0000      -7.361955      -200.3290 
  21   2.0000      -7.358520      -200.2355 
  22   2.0000      -7.358519      -200.2355 
  23   2.0000      -7.358353      -200.2310 
  24   2.0000      -7.352052      -200.0595 
  25   2.0000      -7.352052      -200.0595 
  26   2.0000      -7.351536      -200.0455 
  27   2.0000      -7.351535      -200.0454 
  28   2.0000      -7.348852      -199.9724 
  29   2.0000      -7.348852      -199.9724 
  30   2.0000      -7.348730      -199.9691 
  31   2.0000      -7.348070      -199.9511 
  32   2.0000      -7.348069      -199.9511 
  33   2.0000      -7.347907      -199.9467 
  34   2.0000      -1.402356       -38.1600 
  35   2.0000      -1.225883       -33.3580 
  36   2.0000      -1.126984       -30.6668 
  37   2.0000      -1.077530       -29.3211 
  38   2.0000      -1.067317       -29.0432 
  39   2.0000      -1.027616       -27.9629 
  40   2.0000      -1.014107       -27.5952 
  41   2.0000      -0.992559       -27.0089 
  42   2.0000      -0.945910       -25.7395 
  43   2.0000      -0.890420       -24.2296 
  44   2.0000      -0.848123       -23.0786 
  45   2.0000      -0.778732       -21.1904 
  46   2.0000      -0.753096       -20.4928 
  47   2.0000      -0.717916       -19.5355 
  48   2.0000      -0.702927       -19.1276 
  49   2.0000      -0.662662       -18.0320 
  50   2.0000      -0.653840       -17.7919 
  51   2.0000      -0.645817       -17.5736 
  52   2.0000      -0.611050       -16.6275 
  53   2.0000      -0.607446       -16.5294 
  54   2.0000      -0.594699       -16.1826 
  55   2.0000      -0.569457       -15.4957 
  56   2.0000      -0.550934       -14.9917 
  57   2.0000      -0.542427       -14.7602 
  58   2.0000      -0.529680       -14.4133 
  59   2.0000      -0.486422       -13.2362 
  60   2.0000      -0.482913       -13.1407 
  61   2.0000      -0.477290       -12.9877 
  62   2.0000      -0.475691       -12.9442 
  63   2.0000      -0.465742       -12.6735 
  64   2.0000      -0.457327       -12.4445 
  65   2.0000      -0.455437       -12.3931 
  66   2.0000      -0.445944       -12.1348 
  67   2.0000      -0.443380       -12.0650 
  68   2.0000      -0.438915       -11.9435 
  69   2.0000      -0.429733       -11.6936 
  70   2.0000      -0.377479       -10.2717 
  71   2.0000      -0.370147       -10.0722 
  72   0.0000      -0.007760        -0.2111 
  73   0.0000      -0.002215        -0.0603 
  74   0.0000      -0.002059        -0.0560 
  75   0.0000       0.021890         0.5957 
  76   0.0000       0.088378         2.4049 
  77   0.0000       0.100897         2.7455 
  78   0.0000       0.130866         3.5610 
  79   0.0000       0.139933         3.8078 
  80   0.0000       0.146004         3.9730 
  81   0.0000       0.164199         4.4681 
  82   0.0000       0.181371         4.9353 
*Only the first 10 virtual orbitals were printed.

                    ********************************
                    * MULLIKEN POPULATION ANALYSIS *
                    ********************************

-----------------------
MULLIKEN ATOMIC CHARGES
-----------------------
   0 C :    0.191746
   1 C :   -0.103759
   2 C :    0.088731
   3 C :   -0.044228
   4 C :    0.088727
   5 C :   -0.103810
   6 Cl:    0.007877
   7 Cl:   -0.003245
   8 Cl:   -0.001842
   9 Cl:   -0.003244
  10 Cl:    0.007894
  11 N :    0.385405
  12 O :   -0.255130
  13 O :   -0.255121
Sum of atomic charges:    0.0000000

--------------------------------
MULLIKEN REDUCED ORBITAL CHARGES
--------------------------------
  0 C s       :     3.001083  s :     3.001083
      pz      :     1.018727  p :     2.644687
      px      :     0.683170
      py      :     0.942790
      dz2     :     0.010614  d :     0.150121
      dxz     :     0.019560
      dyz     :     0.030279
      dx2y2   :     0.052744
      dxy     :     0.036925
      f0      :     0.002169  f :     0.012363
      f+1     :     0.001561
      f-1     :     0.000917
      f+2     :     0.001133
      f-2     :     0.001233
      f+3     :     0.001870
      f-3     :     0.003479

  1 C s       :     3.263713  s :     3.263713
      pz      :     0.992792  p :     2.640375
      px      :     0.824234
      py      :     0.823349
      dz2     :     0.009792  d :     0.188306
      dxz     :     0.030091
      dyz     :     0.032283
      dx2y2   :     0.062747
      dxy     :     0.053392
      f0      :     0.002232  f :     0.011364
      f+1     :     0.000877
      f-1     :     0.001050
      f+2     :     0.001143
      f-2     :     0.001122
      f+3     :     0.001500
      f-3     :     0.003440

  2 C s       :     3.079373  s :     3.079373
      pz      :     1.003777  p :     2.632458
      px      :     0.846888
      py      :     0.781794
      dz2     :     0.009610  d :     0.188145
      dxz     :     0.028070
      dyz     :     0.032289
      dx2y2   :     0.059651
      dxy     :     0.058525
      f0      :     0.002188  f :     0.011293
      f+1     :     0.000894
      f-1     :     0.001065
      f+2     :     0.001145
      f-2     :     0.001067
      f+3     :     0.001513
      f-3     :     0.003421

  3 C s       :     3.202993  s :     3.202993
      pz      :     0.992235  p :     2.640179
      px      :     0.775506
      py      :     0.872438
      dz2     :     0.009853  d :     0.189754
      dxz     :     0.034682
      dyz     :     0.026377
      dx2y2   :     0.056931
      dxy     :     0.061911
      f0      :     0.002175  f :     0.011302
      f+1     :     0.001106
      f-1     :     0.000843
      f+2     :     0.001090
      f-2     :     0.001148
      f+3     :     0.001532
      f-3     :     0.003409

  4 C s       :     3.079353  s :     3.079353
      pz      :     1.003779  p :     2.632461
      px      :     0.846825
      py      :     0.781858
      dz2     :     0.009610  d :     0.188166
      dxz     :     0.028066
      dyz     :     0.032292
      dx2y2   :     0.059707
      dxy     :     0.058491
      f0      :     0.002188  f :     0.011293
      f+1     :     0.000894
      f-1     :     0.001065
      f+2     :     0.001145
      f-2     :     0.001067
      f+3     :     0.001513
      f-3     :     0.003421

  5 C s       :     3.263771  s :     3.263771
      pz      :     0.992790  p :     2.640440
      px      :     0.824421
      py      :     0.823229
      dz2     :     0.009791  d :     0.188234
      dxz     :     0.030095
      dyz     :     0.032281
      dx2y2   :     0.062678
      dxy     :     0.053390
      f0      :     0.002232  f :     0.011365
      f+1     :     0.000877
      f-1     :     0.001050
      f+2     :     0.001144
      f-2     :     0.001122
      f+3     :     0.001500
      f-3     :     0.003440

  6 Cls       :     5.874415  s :     5.874415
      pz      :     3.906477  p :    11.047811
      px      :     3.735009
      py      :     3.406325
      dz2     :     0.008794  d :     0.063801
      dxz     :     0.004852
      dyz     :     0.012896
      dx2y2   :     0.013556
      dxy     :     0.023702
      f0      :     0.000602  f :     0.006097
      f+1     :     0.000397
      f-1     :     0.000911
      f+2     :     0.000231
      f-2     :     0.000748
      f+3     :     0.002073
      f-3     :     0.001135

  7 Cls       :     5.876651  s :     5.876651
      pz      :     3.905679  p :    11.055136
      px      :     3.764090
      py      :     3.385367
      dz2     :     0.008964  d :     0.065215
      dxz     :     0.004746
      dyz     :     0.013293
      dx2y2   :     0.014716
      dxy     :     0.023496
      f0      :     0.000601  f :     0.006243
      f+1     :     0.000366
      f-1     :     0.000931
      f+2     :     0.000272
      f-2     :     0.000742
      f+3     :     0.002147
      f-3     :     0.001184

  8 Cls       :     5.876522  s :     5.876522
      pz      :     3.906022  p :    11.054177
      px      :     3.201104
      py      :     3.947051
      dz2     :     0.008916  d :     0.064913
      dxz     :     0.017183
      dyz     :     0.000462
      dx2y2   :     0.028175
      dxy     :     0.010176
      f0      :     0.000591  f :     0.006230
      f+1     :     0.001203
      f-1     :     0.000095
      f+2     :     0.000961
      f-2     :     0.000028
      f+3     :     0.002163
      f-3     :     0.001189

  9 Cls       :     5.876636  s :     5.876636
      pz      :     3.905673  p :    11.055146
      px      :     3.763922
      py      :     3.385552
      dz2     :     0.008965  d :     0.065218
      dxz     :     0.004749
      dyz     :     0.013290
      dx2y2   :     0.014710
      dxy     :     0.023505
      f0      :     0.000601  f :     0.006244
      f+1     :     0.000366
      f-1     :     0.000931
      f+2     :     0.000272
      f-2     :     0.000743
      f+3     :     0.002147
      f-3     :     0.001184

 10 Cls       :     5.874451  s :     5.874451
      pz      :     3.906480  p :    11.047760
      px      :     3.735169
      py      :     3.406110
      dz2     :     0.008794  d :     0.063798
      dxz     :     0.004849
      dyz     :     0.012899
      dx2y2   :     0.013561
      dxy     :     0.023696
      f0      :     0.000602  f :     0.006097
      f+1     :     0.000397
      f-1     :     0.000912
      f+2     :     0.000231
      f-2     :     0.000748
      f+3     :     0.002073
      f-3     :     0.001135

 11 N s       :     3.278435  s :     3.278435
      pz      :     0.895993  p :     3.054541
      px      :     1.054655
      py      :     1.103894
      dz2     :     0.085188  d :     0.267532
      dxz     :     0.068293
      dyz     :     0.075735
      dx2y2   :     0.026224
      dxy     :     0.012092
      f0      :     0.004392  f :     0.014086
      f+1     :     0.002208
      f-1     :     0.001970
      f+2     :     0.002272
      f-2     :     0.002162
      f+3     :     0.000528
      f-3     :     0.000554

 12 O s       :     3.861061  s :     3.861061
      pz      :     1.259200  p :     4.345598
      px      :     1.703793
      py      :     1.382605
      dz2     :     0.014957  d :     0.045009
      dxz     :     0.014175
      dyz     :     0.010584
      dx2y2   :     0.002145
      dxy     :     0.003148
      f0      :     0.000846  f :     0.003463
      f+1     :     0.001248
      f-1     :     0.000556
      f+2     :     0.000331
      f-2     :     0.000453
      f+3     :     0.000014
      f-3     :     0.000015

 13 O s       :     3.861064  s :     3.861064
      pz      :     1.259134  p :     4.345585
      px      :     1.703871
      py      :     1.382579
      dz2     :     0.014961  d :     0.045010
      dxz     :     0.014173
      dyz     :     0.010587
      dx2y2   :     0.002144
      dxy     :     0.003146
      f0      :     0.000847  f :     0.003463
      f+1     :     0.001247
      f-1     :     0.000556
      f+2     :     0.000331
      f-2     :     0.000452
      f+3     :     0.000014
      f-3     :     0.000015


------------------------
MULLIKEN OVERLAP CHARGES
------------------------
B(  0-C ,  1-C ) :   0.3717 B(  0-C ,  2-C ) :   0.1867 B(  0-C ,  3-C ) :  -0.2829 
B(  0-C ,  4-C ) :   0.1863 B(  0-C ,  5-C ) :   0.3718 B(  0-C ,  6-Cl) :  -0.1721 
B(  0-C , 10-Cl) :  -0.1718 B(  0-C , 11-N ) :   0.6276 B(  0-C , 12-O ) :  -0.0846 
B(  0-C , 13-O ) :  -0.0847 B(  1-C ,  2-C ) :   0.5266 B(  1-C ,  3-C ) :   0.1941 
B(  1-C ,  4-C ) :  -0.2864 B(  1-C ,  5-C ) :   0.3028 B(  1-C ,  9-Cl) :  -0.1371 
B(  1-C , 10-Cl) :   0.8777 B(  1-C , 11-N ) :  -0.1225 B(  2-C ,  3-C ) :   0.6393 
B(  2-C ,  4-C ) :   0.1175 B(  2-C ,  5-C ) :  -0.2865 B(  2-C ,  8-Cl) :  -0.1456 
B(  2-C ,  9-Cl) :   0.8374 B(  2-C , 10-Cl) :  -0.1479 B(  3-C ,  4-C ) :   0.6397 
B(  3-C ,  5-C ) :   0.1940 B(  3-C ,  7-Cl) :  -0.1335 B(  3-C ,  8-Cl) :   0.8541 
B(  3-C ,  9-Cl) :  -0.1335 B(  4-C ,  5-C ) :   0.5277 B(  4-C ,  6-Cl) :  -0.1477 
B(  4-C ,  7-Cl) :   0.8373 B(  4-C ,  8-Cl) :  -0.1455 B(  5-C ,  6-Cl) :   0.8778 
B(  5-C ,  7-Cl) :  -0.1370 B(  5-C , 11-N ) :  -0.1224 B( 11-N , 12-O ) :   0.8116 
B( 11-N , 13-O ) :   0.8117 B( 12-O , 13-O ) :  -0.2211 


                     *******************************
                     * LOEWDIN POPULATION ANALYSIS *
                     *******************************

----------------------
LOEWDIN ATOMIC CHARGES
----------------------
   0 C :   -0.160023
   1 C :   -0.414511
   2 C :   -0.442961
   3 C :   -0.438473
   4 C :   -0.442956
   5 C :   -0.414512
   6 Cl:    0.473043
   7 Cl:    0.459820
   8 Cl:    0.459166
   9 Cl:    0.459823
  10 Cl:    0.473045
  11 N :   -0.042119
  12 O :    0.015318
  13 O :    0.015341

-------------------------------
LOEWDIN REDUCED ORBITAL CHARGES
-------------------------------
  0 C s       :     2.724578  s :     2.724578
      pz      :     0.918027  p :     2.839357
      px      :     0.848152
      py      :     1.073178
      dz2     :     0.042952  d :     0.529250
      dxz     :     0.056424
      dyz     :     0.093226
      dx2y2   :     0.191524
      dxy     :     0.145123
      f0      :     0.004983  f :     0.066838
      f+1     :     0.007543
      f-1     :     0.004987
      f+2     :     0.006256
      f-2     :     0.008819
      f+3     :     0.013085
      f-3     :     0.021166

  1 C s       :     2.771630  s :     2.771630
      pz      :     0.917325  p :     2.961588
      px      :     1.044764
      py      :     0.999499
      dz2     :     0.042641  d :     0.616857
      dxz     :     0.091872
      dyz     :     0.097109
      dx2y2   :     0.186850
      dxy     :     0.198385
      f0      :     0.004980  f :     0.064437
      f+1     :     0.005023
      f-1     :     0.005245
      f+2     :     0.008382
      f-2     :     0.008007
      f+3     :     0.010921
      f-3     :     0.021878

  2 C s       :     2.780465  s :     2.780465
      pz      :     0.927982  p :     2.986012
      px      :     1.055388
      py      :     1.002642
      dz2     :     0.042788  d :     0.613092
      dxz     :     0.086315
      dyz     :     0.096205
      dx2y2   :     0.189320
      dxy     :     0.198464
      f0      :     0.004866  f :     0.063393
      f+1     :     0.004953
      f-1     :     0.005262
      f+2     :     0.008126
      f-2     :     0.007554
      f+3     :     0.010822
      f-3     :     0.021810

  3 C s       :     2.782523  s :     2.782523
      pz      :     0.920764  p :     2.978864
      px      :     0.973805
      py      :     1.084295
      dz2     :     0.042793  d :     0.613872
      dxz     :     0.100429
      dyz     :     0.084239
      dx2y2   :     0.203321
      dxy     :     0.183091
      f0      :     0.004822  f :     0.063214
      f+1     :     0.005341
      f-1     :     0.004810
      f+2     :     0.007548
      f-2     :     0.008241
      f+3     :     0.010800
      f-3     :     0.021651

  4 C s       :     2.780465  s :     2.780465
      pz      :     0.927983  p :     2.986011
      px      :     1.055409
      py      :     1.002619
      dz2     :     0.042787  d :     0.613088
      dxz     :     0.086309
      dyz     :     0.096209
      dx2y2   :     0.189328
      dxy     :     0.198455
      f0      :     0.004866  f :     0.063392
      f+1     :     0.004953
      f-1     :     0.005262
      f+2     :     0.008126
      f-2     :     0.007554
      f+3     :     0.010822
      f-3     :     0.021810

  5 C s       :     2.771628  s :     2.771628
      pz      :     0.917323  p :     2.961587
      px      :     1.044747
      py      :     0.999517
      dz2     :     0.042641  d :     0.616860
      dxz     :     0.091878
      dyz     :     0.097106
      dx2y2   :     0.186843
      dxy     :     0.198393
      f0      :     0.004980  f :     0.064438
      f+1     :     0.005024
      f-1     :     0.005245
      f+2     :     0.008383
      f-2     :     0.008007
      f+3     :     0.010922
      f-3     :     0.021878

  6 Cls       :     5.530036  s :     5.530036
      pz      :     3.829753  p :    10.881038
      px      :     3.666721
      py      :     3.384565
      dz2     :     0.013443  d :     0.103242
      dxz     :     0.007770
      dyz     :     0.021044
      dx2y2   :     0.023533
      dxy     :     0.037451
      f0      :     0.001268  f :     0.012642
      f+1     :     0.000734
      f-1     :     0.001651
      f+2     :     0.000490
      f-2     :     0.001731
      f+3     :     0.003920
      f-3     :     0.002848

  7 Cls       :     5.529047  s :     5.529047
      pz      :     3.826820  p :    10.892491
      px      :     3.693305
      py      :     3.372367
      dz2     :     0.013532  d :     0.105760
      dxz     :     0.007593
      dyz     :     0.021778
      dx2y2   :     0.024951
      dxy     :     0.037907
      f0      :     0.001276  f :     0.012882
      f+1     :     0.000689
      f-1     :     0.001689
      f+2     :     0.000597
      f-2     :     0.001699
      f+3     :     0.004028
      f-3     :     0.002903

  8 Cls       :     5.529779  s :     5.529779
      pz      :     3.827229  p :    10.892704
      px      :     3.215820
      py      :     3.849656
      dz2     :     0.013562  d :     0.105504
      dxz     :     0.028051
      dyz     :     0.000477
      dx2y2   :     0.044785
      dxy     :     0.018628
      f0      :     0.001254  f :     0.012847
      f+1     :     0.002165
      f-1     :     0.000212
      f+2     :     0.002207
      f-2     :     0.000018
      f+3     :     0.004059
      f-3     :     0.002933

  9 Cls       :     5.529044  s :     5.529044
      pz      :     3.826814  p :    10.892490
      px      :     3.693171
      py      :     3.372504
      dz2     :     0.013532  d :     0.105762
      dxz     :     0.007599
      dyz     :     0.021772
      dx2y2   :     0.024940
      dxy     :     0.037918
      f0      :     0.001276  f :     0.012882
      f+1     :     0.000690
      f-1     :     0.001689
      f+2     :     0.000596
      f-2     :     0.001700
      f+3     :     0.004028
      f-3     :     0.002903

 10 Cls       :     5.530036  s :     5.530036
      pz      :     3.829754  p :    10.881035
      px      :     3.666858
      py      :     3.384423
      dz2     :     0.013443  d :     0.103242
      dxz     :     0.007764
      dyz     :     0.021049
      dx2y2   :     0.023543
      dxy     :     0.037442
      f0      :     0.001268  f :     0.012642
      f+1     :     0.000733
      f-1     :     0.001651
      f+2     :     0.000491
      f-2     :     0.001730
      f+3     :     0.003920
      f-3     :     0.002848

 11 N s       :     2.925564  s :     2.925564
      pz      :     1.123239  p :     3.272530
      px      :     1.124910
      py      :     1.024381
      dz2     :     0.265985  d :     0.773515
      dxz     :     0.227471
      dyz     :     0.174470
      dx2y2   :     0.072789
      dxy     :     0.032801
      f0      :     0.024332  f :     0.070510
      f+1     :     0.011921
      f-1     :     0.004927
      f+2     :     0.013951
      f-2     :     0.012329
      f+3     :     0.001472
      f-3     :     0.001579

 12 O s       :     3.497020  s :     3.497020
      pz      :     1.383966  p :     4.375208
      px      :     1.648584
      py      :     1.342658
      dz2     :     0.036846  d :     0.101245
      dxz     :     0.034787
      dyz     :     0.019331
      dx2y2   :     0.005525
      dxy     :     0.004756
      f0      :     0.003045  f :     0.011210
      f+1     :     0.004044
      f-1     :     0.001600
      f+2     :     0.001252
      f-2     :     0.001075
      f+3     :     0.000112
      f-3     :     0.000081

 13 O s       :     3.497005  s :     3.497005
      pz      :     1.383929  p :     4.375195
      px      :     1.648630
      py      :     1.342636
      dz2     :     0.036855  d :     0.101249
      dxz     :     0.034781
      dyz     :     0.019337
      dx2y2   :     0.005522
      dxy     :     0.004754
      f0      :     0.003046  f :     0.011211
      f+1     :     0.004044
      f-1     :     0.001601
      f+2     :     0.001251
      f-2     :     0.001075
      f+3     :     0.000112
      f-3     :     0.000081


---------------------------------
LOEWDIN BOND ORDERS (THRESH 0.050000)
---------------------------------
B(  0-C ,  1-C ) :   1.4659 B(  0-C ,  2-C ) :   0.2354 B(  0-C ,  3-C ) :   0.0945 
B(  0-C ,  4-C ) :   0.2354 B(  0-C ,  5-C ) :   1.4659 B(  0-C ,  6-Cl) :   0.1693 
B(  0-C , 10-Cl) :   0.1693 B(  0-C , 11-N ) :   1.0234 B(  0-C , 12-O ) :   0.1891 
B(  0-C , 13-O ) :   0.1891 B(  1-C ,  2-C ) :   1.4788 B(  1-C ,  3-C ) :   0.2298 
B(  1-C ,  4-C ) :   0.0909 B(  1-C ,  5-C ) :   0.2241 B(  1-C ,  9-Cl) :   0.1649 
B(  1-C , 10-Cl) :   1.6673 B(  1-C , 11-N ) :   0.1278 B(  2-C ,  3-C ) :   1.4813 
B(  2-C ,  4-C ) :   0.2249 B(  2-C ,  5-C ) :   0.0909 B(  2-C ,  8-Cl) :   0.1651 
B(  2-C ,  9-Cl) :   1.6763 B(  2-C , 10-Cl) :   0.1586 B(  3-C ,  4-C ) :   1.4813 
B(  3-C ,  5-C ) :   0.2298 B(  3-C ,  7-Cl) :   0.1628 B(  3-C ,  8-Cl) :   1.6734 
B(  3-C ,  9-Cl) :   0.1628 B(  4-C ,  5-C ) :   1.4788 B(  4-C ,  6-Cl) :   0.1586 
B(  4-C ,  7-Cl) :   1.6763 B(  4-C ,  8-Cl) :   0.1651 B(  5-C ,  6-Cl) :   1.6673 
B(  5-C ,  7-Cl) :   0.1649 B(  5-C , 11-N ) :   0.1278 B( 11-N , 12-O ) :   2.3295 
B( 11-N , 13-O ) :   2.3295 B( 12-O , 13-O ) :   0.3778 

------------------------------------------
LOEWDIN REDUCED ORBITAL POPULATIONS PER MO
-------------------------------------------
THRESHOLD FOR PRINTING IS 0.1%%
                      0         1         2         3         4         5   
                 -101.56702 -101.56702 -101.56358 -101.56358 -101.56340 -19.28048
                   2.00000   2.00000   2.00000   2.00000   2.00000   2.00000
                  --------  --------  --------  --------  --------  --------
 6 Cl s              56.4      43.6       0.0       0.0       0.0       0.0
 7 Cl s               0.0       0.0      92.6       7.3       0.0       0.0
 8 Cl s               0.0       0.0       0.0       0.1      99.9       0.0
 9 Cl s               0.0       0.0       7.3      92.6       0.0       0.0
10 Cl s              43.6      56.4       0.0       0.0       0.0       0.0
11 N  dxz             0.0       0.0       0.0       0.0       0.0       0.1
12 O  s               0.0       0.0       0.0       0.0       0.0      27.4
13 O  s               0.0       0.0       0.0       0.0       0.0      72.3

                      6         7         8         9        10        11   
                 -19.28046 -14.68854 -10.40533 -10.40532 -10.40380 -10.40197
                   2.00000   2.00000   2.00000   2.00000   2.00000   2.00000
                  --------  --------  --------  --------  --------  --------
 0 C  s               0.0       0.0       0.0       0.1       0.0       0.0
 0 C  py              0.0       0.0       0.2       0.0       0.0       0.0
 0 C  dz2             0.0       0.0       0.0       0.2       0.0       0.0
 0 C  dx2y2           0.0       0.1       0.0       0.1       0.0       0.0
 0 C  dxy             0.0       0.0       0.3       0.0       0.0       0.0
 0 C  f+3             0.0       0.0       0.0       0.1       0.0       0.0
 1 C  s               0.0       0.0      55.9      42.2       0.0       0.3
 1 C  dx2y2           0.0       0.0       0.0       0.0       0.0       0.1
 2 C  s               0.0       0.0       0.4       0.2       1.8      48.7
 2 C  dx2y2           0.0       0.0       0.1       0.1       0.1       0.0
 2 C  dxy             0.0       0.0       0.0       0.0       0.2       0.0
 3 C  s               0.0       0.0       0.0       0.0      95.3       0.0
 3 C  py              0.0       0.0       0.0       0.0       0.0       0.2
 3 C  dxy             0.0       0.0       0.0       0.0       0.0       0.3
 4 C  s               0.0       0.0       0.3       0.3       1.8      49.5
 4 C  dx2y2           0.0       0.0       0.1       0.1       0.1       0.0
 4 C  dxy             0.0       0.0       0.0       0.0       0.2       0.0
 5 C  s               0.0       0.0      42.2      56.0       0.0       0.3
 5 C  dx2y2           0.0       0.0       0.0       0.0       0.0       0.1
11 N  s               0.0      99.4       0.0       0.0       0.0       0.0
11 N  dz2             0.1       0.0       0.0       0.0       0.0       0.0
12 O  s              72.3       0.0       0.0       0.0       0.0       0.0
13 O  s              27.5       0.0       0.0       0.0       0.0       0.0

                     12        13        14        15        16        17   
                 -10.40189 -10.39096  -9.60629  -9.60629  -9.60293  -9.60293
                   2.00000   2.00000   2.00000   2.00000   2.00000   2.00000
                  --------  --------  --------  --------  --------  --------
 0 C  s               0.0      98.6       0.0       0.0       0.0       0.0
 1 C  s               0.3       0.1       0.0       0.0       0.0       0.0
 1 C  py              0.0       0.1       0.0       0.1       0.0       0.0
 1 C  dx2y2           0.1       0.1       0.0       0.0       0.0       0.0
 1 C  dxy             0.0       0.2       0.0       0.0       0.0       0.0
 2 C  s              47.8       0.0       0.0       0.0       0.0       0.0
 3 C  s               3.6       0.0       0.0       0.0       0.0       0.0
 3 C  dz2             0.1       0.0       0.0       0.0       0.0       0.0
 3 C  dx2y2           0.1       0.0       0.0       0.0       0.0       0.0
 4 C  s              47.0       0.0       0.0       0.0       0.0       0.0
 5 C  s               0.3       0.1       0.0       0.0       0.0       0.0
 5 C  py              0.0       0.1       0.1       0.0       0.0       0.0
 5 C  dx2y2           0.1       0.1       0.0       0.0       0.0       0.0
 5 C  dxy             0.0       0.2       0.0       0.0       0.0       0.0
 6 Cl s               0.0       0.0      58.7      41.0       0.0       0.0
 7 Cl s               0.0       0.0       0.0       0.0      66.3      33.2
 8 Cl s               0.0       0.0       0.0       0.0       0.0       0.4
 9 Cl s               0.0       0.0       0.0       0.0      33.3      66.1
10 Cl s               0.0       0.0      41.0      58.7       0.0       0.0

                     18        19        20        21        22        23   
                  -9.60278  -7.36196  -7.36196  -7.35852  -7.35852  -7.35835
                   2.00000   2.00000   2.00000   2.00000   2.00000   2.00000
                  --------  --------  --------  --------  --------  --------
 3 C  px              0.2       0.0       0.0       0.0       0.0       0.0
 3 C  dx2y2           0.1       0.0       0.0       0.0       0.0       0.0
 6 Cl pz              0.0       0.2       0.0       0.0       0.0       0.0
 6 Cl px              0.0      26.1       1.7       0.0       0.0       0.0
 6 Cl py              0.0      67.4       4.5       0.0       0.0       0.0
 7 Cl s               0.2       0.0       0.0       0.0       0.0       0.0
 7 Cl pz              0.0       0.0       0.0       0.2       0.0       0.0
 7 Cl px              0.0       0.0       0.0      19.6       4.8       0.0
 7 Cl py              0.0       0.0       0.0      60.5      14.8       0.0
 8 Cl s              99.3       0.0       0.0       0.0       0.0       0.0
 8 Cl px              0.0       0.0       0.0       0.0       0.0      99.9
 9 Cl s               0.2       0.0       0.0       0.0       0.0       0.0
 9 Cl pz              0.0       0.0       0.0       0.0       0.2       0.0
 9 Cl px              0.0       0.0       0.0       4.8      19.6       0.0
 9 Cl py              0.0       0.0       0.0      14.8      60.5       0.0
10 Cl pz              0.0       0.0       0.2       0.0       0.0       0.0
10 Cl px              0.0       1.7      26.1       0.0       0.0       0.0
10 Cl py              0.0       4.5      67.4       0.0       0.0       0.0

                     24        25        26        27        28        29   
                  -7.35205  -7.35205  -7.35154  -7.35153  -7.34885  -7.34885
                   2.00000   2.00000   2.00000   2.00000   2.00000   2.00000
                  --------  --------  --------  --------  --------  --------
 6 Cl pz             93.3       6.4       0.1       0.0       0.0       0.0
 6 Cl px              0.0       0.0      50.6      21.5       0.0       0.0
 6 Cl py              0.3       0.0      19.5       8.3       0.0       0.0
 7 Cl pz              0.0       0.0       0.0       0.0      97.8       1.9
 7 Cl py              0.0       0.0       0.0       0.0       0.3       0.0
 9 Cl pz              0.0       0.0       0.0       0.0       1.9      97.8
 9 Cl py              0.0       0.0       0.0       0.0       0.0       0.3
10 Cl pz              6.4      93.3       0.0       0.1       0.0       0.0
10 Cl px              0.0       0.0      21.5      50.7       0.0       0.0
10 Cl py              0.0       0.3       8.3      19.5       0.0       0.0

                     30        31        32        33        34        35   
                  -7.34873  -7.34807  -7.34807  -7.34791  -1.40236  -1.22588
                   2.00000   2.00000   2.00000   2.00000   2.00000   2.00000
                  --------  --------  --------  --------  --------  --------
 0 C  s               0.0       0.0       0.0       0.0       2.2       0.0
 0 C  pz              0.0       0.0       0.0       0.0       0.0       0.7
 0 C  px              0.0       0.0       0.0       0.0       4.3       0.0
 0 C  dz2             0.0       0.0       0.0       0.0       0.4       0.0
 0 C  dxz             0.0       0.0       0.0       0.0       0.0       0.7
 0 C  dx2y2           0.0       0.0       0.0       0.0       1.1       0.0
 1 C  s               0.0       0.0       0.0       0.0       0.2       0.0
 1 C  px              0.0       0.0       0.0       0.0       0.4       0.0
 1 C  py              0.0       0.0       0.0       0.0       0.2       0.0
 5 C  s               0.0       0.0       0.0       0.0       0.2       0.0
 5 C  px              0.0       0.0       0.0       0.0       0.4       0.0
 5 C  py              0.0       0.0       0.0       0.0       0.2       0.0
 7 Cl px              0.0      61.3      14.3       0.0       0.0       0.0
 7 Cl py              0.0      19.7       4.6       0.0       0.0       0.0
 8 Cl pz             99.7       0.0       0.0       0.3       0.0       0.0
 8 Cl py              0.3       0.0       0.0      99.7       0.0       0.0
 9 Cl px              0.0      14.2      61.3       0.0       0.0       0.0
 9 Cl py              0.0       4.6      19.8       0.0       0.0       0.0
11 N  s               0.0       0.0       0.0       0.0      34.1       0.0
11 N  pz              0.0       0.0       0.0       0.0       0.0      37.3
11 N  px              0.0       0.0       0.0       0.0       2.5       0.0
11 N  py              0.0       0.0       0.0       0.0       0.0       0.1
11 N  dz2             0.0       0.0       0.0       0.0       1.8       0.0
11 N  dxz             0.0       0.0       0.0       0.0       0.0       3.6
11 N  dx2y2           0.0       0.0       0.0       0.0       0.2       0.0
11 N  f0              0.0       0.0       0.0       0.0       0.0       0.2
11 N  f+1             0.0       0.0       0.0       0.0       0.5       0.0
11 N  f+2             0.0       0.0       0.0       0.0       0.0       0.1
12 O  s               0.0       0.0       0.0       0.0      17.9      25.7
12 O  pz              0.0       0.0       0.0       0.0       5.7       1.6
12 O  px              0.0       0.0       0.0       0.0       0.9       1.0
12 O  dz2             0.0       0.0       0.0       0.0       0.6       0.0
12 O  dxz             0.0       0.0       0.0       0.0       0.3       0.2
13 O  s               0.0       0.0       0.0       0.0      17.9      25.7
13 O  pz              0.0       0.0       0.0       0.0       5.7       1.6
13 O  px              0.0       0.0       0.0       0.0       0.9       1.0
13 O  dz2             0.0       0.0       0.0       0.0       0.6       0.0
13 O  dxz             0.0       0.0       0.0       0.0       0.3       0.2

                     36        37        38        39        40        41   
                  -1.12698  -1.07753  -1.06732  -1.02762  -1.01411  -0.99256
                   2.00000   2.00000   2.00000   2.00000   2.00000   2.00000
                  --------  --------  --------  --------  --------  --------
 0 C  s               8.2       0.0       6.7       0.0       2.1       5.4
 0 C  px              2.0       0.0       0.0       0.0       0.0       0.4
 0 C  py              0.0       6.3       0.0       3.2       0.0       0.0
 0 C  dz2             0.4       0.0       0.3       0.0       0.1       0.1
 0 C  dx2y2           0.2       0.0       0.4       0.0       0.0       0.5
 0 C  dxy             0.0       0.4       0.0       0.0       0.0       0.0
 0 C  f+3             0.1       0.0       0.1       0.0       0.0       0.1
 1 C  s              10.6       7.5       4.1       1.8       0.1       0.2
 1 C  px              0.4       0.1       3.4       3.5       1.2       1.2
 1 C  py              0.2       3.3       0.0       1.4       1.2      11.0
 1 C  dz2             0.7       0.5       0.3       0.1       0.0       0.0
 1 C  dx2y2           0.0       0.0       0.5       0.3       0.1       0.1
 1 C  dxy             0.0       0.1       0.0       0.8       0.0       1.4
 1 C  f+3             0.1       0.1       0.1       0.1       0.0       0.0
 2 C  s              11.7       6.9       1.4       2.4       1.3       0.6
 2 C  px              0.1       0.1       6.2       3.1       0.2       0.3
 2 C  py              0.3       3.0       0.2       1.9       6.7       1.4
 2 C  dz2             0.7       0.4       0.1       0.2       0.1       0.0
 2 C  dx2y2           0.0       0.0       0.4       0.4       0.4       0.0
 2 C  dxy             0.0       0.1       0.0       0.8       1.2       0.2
 2 C  f+3             0.1       0.1       0.0       0.1       0.1       0.0
 3 C  s              11.9       0.0       9.6       0.0       2.5       0.1
 3 C  px              0.4       0.0       4.4       0.0       5.0       5.3
 3 C  py              0.0       5.3       0.0       3.6       0.0       0.0
 3 C  dz2             0.7       0.0       0.6       0.0       0.2       0.0
 3 C  dx2y2           0.0       0.0       0.1       0.0       2.9       0.3
 3 C  dxy             0.0       0.4       0.0       0.0       0.0       0.0
 3 C  f+3             0.1       0.0       0.2       0.0       0.1       0.0
 4 C  s              11.7       6.9       1.4       2.4       1.3       0.6
 4 C  px              0.1       0.1       6.2       3.1       0.2       0.3
 4 C  py              0.3       3.0       0.2       1.9       6.7       1.4
 4 C  dz2             0.7       0.4       0.1       0.2       0.1       0.0
 4 C  dx2y2           0.0       0.0       0.4       0.4       0.4       0.0
 4 C  dxy             0.0       0.1       0.0       0.8       1.2       0.2
 4 C  f+3             0.1       0.1       0.0       0.1       0.1       0.0
 5 C  s              10.6       7.5       4.1       1.8       0.1       0.2
 5 C  px              0.4       0.1       3.4       3.5       1.2       1.2
 5 C  py              0.2       3.3       0.0       1.4       1.2      11.0
 5 C  dz2             0.7       0.5       0.3       0.1       0.0       0.0
 5 C  dx2y2           0.0       0.0       0.5       0.3       0.1       0.1
 5 C  dxy             0.0       0.1       0.0       0.8       0.0       1.4
 5 C  f+3             0.1       0.1       0.1       0.1       0.0       0.0
 6 Cl s               3.4      10.2       6.6      13.6       0.0      20.7
 6 Cl px              0.2       0.3       0.0       0.0       0.0       0.0
 6 Cl py              0.5       0.5       0.4       0.2       0.0       0.1
 6 Cl dxy             0.1       0.1       0.0       0.0       0.0       0.0
 7 Cl s               3.7       8.8       2.6      15.0      17.9       0.2
 7 Cl px              0.2       0.3       0.0       0.0       0.1       0.0
 7 Cl py              0.7       0.5       0.3       0.2       0.1       0.0
 7 Cl dxy             0.1       0.1       0.0       0.0       0.1       0.0
 8 Cl s               3.9       0.0      16.9       0.0      22.0       7.7
 8 Cl px              0.9       0.0       1.1       0.0       0.2       0.0
 8 Cl py              0.0       0.1       0.0       0.2       0.0       0.0
 8 Cl dx2y2           0.1       0.0       0.2       0.0       0.1       0.0
 9 Cl s               3.7       8.8       2.6      15.0      17.9       0.2
 9 Cl px              0.2       0.3       0.0       0.0       0.1       0.0
 9 Cl py              0.7       0.5       0.3       0.2       0.1       0.0
 9 Cl dxy             0.1       0.1       0.0       0.0       0.1       0.0
10 Cl s               3.4      10.2       6.6      13.6       0.0      20.7
10 Cl px              0.2       0.3       0.0       0.0       0.0       0.0
10 Cl py              0.5       0.5       0.4       0.2       0.0       0.1
10 Cl dxy             0.1       0.1       0.0       0.0       0.0       0.0
11 N  s               0.1       0.0       0.1       0.0       0.1       0.3
11 N  px              2.1       0.0       3.8       0.0       1.7       2.7
11 N  py              0.0       0.3       0.0       0.3       0.0       0.0
11 N  dz2             0.1       0.0       0.2       0.0       0.1       0.1
12 O  s               0.2       0.0       0.6       0.0       0.3       0.4
12 O  px              0.1       0.0       0.1       0.0       0.1       0.2
13 O  s               0.2       0.0       0.6       0.0       0.3       0.4
13 O  px              0.1       0.0       0.1       0.0       0.1       0.2

                     42        43        44        45        46        47   
                  -0.94591  -0.89042  -0.84812  -0.77873  -0.75310  -0.71792
                   2.00000   2.00000   2.00000   2.00000   2.00000   2.00000
[...]
 6 Cl py              5.5       6.1      15.9      18.5      19.4      10.9
 7 Cl s               0.0       0.2       0.2       0.0       0.2       0.3
 7 Cl px             15.5       6.0       6.6       0.2       5.4       5.5
 7 Cl py              4.9      19.5      19.8       0.3      16.8      17.0
 8 Cl s               0.0       0.2       0.0       0.4       0.0       0.2
 8 Cl px              0.0      29.3       0.0      46.2       0.0      21.7
 8 Cl py             16.7       0.0       0.0       0.0       0.0       0.0
 9 Cl s               0.0       0.2       0.2       0.0       0.2       0.3
 9 Cl px             15.5       6.0       6.6       0.2       5.4       5.6
 9 Cl py              4.9      19.4      19.7       0.3      16.7      17.0
10 Cl s               0.0       0.1       0.2       0.2       0.3       0.2
10 Cl px             14.9       2.8       6.3       6.4       6.8       3.8
10 Cl py              5.5       6.1      15.9      18.5      19.4      10.9

                    450       451       452       453       454       455   
                  21.90616  22.74788  22.75856  22.80938  22.92073  23.28049
                   0.00000   0.00000   0.00000   0.00000   0.00000   0.00000
                  --------  --------  --------  --------  --------  --------
 0 C  s              14.5       0.0       0.7       0.0      38.2      44.5
 0 C  px              0.2       0.0       0.0       0.0       0.0       0.0
 0 C  py              0.0       0.1       0.0       0.7       0.0       0.0
 0 C  dx2y2           0.1       0.0       0.0       0.0       0.0       0.1
 0 C  dxy             0.0       0.0       0.0       0.4       0.0       0.0
 1 C  s              16.9       0.0      15.2      48.3       1.4      15.3
 1 C  px              0.1       0.2       0.1       0.0       0.3       0.0
 1 C  py              0.0       0.0       0.0       0.2       0.1       0.1
 1 C  dx2y2           0.0       0.1       0.0       0.0       0.2       0.0
 1 C  dxy             0.0       0.0       0.0       0.0       0.0       0.1
 2 C  s              17.5      48.4       0.1       0.0      25.4       5.8
 2 C  px              0.0       0.0       0.3       0.1       0.1       0.0
 2 C  py              0.0       0.1       0.2       0.0       0.0       0.0
 2 C  dx2y2           0.0       0.0       0.2       0.1       0.0       0.0
 3 C  s              15.6       0.0      65.3       0.0       5.5      10.9
 3 C  px              0.0       0.0       0.2       0.0       0.0       0.0
 3 C  py              0.0       0.6       0.0       0.1       0.0       0.0
 3 C  dxy             0.0       0.3       0.0       0.0       0.0       0.0
 4 C  s              17.5      48.4       0.2       0.0      25.4       5.8
 4 C  px              0.0       0.0       0.3       0.1       0.1       0.0
 4 C  py              0.0       0.1       0.2       0.0       0.0       0.0
 4 C  dx2y2           0.0       0.0       0.2       0.1       0.0       0.0
 5 C  s              16.9       0.0      15.2      48.3       1.4      15.3
 5 C  px              0.1       0.2       0.1       0.0       0.3       0.0
 5 C  py              0.0       0.0       0.0       0.2       0.1       0.1
 5 C  dx2y2           0.0       0.1       0.0       0.0       0.2       0.0
 5 C  dxy             0.0       0.0       0.0       0.0       0.0       0.1
 6 Cl s               0.0       0.0       0.1       0.5       0.0       0.3
 7 Cl s               0.0       0.5       0.0       0.1       0.4       0.1
 8 Cl s               0.0       0.0       0.8       0.0       0.0       0.3
 9 Cl s               0.0       0.5       0.0       0.1       0.4       0.1
10 Cl s               0.0       0.0       0.1       0.5       0.0       0.3
11 N  s               0.3       0.0       0.0       0.0       0.0       0.0
11 N  px              0.1       0.0       0.0       0.0       0.1       0.0

                    456       457       458       459       460       461   
                  25.64374  26.02076  26.15837  26.25678  26.76581  32.58122
                   0.00000   0.00000   0.00000   0.00000   0.00000   0.00000
                  --------  --------  --------  --------  --------  --------
 0 C  s               0.6       0.0       0.1       0.0       0.1       0.1
 0 C  px              0.2       0.0       0.0       0.0       0.1       0.1
 0 C  py              0.0       0.3       0.0       0.1       0.0       0.0
 0 C  dx2y2           0.0       0.0       0.1       0.0       0.2       0.0
 1 C  s               0.1       0.3       0.2       0.2       0.4       0.0
 1 C  px              0.1       0.0       0.1       0.1       0.0       0.0
 1 C  py              0.1       0.4       0.1       0.1       0.1       0.0
 1 C  dxy             0.0       0.1       0.1       0.2       0.3       0.0
 2 C  s               0.0       0.4       0.0       0.2       0.4       0.0
 2 C  px              0.2       0.0       0.2       0.1       0.0       0.0
 2 C  py              0.1       0.4       0.1       0.1       0.1       0.0
 2 C  dx2y2           0.0       0.0       0.0       0.1       0.1       0.0
 2 C  dxy             0.0       0.1       0.0       0.2       0.4       0.0
 3 C  s               0.1       0.0       0.5       0.0       0.4       0.0
 3 C  px              0.2       0.0       0.5       0.0       0.1       0.0
 3 C  py              0.0       0.3       0.0       0.1       0.0       0.0
 3 C  dx2y2           0.0       0.0       0.3       0.0       0.5       0.0
 4 C  s               0.0       0.4       0.0       0.2       0.4       0.0
 4 C  px              0.2       0.0       0.2       0.1       0.0       0.0
 4 C  py              0.1       0.4       0.1       0.1       0.1       0.0
 4 C  dx2y2           0.0       0.0       0.0       0.1       0.1       0.0
 4 C  dxy             0.0       0.1       0.0       0.2       0.4       0.0
 5 C  s               0.1       0.3       0.2       0.2       0.4       0.0
 5 C  px              0.1       0.0       0.1       0.1       0.0       0.0
 5 C  py              0.1       0.4       0.1       0.1       0.1       0.0
 5 C  dxy             0.0       0.1       0.1       0.2       0.3       0.0
 6 Cl s               6.5      22.3      23.0      25.7      18.1       0.0
 7 Cl s              27.5      25.5       1.5      22.5      18.9       0.0
 8 Cl s              28.8       0.0      47.2       0.0      19.8       0.0
 8 Cl px              0.1       0.0       0.2       0.0       0.1       0.0
 9 Cl s              27.5      25.5       1.5      22.5      18.9       0.0
10 Cl s               6.5      22.3      23.0      25.7      18.1       0.0
11 N  s               0.3       0.0       0.1       0.0       0.1      97.9
11 N  px              0.0       0.0       0.0       0.0       0.0       0.3
12 O  s               0.0       0.0       0.0       0.0       0.0       0.3
12 O  pz              0.0       0.0       0.0       0.0       0.0       0.2
13 O  s               0.0       0.0       0.0       0.0       0.0       0.3
13 O  pz              0.0       0.0       0.0       0.0       0.0       0.2

                    462       463   
                  44.05929  44.16060
                   0.00000   0.00000
                  --------  --------
11 N  s               0.0       0.1
12 O  s              49.9      49.8
13 O  s              49.9      49.9


                      *****************************
                      * MAYER POPULATION ANALYSIS *
                      *****************************

  NA   - Mulliken gross atomic population
  ZA   - Total nuclear charge
  QA   - Mulliken gross atomic charge
  VA   - Mayer's total valence
  BVA  - Mayer's bonded valence
  FA   - Mayer's free valence

  ATOM       NA         ZA         QA         VA         BVA        FA
  0 C      5.8083     6.0000     0.1917     3.6980     3.6980     0.0000
  1 C      6.1038     6.0000    -0.1038     4.0838     4.0838     0.0000
  2 C      5.9113     6.0000     0.0887     3.9444     3.9444     0.0000
  3 C      6.0442     6.0000    -0.0442     4.0491     4.0491     0.0000
  4 C      5.9113     6.0000     0.0887     3.9447     3.9447    -0.0000
  5 C      6.1038     6.0000    -0.1038     4.0837     4.0837     0.0000
  6 Cl    16.9921    17.0000     0.0079     1.3312     1.3312     0.0000
  7 Cl    17.0032    17.0000    -0.0032     1.3157     1.3157    -0.0000
  8 Cl    17.0018    17.0000    -0.0018     1.3181     1.3181    -0.0000
  9 Cl    17.0032    17.0000    -0.0032     1.3157     1.3157     0.0000
 10 Cl    16.9921    17.0000     0.0079     1.3312     1.3312    -0.0000
 11 N      6.6146     7.0000     0.3854     4.2929     4.2929    -0.0000
 12 O      8.2551     8.0000    -0.2551     1.9848     1.9848     0.0000
 13 O      8.2551     8.0000    -0.2551     1.9848     1.9848    -0.0000

  Mayer bond orders larger than 0.100000
B(  0-C ,  1-C ) :   1.2970 B(  0-C ,  5-C ) :   1.2970 B(  0-C , 11-N ) :   0.9190 
B(  1-C ,  2-C ) :   1.3389 B(  1-C , 10-Cl) :   1.2435 B(  2-C ,  3-C ) :   1.3194 
B(  2-C ,  9-Cl) :   1.2265 B(  3-C ,  4-C ) :   1.3194 B(  3-C ,  8-Cl) :   1.2410 
B(  4-C ,  5-C ) :   1.3389 B(  4-C ,  7-Cl) :   1.2264 B(  5-C ,  6-Cl) :   1.2434 
B( 11-N , 12-O ) :   1.6631 B( 11-N , 13-O ) :   1.6632 B( 12-O , 13-O ) :   0.2284 


-------
TIMINGS
-------

Total SCF time: 0 days 0 hours 3 min 32 sec 

Total time                  ....     212.740 sec
Sum of individual times     ....     209.869 sec  ( 98.7%)

SCF preparation             ....       0.071 sec  (  0.0%)
Fock matrix formation       ....     208.857 sec  ( 98.2%)
  Startup                   ....       0.009 sec  (  0.0% of F)
  Split-RI-J                ....       9.009 sec  (  4.3% of F)
  Chain of spheres X        ....     189.025 sec  ( 90.5% of F)
  XC integration            ....      13.451 sec  (  6.4% of F)
    Basis function eval.    ....       3.031 sec  ( 22.5% of XC)
    Density eval.           ....       3.304 sec  ( 24.6% of XC)
    XC-Functional eval.     ....       3.050 sec  ( 22.7% of XC)
    XC-Potential eval.      ....       3.935 sec  ( 29.3% of XC)
Diagonalization             ....       0.000 sec  (  0.0%)
Density matrix formation    ....       0.042 sec  (  0.0%)
Total Energy calculation    ....       0.009 sec  (  0.0%)
Population analysis         ....       0.293 sec  (  0.1%)
Orbital Transformation      ....       0.065 sec  (  0.0%)
Orbital Orthonormalization  ....       0.000 sec  (  0.0%)
DIIS solution               ....       0.225 sec  (  0.1%)
  MO trafo                  ....       0.000 sec  (  0.0 % of DIIS)
  Orb grad                  ....       0.000 sec  (  0.0 % of DIIS)
  Energy W gradient         ....       0.000 sec  (  0.0 % of DIIS)
  DIIS error                ....       0.036 sec  ( 15.8 % of DIIS)
  DIIS work                 ....       0.156 sec  ( 69.5 % of DIIS)
  Form Q                    ....       0.000 sec  (  0.0 % of DIIS)
  Form QpQm                 ....       0.000 sec  (  0.0 % of DIIS)
  Exp/Cayley                ....       0.000 sec  (  0.0 % of DIIS)
  Orb update                ....       0.000 sec  (  0.0 % of DIIS)
  Wake-sleep                ....       0.001 sec  (  0.6 % of DIIS)
SOSCF solution              ....       0.156 sec  (  0.1%)
  MO trafo                  ....       0.080 sec  ( 51.2 % of SOSCF)
  Orb grad                  ....       0.001 sec  (  0.7 % of SOSCF)
  Rot update                ....       0.005 sec  (  3.2 % of SOSCF)
  Step                      ....       0.070 sec  ( 44.8 % of SOSCF)
Grid generation             ....       0.151 sec  (  0.1%)
Finished LeanSCF after 212.7 sec

Maximum memory used throughout the entire LEANSCF-calculation: 73.1 MB
------------------   -----------------
gCP correction             0.008190981
------------------   -----------------

-------------------------   --------------------
FINAL SINGLE POINT ENERGY     -2734.476966415320
-------------------------   --------------------


------------------------------------------------------------------------------
                              ORCA PROPERTY CALCULATIONS
------------------------------------------------------------------------------

GBWName                                 ... sp.gbw
Number of atoms                         ...     14
Number of basis functions               ...    464
Max core memory                         ...   1024 MB

Electric properties:
Dipole moment                           ... YES
Quadrupole moment                       ...  NO
Static polarizability (Dipole/Dipole)   ...  NO
Static polarizability (Dipole/Quad.)    ...  NO
Static polarizability (Quad./Quad.)     ...  NO
Static polarizability (Velocity)        ...  NO

Atomic electric properties:
Dipole moment                           ...  NO
Quadrupole moment                       ...  NO
Static polarizability                   ...  NO

Choice of electric origin               ... Center of mass
Position of electric origin             ...    -0.011315    -0.000007     0.000035

General magnetic properties:
Magnetizability                         ...  NO

EPR properties:
g-Tensor (aka g-matrix)                 ...  NO
Zero-Field splitting spin-orbit         ...  NO
Zero-field splitting spin-spin          ...  NO
Hyperfine couplings                     ...  NO (   0 nuclei)
Quadrupole couplings                    ...  NO (   0 nuclei)
Contact density                         ...  NO (   0 nuclei)

NMR properties:
Chemical shifts                         ...  NO (   0 nuclei)
Spin-rotation constants                 ...  NO (   0 nuclei)
Spin-spin couplings                     ...  NO (   0 nuclei,    0 pairs)

Choice of magnetic origin               ... GIAO
Position of magnetic origin             ...     0.000000     0.000000     0.000000

Properties with geometric perturbations:
SCF Hessian                             ...  NO
IR spectrum                             ...  NO
VCD spectrum                            ...  NO
X-ray spectroscopy properties:
SCF XES/XAS/RIXS spectra                ...  NO


-------------
DIPOLE MOMENT
-------------

Method             : SCF
Type of density    : Electron Density
Multiplicity       :   1
Irrep              :   0
Energy             : -2734.4851573961204849 Eh
Relativity type    : 
Basis              : AO
                                X                 Y                 Z
Electronic contribution:      6.158795670       0.000717822      -0.000412490
Nuclear contribution   :     -5.101615276      -0.000579307       0.000355072
                        -----------------------------------------
Total Dipole Moment    :      1.057180394       0.000138515      -0.000057418
                        -----------------------------------------
Magnitude (a.u.)       :      1.057180405
Magnitude (Debye)      :      2.687139038



--------------------
Rotational spectrum 
--------------------
 
Rotational constants in cm-1:             0.014751             0.013146             0.007176 
Rotational constants in MHz :           442.223666           394.092661           215.145956 

Dipole components along the rotational axes: 
x,y,z [a.u.] :     1.057180     0.000044     0.000008 
x,y,z [Debye]:     2.687139     0.000112     0.000022 

 

Dipole moment calculation done in   0.0 sec 

Maximum memory used throughout the entire PROP-calculation: 51.2 MB

--------------------------------
SUGGESTED CITATIONS FOR THIS RUN
--------------------------------

Below you find a list of papers that are relevant to this ORCA run
We neither can nor want to force you to cite these papers, but we appreciate if you do
You receive ORCA, which is the product of decades of hard work by many enthusiastic individuals, for free
The only thing we kindly ask in return is that you cite our papers,
We deeply appreciate it, if you show your appreciation for ORCA by not just citing the generic ORCA reference.

Please note that relegating all ORCA citations to the supporting information does *not* help us.
SI sections are not indexed - citations you put there will not count into any citation statistics
But we need these citations in order to attract the funding resources that allow us to do what we are doing

Therefore, if you are a happy ORCA user, please consider citing a few of the papers listed below in the main body of your paper

In addition to the list printed below, the program has created the file sp.bibtex that contains the list in bibtex format
You can import this file easily into all common literature databanks and citation aid programs


List of essential papers. We consider these as the minimum necessary citations

  1. Neese,F.
     Software update: the ORCA program system, version 5.0
     WIRES Comput. Molec. Sci., 2022 12(1)e1606
     doi.org/10.1002/wcms.1606

List of papers to cite with high priority. The work reported in these papers was absolutely
necessary for this run to complete.
Our perspective: the developers of density functionals and basis sets usually get cited in chemistry papers
Good! But without the algorithms to do something with them, the functionals or basis sets would not do anything.
Hence, in our opinion, the algorithm design and method developments papers are equally worthy of getting cited

  1. Neese,F.
     An improvement of the resolution of the identity approximation for the formation of the Coulomb matrix
     J. Comp. Chem., 2003 24(14)1740-1747
     doi.org/10.1002/jcc.10318
  2. Neese,F.; Wennmohs,F.; Hansen,A.; Becker,U.
     Efficient, approximate and parallel Hartree-Fock and hybrid DFT calculations. A 'chain-of-spheres' algorithm for the Hartree-Fock exchange
     Chem. Phys., 2009 356(1-3)98-109
     doi.org/10.1016/j.chemphys.2008.10.036
  3. Helmich-Paris,B.; de Souza,B.; Neese,F.; Izsák,R.
     An improved chain of spheres for exchange algorithm
     J. Chem. Phys., 2021 155 104109
     doi.org/doi: 10.1063/5.0058766.
  4. Neese,F.
     The SHARK Integral Generation and Digestion System
     J. Comp. Chem., 2022  1-16
     doi.org/10.1002/jcc.26942

List of suggested additional citations. These are papers that are important in the 'surrounding' of 
of this run, or papers that preceded the highly important papers. If you like your results we are grateful for a citation.

  1. Izsak,R.; Neese,F.
     An overlap fitted chain of spheres exchange method
     J. Chem. Phys., 2011 135 144105
     doi.org/10.1063/1.3646921
  2. Izsak,R.; Hansen,A.; Neese,F.
     The resolution of identity and chain of spheres approximations for the LPNO-CCSD singles Fock term
     Molec. Phys., 2012 110 2413-2417
     doi.org/10.1080/00268976.2012.687466
  3. Neese,F.
     The ORCA program system
     WIRES Comput. Molec. Sci., 2012 2(1)73-78
     doi.org/10.1002/wcms.81
  4. Izsak,R.; Neese,F.; Klopper,W.
     Robust fitting techniques in the chain of spheres approximation to the Fock exchange: The role of the complementary space
     J. Chem. Phys., 2013 139 
     doi.org/10.1063/1.4819264
  5. Neese,F.
     Software update: the ORCA program system, version 4.0
     WIRES Comput. Molec. Sci., 2018 8(1)1-6
     doi.org/10.1002/wcms.1327
  6. Neese,F.; Wennmohs,F.; Becker,U.; Riplinger,C.
     The ORCA quantum chemistry program package
     J. Chem. Phys., 2020 152 Art. No. L224108
     doi.org/10.1063/5.0004608

List of optional additional citations

  1. Neese,F.
     Approximate second-order SCF convergence for spin unrestricted wavefunctions
     Chem. Phys. Lett., 2000 325(1-3)93-98
     doi.org/10.1016/s0009-2614(00)00662-x

Timings for individual modules:

Sum of individual times          ...      214.763 sec (=   3.579 min)
Startup calculation              ...        1.807 sec (=   0.030 min)   0.8 %
SCF iterations                   ...      212.897 sec (=   3.548 min)  99.1 %
Property calculations            ...        0.060 sec (=   0.001 min)   0.0 %
                             ****ORCA TERMINATED NORMALLY****
TOTAL RUN TIME: 0 days 0 hours 3 minutes 34 seconds 817 msec
