
                                 *****************
                                 * O   R   C   A *
                                 *****************

                                            #,                                       
                                            ###                                      
                                            ####                                     
                                            #####                                    
                                            ######                                   
                                           ########,                                 
                                     ,,################,,,,,                         
                               ,,#################################,,                 
                          ,,##########################################,,             
                       ,#########################################, ''#####,          
                    ,#############################################,,   '####,        
                  ,##################################################,,,,####,       
                ,###########''''           ''''###############################       
              ,#####''   ,,,,##########,,,,          '''####'''          '####       
            ,##' ,,,,###########################,,,                        '##       
           ' ,,###''''                  '''############,,,                           
         ,,##''                                '''############,,,,        ,,,,,,###''
      ,#''                                            '''#######################'''  
     '                                                          ''''####''''         
             ,#######,   #######,   ,#######,      ##                                
            ,#'     '#,  ##    ##  ,#'     '#,    #''#        ,####,   ,####,        
            ##       ##  ##   ,#'  ##            #'  '#       #'       #'  '#        
            ##       ##  #######   ##           ,######,      #####,   #    #        
            '#,     ,#'  ##    ##  '#,     ,#' ,#      #,     #,   #   #,  ,#        
             '#######'   ##     ##  '#######'  #'      '#     '####' # '####'        



                #########################################################
                #                        -***-                          #
                #          Department of theory and spectroscopy        #
                #                                                       #
                #                      Frank Neese                      #
                #                                                       #
                #     Directorship, Architecture, Infrastructure        #
                #                    SHARK, DRIVERS                     #
                #        Core code/Algorithms in most modules           #
                #                                                       #
                #        Max Planck Institute fuer Kohlenforschung      #
                #                Kaiser Wilhelm Platz 1                 #
                #                 D-45470 Muelheim/Ruhr                 #
                #                      Germany                          #
                #                                                       #
                #                  All rights reserved                  #
                #                        -***-                          #
                #########################################################


                         Program Version 6.0.1  -  RELEASE   -


 With contributions from (in alphabetic order):
[Max-Planck-Institut fuer Kohlenforschung]                               
  Daniel Aravena         : Magnetic Suceptibility                        
  Michael Atanasov       : Ab Initio Ligand Field Theory (pilot matlab implementation)
  Alexander A. Auer      : GIAO ZORA, VPT2 properties, NMR spectrum      
  Ute Becker             : All parallelization in ORCA, NUMFREQ, NUMCALC 
  Giovanni Bistoni       : ED, misc. LED, open-shell LED, HFLD           
  Martin Brehm           : Molecular dynamics                            
  Dmytro Bykov           : pre 5.0 version of the SCF Hessian            
  Marcos Casanova-Páez   : Triplet and SCS-CIS(D). UHF-(DLPNO)-IP/EA/STEOM-CCSD. UHF-CVS-IP/STEOM-CCSD   
  Vijay G. Chilkuri      : MRCI spin determinant printing, contributions to CSF-ICE 
  Pauline Colinet        : FMM embedding                                 
  Dipayan Datta          : RHF DLPNO-CCSD density                        
  Achintya Kumar Dutta   : EOM-CC, STEOM-CC                              
  Nicolas Foglia         : Exact transition moments, OPA infrastructure, MCD improvements    
  Dmitry Ganyushin       : Spin-Orbit,Spin-Spin,Magnetic field MRCI      
  Miquel Garcia-Rates    : C-PCM and meta-GGA Hessian, CCSD/C-PCM, Gaussian charge scheme 
  Tiago L. C. Gouveia    : GS-ROHF, GS-ROCIS                             
  Yang Guo               : DLPNO-NEVPT2, F12-NEVPT2, CIM, IAO-localization        
  Andreas Hansen         : Spin unrestricted coupled pair/coupled cluster methods 
  Ingolf Harden          : AUTO-CI MPn and infrastructure                
  Benjamin Helmich-Paris : MC-RPA, TRAH-(SCF,CASSCF), AVAS, COSX integrals, SCF dyn. polar. 
  Lee Huntington         : MR-EOM, pCC                                   
  Robert Izsak           : Overlap fitted RIJCOSX, COSX-SCS-MP3, EOM     
  Riya Kayal             : Wick's Theorem for AUTO-CI, AUTO-CI UHF-CCSDT 
  Emily Kempfer          : AUTO-CI, RHF CISDT and CCSDT                  
  Christian Kollmar      : KDIIS, OOCD, Brueckner-CCSD(T), CCSD density, CASPT2, CASPT2-K, improved NEVPT2 
  Axel Koslowski         : Symmetry handling                             
  Simone Kossmann        : meta-GGA functionals, TD-DFT gradient, OOMP2, (MP2 Hessian; deprecated post 5.0) 
  Lucas Lang             : DCDCAS                                        
  Marvin Lechner         : AUTO-CI (C++ implementation), FIC-MRCC        
  Spencer Leger          : CASSCF response                               
  Dagmar Lenk            : GEPOL surface, SMD, ORCA-2-JSON               
  Dimitrios Liakos       : Extrapolation schemes; Compound Job, initial MDCI parallelization 
  Dimitrios Manganas     : Further ROCIS development; embedding schemes. LFT, Crystal Embedding 
  Dimitrios Pantazis     : SARC Basis sets                               
  Anastasios Papadopoulos: AUTO-CI, single reference methods and gradients 
  Taras Petrenko         : pre 6.0 DFT Hessian and TD-DFT gradient, (ASA, deprecated), ECA, 1-Electron XAS/XES, NRVS 
  Peter Pinski           : DLPNO-MP2, DLPNO-MP2 Gradient                 
  Christoph Reimann      : Effective Core Potentials                     
  Marius Retegan         : Local ZFS, SOC                                
  Christoph Riplinger    : Optimizer, TS searches, QM/MM, DLPNO-CCSD(T), (RO)-DLPNO pert. Triples 
  Michael Roemelt        : Original ROCIS implementation                 
  Masaaki Saitow         : Open-shell DLPNO-CCSD energy and density      
  Barbara Sandhoefer     : DKH picture change effects                    
  Kantharuban Sivalingam : CASSCF convergence/infrastructure, NEVPT2 and variants, FIC-MRCI 
  Bernardo de Souza      : ESD, SOC TD-DFT                               
  Georgi L. Stoychev     : AutoAux, RI-MP2 NMR, DLPNO-MP2 response, X2C  
  Van Anh Tran           : RI-MP2 g-tensors                              
  Willem Van den Heuvel  : Paramagnetic NMR                              
  Zikuan Wang            : NOTCH, Electric field optimization            
  Frank Wennmohs         : Technical directorship and infrastructure     
  Hang Xu                : AUTO-CI-Response properties                   
                                                                         
[FACCTs GmbH]                                                            
  Markus Bursch, Miquel Garcia-Rates, Christoph Riplinger, Bernardo de Souza, Georgi L. Stoychev 
                                                                 
  APM, Basis sets (HGBS, AHGBS, def-TZVP (Ac-Lr), def2-XVPD (La-Lu)), CI-OPT, improved COSX, DLPNO-Multilevel,           
  DOCKER, DRACO, updates on ESD, GOAT, IRC, LR-CPCM, MBIS, meta-GGA TD-DFT gradient, ML-optimized integration grids, 
  MM, NACMEs, nearIR, NEB, NEB-TS, NL-DFT gradient (VV10), 2- and 3-layer-ONIOM, interface openCOSMO-RS, QMMM,   
  Crystal-QMMM, SF, symmetry and pop. for TD-DFT, r2SCAN hybrids, SOLVATOR                                   
                                                                         
[Other institutions]                                                     
  V. Asgeirsson          : NEB                                           
  Christoph Bannwarth    : sTDA-DFT, sTD-DFT, PBEh-3c, B97-3c, D3        
  Sebastian Ehlert       : rSCAN, r2SCAN, r2SCAN-3c, D4, dhf basis sets  
  Marvin Friede          : D4 for Fr, Ra, Ac-Lr                          
  Lars Goerigk           : TD-DFT with DH, B97 family of functionals     
  Stefan Grimme          : VdW corrections, initial TS optimization, DFT functionals, gCP, sTDA/sTD-DF 
  Waldemar Hujo          : DFT-NL                                        
  H. Jonsson             : NEB                                           
  Holger Kruse           : gCP                                           
  Marcel Mueller         : wB97X-3c, vDZP basis set                      
  Hagen Neugebauer       : wr2SCAN                                       
  Tobias Risthaus        : range-separated hybrid DFT                    
  Lukas Wittmann         : regularized MP2, r2SCAN double-hybrids, wr2SCAN        
                                                                         
We gratefully acknowledge several colleagues who have allowed us to      
interface, adapt or use parts of their codes:                            
  Ed Valeev, F. Pavosevic, A. Kumar             : LibInt (2-el integral package), F12 methods 
  Garnet Chan, S. Sharma, J. Yang, R. Olivares  : DMRG                   
  Ulf Ekstrom                                   : XCFun DFT Library      
  Mihaly Kallay                                 : mrcc  (arbitrary order and MRCC methods)
  Frank Weinhold                                : gennbo (NPA and NBO analysis)           
  Simon Mueller                                 : openCOSMO-RS                            
  Christopher J. Cramer and Donald G. Truhlar   : smd solvation model                     
  S Lehtola, MJT Oliveira, MAL Marques          : LibXC Library                           
  Liviu Ungur et al                             : ANISO software                          


 Your calculation uses the libint2 library for the computation of 2-el integrals
 For citations please refer to: http://libint.valeyev.net

 Your ORCA version has been built with support for libXC version: 6.2.2
 For citations please refer to: https://libxc.gitlab.io

 This ORCA versions uses:
   CBLAS   interface :  Fast vector & matrix operations
   LAPACKE interface :  Fast linear algebra routines
   SCALAPACK package :  Parallel linear algebra routines
   Shared memory     :  Shared parallel matrices
   BLAS/LAPACK       :  OpenBLAS 0.3.27  USE64BITINT DYNAMIC_ARCH NO_AFFINITY Zen SINGLE_THREADED
        Core in use  :  Zen
   Copyright (c) 2011-2014, The OpenBLAS Project


Your calculation utilizes the geometrical counterpoise correction gCP
Please cite in your paper:
H.Kruse, S. Grimme J.Chem.Phys., 136, (2012), 154101 
   

Your calculation utilizes the atom-pairwise dispersion correction
based on EEQ partial charges (D4)


================================================================================

cite the ECPs for I  [Def2-ECP] as follows:
Ce-Yb(ecp-28): M. Dolg, H. Stoll, H.Preuss, J. Chem. Phys., 1989, 90, 1730-1734.
Y-Cd(ecp-28), Hf-Hg(ecp-46): D. Andrae,U. Haeussermann, M. Dolg, H. Stoll, H. Preuss, Theor. Chim. Acta, 1990, 77, 123-141.
In-Sb(ecp-28), Tl-Bi(ecp-46): B. Metz, H. Stoll, M. Dolg, J. Chem. Phys., 2000, 113, 2563-2569.
Te-Xe(ecp-28), Po-Rn(ecp-46): K. A. Peterson, D. Figgen, E. Goll, H. Stoll, M. Dolg, J. Chem. Phys., 2003, 119, 11113-11123.
Rb(ecp-28), Cs(ecp-46): T. Leininger, A. Nicklass, W. Kuechle, H. Stoll, M. Dolg, A. Bergner, Chem. Phys. Lett., 1996, 255, 274-280.
Sr(ecp-28), Ba(ecp-46): M. Kaupp, P. V. Schleyer, H. Stoll and H. Preuss, J. Chem. Phys., 1991, 94, 1360-1366.
La(ecp-46): M. Dolg, H. Stoll, A. Savin, H. Preuss, Theor. Chim. Acta, 1989, 75, 173-194.
Lu(ecp-28): X. Cao, M. Dolg, J. Chem. Phys., 2001, 115, 7348-7355.

ECP parameters for I  [Def2-ECP] have been obtained from:
TURBOMOLE (7.0.2)

----- Orbital basis set information -----
Your calculation utilizes the basis: def2-SV(P)
   F. Weigend and R. Ahlrichs, Phys. Chem. Chem. Phys. 7, 3297 (2005).

----- AuxJ basis set information -----
Your calculation utilizes the auxiliary basis: def2/J
   F. Weigend, Phys. Chem. Chem. Phys. 8, 1057 (2006).

================================================================================
                                        WARNINGS
                       Please study these warnings very carefully!
================================================================================


================================================================================
                                       INPUT FILE
================================================================================
NAME = sp.inp
|  1> ! pbe def2-sv(p) def2/J RI DEFGRID1 loosescf d4 GCP(DFT/SV(P)) printgap
|  2> %output
|  3>     printlevel normal
|  4> end
|  5> * xyz 0 1
|  6> C -2.7143356553 -0.9082051114 -0.1687330026
|  7> C -2.3125363668 0.4467537296 0.3968755267
|  8> C -1.1190995087 1.0525254419 -0.3133811708
|  9> I 0.7077832129 -0.0629874947 0.0122367425
| 10> H -1.9110200445 -1.6310801156 -0.0423160552
| 11> H -3.5950971281 -1.2858544416 0.3445679107
| 12> H -2.942179388 -0.828436207 -1.2301279131
| 13> H -2.1020241952 0.3532929322 1.4647415602
| 14> H -3.1457012911 1.1481033252 0.2843372579
| 15> H -0.9130175467 2.0582747721 0.0442909955
| 16> H -1.2671492017 1.0726984301 -1.3904429667
| 17> *
| 18> 
| 19>                          ****END OF INPUT****
================================================================================

                       ****************************
                       * Single Point Calculation *
                       ****************************

---------------------------------
CARTESIAN COORDINATES (ANGSTROEM)
---------------------------------
  C     -2.714336   -0.908205   -0.168733
  C     -2.312536    0.446754    0.396876
  C     -1.119100    1.052525   -0.313381
  I      0.707783   -0.062987    0.012237
  H     -1.911020   -1.631080   -0.042316
  H     -3.595097   -1.285854    0.344568
  H     -2.942179   -0.828436   -1.230128
  H     -2.102024    0.353293    1.464742
  H     -3.145701    1.148103    0.284337
  H     -0.913018    2.058275    0.044291
  H     -1.267149    1.072698   -1.390443

----------------------------
CARTESIAN COORDINATES (A.U.)
----------------------------
  NO LB      ZA    FRAG     MASS         X           Y           Z
   0 C     6.0000    0    12.011   -5.129351   -1.716259   -0.318859
   1 C     6.0000    0    12.011   -4.370060    0.844242    0.749986
   2 C     6.0000    0    12.011   -2.114792    1.988985   -0.592205
   3 I    25.0000*   0   126.900    1.337516   -0.119029    0.023124
   4 H     1.0000    0     1.008   -3.611305   -3.082295   -0.079966
   5 H     1.0000    0     1.008   -6.793749   -2.429913    0.651139
   6 H     1.0000    0     1.008   -5.559913   -1.565518   -2.324605
   7 H     1.0000    0     1.008   -3.972250    0.667627    2.767960
   8 H     1.0000    0     1.008   -5.944514    2.169601    0.537320
   9 H     1.0000    0     1.008   -1.725353    3.889576    0.083698
  10 H     1.0000    0     1.008   -2.394565    2.027106   -2.627556
* core charge reduced due to ECP

--------------------------------
INTERNAL COORDINATES (ANGSTROEM)
--------------------------------
 C      0   0   0     0.000000000000     0.00000000     0.00000000
 C      1   0   0     1.522257907669     0.00000000     0.00000000
 C      2   1   0     1.515161865293   112.92936916     0.00000000
 I      3   2   1     2.165155101988   112.83756265   292.96776435
 H      1   2   3     1.088046638174   110.69022767    62.40505905
 H      1   2   3     1.087123551471   110.34148136   182.15968036
 H      1   2   3     1.088501263516   110.62968188   302.15935578
 H      2   1   3     1.092423068479   109.75013744   236.98398661
 H      2   1   3     1.094860679848   109.33740985   119.21092068
 H      3   2   1     1.087166440250   111.40463716   174.51107335
 H      3   2   1     1.087376555402   111.37644542    51.87644108

---------------------------
INTERNAL COORDINATES (A.U.)
---------------------------
 C      0   0   0     0.000000000000     0.00000000     0.00000000
 C      1   0   0     2.876650550690     0.00000000     0.00000000
 C      2   1   0     2.863240973965   112.92936916     0.00000000
 I      3   2   1     4.091550180220   112.83756265   292.96776435
 H      1   2   3     2.056110167083   110.69022767    62.40505905
 H      1   2   3     2.054365786017   110.34148136   182.15968036
 H      1   2   3     2.056969284472   110.62968188   302.15935578
 H      2   1   3     2.064380421804   109.75013744   236.98398661
 H      2   1   3     2.068986839711   109.33740985   119.21092068
 H      3   2   1     2.054446834062   111.40463716   174.51107335
 H      3   2   1     2.054843894156   111.37644542    51.87644108

---------------------
BASIS SET INFORMATION
---------------------
There are 3 groups of distinct atoms

 Group   1 Type C   : 7s4p1d contracted to 3s2p1d pattern {511/31/1}
 Group   2 Type I   : 10s7p6d contracted to 4s4p2d pattern {6211/4111/51}
 Group   3 Type H   : 4s contracted to 2s pattern {31}

Atom   0C    basis set group =>   1
Atom   1C    basis set group =>   1
Atom   2C    basis set group =>   1
Atom   3I    basis set group =>   2
Atom   4H    basis set group =>   3
Atom   5H    basis set group =>   3
Atom   6H    basis set group =>   3
Atom   7H    basis set group =>   3
Atom   8H    basis set group =>   3
Atom   9H    basis set group =>   3
Atom  10H    basis set group =>   3
---------------------------------
AUXILIARY/J BASIS SET INFORMATION
---------------------------------
There are 3 groups of distinct atoms

 Group   1 Type C   : 12s5p4d2f1g contracted to 6s4p3d1f1g pattern {711111/2111/211/2/1}
 Group   2 Type I   : 11s5p5d3f1g contracted to 8s4p3d2f1g pattern {41111111/2111/311/21/1}
 Group   3 Type H   : 5s2p1d contracted to 3s1p1d pattern {311/2/1}

Atom   0C    basis set group =>   1
Atom   1C    basis set group =>   1
Atom   2C    basis set group =>   1
Atom   3I    basis set group =>   2
Atom   4H    basis set group =>   3
Atom   5H    basis set group =>   3
Atom   6H    basis set group =>   3
Atom   7H    basis set group =>   3
Atom   8H    basis set group =>   3
Atom   9H    basis set group =>   3
Atom  10H    basis set group =>   3
-------------------------
ECP PARAMETER INFORMATION
-------------------------

 Group 1, Type I  ECP Def2-ECP (replacing 28 core electrons, lmax=3)

Atom   3I    ECP group =>   1

------------------------------------------------------------------------------
                             ORCA STARTUP CALCULATIONS
                           -- RI-GTO INTEGRALS CHOSEN --
------------------------------------------------------------------------------
------------------------------------------------------------------------------
                   ___                                                        
                  /   \      - P O W E R E D   B Y -                         
                 /     \                                                     
                 |  |  |   _    _      __       _____    __    __             
                 |  |  |  | |  | |    /  \     |  _  \  |  |  /  |          
                  \  \/   | |  | |   /    \    | | | |  |  | /  /          
                 / \  \   | |__| |  /  /\  \   | |_| |  |  |/  /          
                |  |  |   |  __  | /  /__\  \  |    /   |      \           
                |  |  |   | |  | | |   __   |  |    \   |  |\   \          
                \     /   | |  | | |  |  |  |  | |\  \  |  | \   \       
                 \___/    |_|  |_| |__|  |__|  |_| \__\ |__|  \__/        
                                                                              
                      - O R C A' S   B I G   F R I E N D -                    
                                      &                                       
                       - I N T E G R A L  F E E D E R -                       
                                                                              
 v1 FN, 2020, v2 2021, v3 2022-2024                                           
------------------------------------------------------------------------------


----------------------
SHARK INTEGRAL PACKAGE
----------------------

Number of atoms                             ...     11
Number of basis functions                   ...     82
Number of shells                            ...     42
Maximum angular momentum                    ...      2
Integral batch strategy                     ... SHARK/LIBINT Hybrid
RI-J (if used) integral strategy            ... SPLIT-RIJ (Revised 2003 algorithm where possible)
Printlevel                                  ...      1
Contraction scheme used                     ... SEGMENTED contraction
Prescreening option                         ... SCHWARTZ
   Thresh                                   ... 1.000e-09
   Tcut                                     ... 1.000e-10
   Tpresel                                  ... 1.000e-10 
Coulomb Range Separation                    ... NOT USED
Exchange Range Separation                   ... NOT USED
Multipole approximations                    ... NOT USED
Finite Nucleus Model                        ... NOT USED
CABS basis                                  ... NOT available
Auxiliary Coulomb fitting basis             ... AVAILABLE
   # of basis functions in Aux-J            ...    282
   # of shells in Aux-J                     ...     98
   Maximum angular momentum in Aux-J        ...      4
Auxiliary J/K fitting basis                 ... NOT available
Auxiliary Correlation fitting basis         ... NOT available
Auxiliary 'external' fitting basis          ... NOT available

Checking pre-screening integrals            ... done (  0.0 sec) Dimension = 42
Check shell pair data                       ... done (  0.0 sec)
Shell pair information
Shell pair cut-off parameter TPreSel        ...   1.0e-10
Total number of shell pairs                 ...       903
Shell pairs after pre-screening             ...       889
Total number of primitive shell pairs       ...      3920
Primitive shell pairs kept                  ...      2940
          la=0 lb=0:    371 shell pairs
          la=1 lb=0:    265 shell pairs
          la=1 lb=1:     55 shell pairs
          la=2 lb=0:    134 shell pairs
          la=2 lb=1:     49 shell pairs
          la=2 lb=2:     15 shell pairs

Calculating one electron integrals          ... done (  0.0 sec)
Calculating ECP integrals                   ... done (  0.0 sec)
Calculating RI/J V-Matrix + Cholesky decomp.... done (  0.0 sec)
Calculating Nuclear repulsion               ... done (  0.0 sec) ENN=    188.806723558585 Eh

Diagonalization of the overlap matrix:
Smallest eigenvalue                        ... 2.933e-03
Time for diagonalization                   ...    0.001 sec
Threshold for overlap eigenvalues          ... 1.000e-07
Number of eigenvalues below threshold      ... 0
Time for construction of square roots      ...    0.000 sec
Total time needed                          ...    0.002 sec

-------------------
DFT GRID GENERATION
-------------------

General Integration Accuracy     IntAcc      ... 4.159
Radial Grid Type                 RadialGrid  ... OptM3 with GC (2021)
Angular Grid (max. ang.)         AngularGrid ... 3 (Lebedev-194)
Angular grid pruning method      GridPruning ... 4 (adaptive)
Weight generation scheme         WeightScheme... mBecke (2022)
Basis function cutoff            BFCut       ... 1.0000e-10
Integration weight cutoff        WCut        ... 1.0000e-14
Partially contracted basis set               ... off
Rotationally invariant grid construction     ... off
Angular grids for H and He will be reduced by one unit

Total number of grid points                  ...    25910
Total number of batches                      ...      411
Average number of points per batch           ...       63
Average number of grid points per atom       ...     2355
Initializing property integral containers    ... done (  0.0 sec)

SHARK setup successfully completed in   0.2 seconds

Maximum memory used throughout the entire STARTUP-calculation: 14.7 MB
-------------------------------------------------------------------------------
                                 ORCA GUESS
                   Start orbitals & Density for SCF / CASSCF
-------------------------------------------------------------------------------

------------
SCF SETTINGS
------------
Hamiltonian:
 Density Functional     Method          .... DFT(GTOs)
 Exchange Functional    Exchange        .... PBE
   PBE kappa parameter   XKappa         ....  0.804000
   PBE mue parameter    XMuePBE         ....  0.219520
 Correlation Functional Correlation     .... PBE
   PBE beta parameter  CBetaPBE         ....  0.066725
 LDA part of GGA corr.  LDAOpt          .... PW91-LDA
 Gradients option       PostSCFGGA      .... off
   NL short-range parameter             ....  6.400000
 RI-approximation to the Coulomb term is turned on
   Number of AuxJ basis functions       .... 282


General Settings:
 Integral files         IntName         .... sp
 Hartree-Fock type      HFTyp           .... RHF
 Total Charge           Charge          ....    0
 Multiplicity           Mult            ....    1
 Number of Electrons    NEL             ....   50
 Basis Dimension        Dim             ....   82
 Nuclear Repulsion      ENuc            ....    188.8067235586 Eh

Convergence Acceleration:
 AO-DIIS                CNVDIIS         .... on
   Start iteration      DIISMaxIt       ....    12
   Startup error        DIISStart       ....  0.200000
   # of expansion vecs  DIISMaxEq       ....     5
   Bias factor          DIISBfac        ....   1.050
   Max. coefficient     DIISMaxC        ....  10.000
 MO-DIIS                CNVKDIIS        .... off
 Trust-Rad. Augm. Hess. CNVTRAH         .... auto
   Auto Start mean grad. ratio tolernc. ....  1.125000
   Auto Start start iteration           ....    50
   Auto Start num. interpolation iter.  ....    10
   Max. Number of Micro iterations      ....    24
   Max. Number of Macro iterations      .... Maxiter - #DIIS iter
   Number of Davidson start vectors     ....     2
   Converg. threshold    (grad. norm)   ....   1.000e-04
   Grad. Scal. Fac. for Micro threshold ....   0.100
   Minimum threshold for Micro iter.    ....   1.000e-02
   NR start threshold (gradient norm)   ....   1.000e-04
   Initial trust radius                 ....   0.400
   Minimum AH scaling param. (alpha)    ....   1.000
   Maximum AH scaling param. (alpha)    .... 1000.000
   Quad. conv. algorithm                .... NR
   White noise on init. David. guess    .... on
   Maximum white noise                  ....   0.010
   Pseudo random numbers                .... off
   Inactive MOs                         .... canonical
   Orbital update algorithm             .... Taylor
   Preconditioner                       .... Diag
   Full preconditioner red. dimension   ....   250
 SOSCF                  CNVSOSCF        .... on
   Start iteration      SOSCFMaxIt      ....   150
   Startup grad/error   SOSCFStart      ....  0.003300
   Hessian update       SOSCFHessUp     .... L-BFGS
 Level Shifting         CNVShift        .... on
   Level shift para.    LevelShift      ....    0.2500
   Turn off err/grad.   ShiftErr        ....    0.0010
 Zerner damping         CNVZerner       .... off
 Static damping         CNVDamp         .... on
   Fraction old density DampFac         ....    0.7000
   Max. Damping (<1)    DampMax         ....    0.9800
   Min. Damping (>=0)   DampMin         ....    0.0000
   Turn off err/grad.   DampErr         ....    0.1000

SCF Procedure:
 Maximum # iterations   MaxIter         ....   125
 SCF integral mode      SCFMode         .... Direct
   Integral package                     .... SHARK and LIBINT hybrid scheme
 Reset frequency        DirectResetFreq ....    20
 Integral Threshold     Thresh          ....  1.000e-09 Eh
 Primitive CutOff       TCut            ....  1.000e-10 Eh

Convergence Tolerance:
 Convergence Check Mode ConvCheckMode   .... Total+1el-Energy
 Convergence forced     ConvForced      .... 0
 Energy Change          TolE            ....  1.000e-05 Eh
 1-El. energy change                    ....  1.000e-02 Eh
 Orbital Gradient       TolG            ....  1.000e-04
 Orbital Rotation angle TolX            ....  1.000e-04
 DIIS Error             TolErr          ....  5.000e-04

------------------------------
INITIAL GUESS: MODEL POTENTIAL
------------------------------
Loading Hartree-Fock densities                     ... done
Atomic calculation to generate a density for atom 3 (I  with ECP)
  Multiplicity assumed   :    2
  Atomic configuration   : 1s2 2s2 2p6 3s2 3p6 4s2 3d10 4p6 5s2 4d10 5p5 
  Number of open shells  : 1
  Command: /home/michael/Documents/CHEM4561/orca_avx2/orca sp_atom53.inp "" > sp_atom53.out
Returned from the atomic calculation with res=0
Calculating cut-offs                               ... done
Initializing the effective Hamiltonian             ... done
Setting up the integral package (SHARK)            ... done
Starting the Coulomb interaction                   ... done (   0.0 sec)
Making the grid                                    ... done (   0.1 sec)
Mapping shells                                     ... done
Starting the XC term evaluation                    ... done (   0.0 sec)
  promolecular density results
     # of electrons  =     77.998040143
     EX              =   -190.534151503
     EC              =     -3.666866572
     EX+EC           =   -194.201018075
Transforming the Hamiltonian                       ... done (   0.0 sec)
Diagonalizing the Hamiltonian                      ... done (   0.0 sec)
Back transforming the eigenvectors                 ... done (   0.0 sec)
Now organizing SCF variables                       ... done
                      ------------------
                      INITIAL GUESS DONE (   0.7 sec)
                      ------------------
             **** ENERGY FILE WAS UPDATED (sp.en.tmp) ****
Finished Guess after   0.7 sec
Maximum memory used throughout the entire GUESS-calculation: 12.9 MB

-------------------------------------------------------------------------------------------
                                      ORCA LEAN-SCF
                              memory conserving SCF solver
-------------------------------------------------------------------------------------------

----------------------------------------D-I-I-S--------------------------------------------
Iteration    Energy (Eh)           Delta-E    RMSDP     MaxDP     DIISErr   Damp  Time(sec)
-------------------------------------------------------------------------------------------
               ***  Starting incremental Fock matrix formation  ***
    1    -415.8072258662587046     0.00e+00  5.06e-03  8.32e-02  3.86e-01  0.700   0.1
    2    -415.8709956855061591    -6.38e-02  3.59e-03  5.33e-02  2.58e-01  0.700   0.1
                               ***Turning on AO-DIIS***
    3    -415.8952796357795023    -2.43e-02  1.27e-03  2.56e-02  1.71e-01  0.700   0.1
    4    -415.9104313127644446    -1.52e-02  5.75e-04  7.99e-03  1.16e-01  0.700   0.1
    5    -415.9206330444504829    -1.02e-02  3.56e-04  4.15e-03  8.13e-02  0.700   0.1
    6    -415.9278220062741411    -7.19e-03  8.93e-04  9.77e-03  5.72e-02  0.000   0.1
                              *** Initializing SOSCF ***
---------------------------------------S-O-S-C-F--------------------------------------
Iteration    Energy (Eh)           Delta-E    RMSDP     MaxDP     MaxGrad    Time(sec)
--------------------------------------------------------------------------------------
    7    -415.9445955008587816    -1.68e-02  1.78e-04  4.61e-03  1.54e-03     0.1
               *** Restarting incremental Fock matrix formation ***
    8    -415.9446039640869230    -8.46e-06  1.03e-04  2.35e-03  3.57e-04     0.1
    9    -415.9446013107127555     2.65e-06  6.30e-05  1.17e-03  4.48e-04     0.1
                 **** Energy Check signals convergence ****

               *****************************************************
               *                     SUCCESS                       *
               *           SCF CONVERGED AFTER   9 CYCLES          *
               *****************************************************

             **** ENERGY FILE WAS UPDATED (sp.en.tmp) ****

----------------
TOTAL SCF ENERGY
----------------

Total Energy       :       -415.94460131071276 Eh          -11318.42802 eV

Components:
Nuclear Repulsion  :        188.80672355858476 Eh            5137.69214 eV
Electronic Energy  :       -604.75132486929749 Eh          -16456.12016 eV
One Electron Energy:      -1051.36706638789497 Eh          -28609.15234 eV
Two Electron Energy:        446.61574151859747 Eh           12153.03217 eV

Virial components:
Potential Energy   :       -646.54987684205639 Eh          -17593.51659 eV
Kinetic Energy     :        230.60527553134358 Eh            6275.08857 eV
Virial Ratio       :          2.80370809103271

DFT components:
N(Alpha)           :       25.000107517855 electrons
N(Beta)            :       25.000107517855 electrons
N(Total)           :       50.000215035709 electrons
E(X)               :      -38.964340166529 Eh       
E(C)               :       -1.952415500322 Eh       
E(XC)              :      -40.916755666851 Eh       

---------------
SCF CONVERGENCE
---------------

  Last Energy change         ...   -2.6534e-06  Tolerance :   1.0000e-05
  Last MAX-Density change    ...    1.1691e-03  Tolerance :   1.0000e-03
  Last RMS-Density change    ...    6.2964e-05  Tolerance :   1.0000e-04
  Last DIIS Error            ...    1.5359e-03  Tolerance :   5.0000e-04
  Last Orbital Gradient      ...    4.4764e-04  Tolerance :   1.0000e-04
  Last Orbital Rotation      ...    3.2097e-04  Tolerance :   1.0000e-04


----------------
ORBITAL ENERGIES
----------------

  NO   OCC          E(Eh)            E(eV) 
   0   2.0000      -9.935772      -270.3661 
   1   2.0000      -9.902226      -269.4533 
   2   2.0000      -9.878589      -268.8101 
   3   2.0000      -6.594303      -179.4401 
   4   2.0000      -4.666033      -126.9692 
   5   2.0000      -4.649455      -126.5181 
   6   2.0000      -4.649062      -126.5074 
   7   2.0000      -1.802233       -49.0412 
   8   2.0000      -1.797870       -48.9225 
   9   2.0000      -1.797532       -48.9133 
  10   2.0000      -1.784169       -48.5497 
  11   2.0000      -1.784162       -48.5495 
  12   2.0000      -0.730754       -19.8848 
  13   2.0000      -0.649236       -17.6666 
  14   2.0000      -0.592878       -16.1330 
  15   2.0000      -0.524316       -14.2674 
  16   2.0000      -0.422924       -11.5083 
  17   2.0000      -0.415566       -11.3081 
  18   2.0000      -0.376776       -10.2526 
  19   2.0000      -0.335809        -9.1378 
  20   2.0000      -0.318721        -8.6728 
  21   2.0000      -0.313291        -8.5251 
  22   2.0000      -0.291754        -7.9390 
  23   2.0000      -0.219275        -5.9668 
  24   2.0000      -0.217093        -5.9074 
  25   0.0000      -0.053896        -1.4666 
  26   0.0000       0.035624         0.9694 
  27   0.0000       0.073096         1.9891 
  28   0.0000       0.078155         2.1267 
  29   0.0000       0.098612         2.6834 
  30   0.0000       0.105848         2.8803 
  31   0.0000       0.123619         3.3638 
  32   0.0000       0.131944         3.5904 
  33   0.0000       0.158357         4.3091 
  34   0.0000       0.195746         5.3265 
  35   0.0000       0.274876         7.4798 
*Only the first 10 virtual orbitals were printed.

                    ********************************
                    * MULLIKEN POPULATION ANALYSIS *
                    ********************************

-----------------------
MULLIKEN ATOMIC CHARGES
-----------------------
   0 C :   -0.287959
   1 C :   -0.170751
   2 C :   -0.349402
   3 I :   -0.048631
   4 H :    0.123352
   5 H :    0.109381
   6 H :    0.101887
   7 H :    0.111554
   8 H :    0.103612
   9 H :    0.155348
  10 H :    0.151608
Sum of atomic charges:   -0.0000000

--------------------------------
MULLIKEN REDUCED ORBITAL CHARGES
--------------------------------
  0 C s       :     3.104596  s :     3.104596
      pz      :     1.051791  p :     3.154327
      px      :     1.074165
      py      :     1.028371
      dz2     :     0.008739  d :     0.029035
      dxz     :     0.003963
      dyz     :     0.003459
      dx2y2   :     0.004097
      dxy     :     0.008777

  1 C s       :     3.061285  s :     3.061285
      pz      :     1.056130  p :     3.072081
      px      :     0.984849
      py      :     1.031102
      dz2     :     0.011604  d :     0.037386
      dxz     :     0.004279
      dyz     :     0.004387
      dx2y2   :     0.005462
      dxy     :     0.011654

  2 C s       :     3.229607  s :     3.229607
      pz      :     1.090175  p :     3.087037
      px      :     0.947060
      py      :     1.049802
      dz2     :     0.010783  d :     0.032757
      dxz     :     0.004589
      dyz     :     0.003109
      dx2y2   :     0.008554
      dxy     :     0.005722

  3 I s       :     3.970968  s :     3.970968
      pz      :     3.956850  p :    11.036200
      px      :     3.341398
      py      :     3.737952
      dz2     :     2.006350  d :    10.041463
      dxz     :     2.006862
      dyz     :     2.002456
      dx2y2   :     2.009667
      dxy     :     2.016129

  4 H s       :     0.876648  s :     0.876648

  5 H s       :     0.890619  s :     0.890619

  6 H s       :     0.898113  s :     0.898113

  7 H s       :     0.888446  s :     0.888446

  8 H s       :     0.896388  s :     0.896388

  9 H s       :     0.844652  s :     0.844652

 10 H s       :     0.848392  s :     0.848392


------------------------
MULLIKEN OVERLAP CHARGES
------------------------
B(  0-C ,  1-C ) :   0.9342 B(  0-C ,  2-C ) :  -0.1472 B(  0-C ,  4-H ) :   0.7703 
B(  0-C ,  5-H ) :   0.7389 B(  0-C ,  6-H ) :   0.7601 B(  0-C ,  7-H ) :  -0.0549 
B(  1-C ,  2-C ) :   0.8022 B(  1-C ,  3-I ) :  -0.1448 B(  1-C ,  4-H ) :  -0.0543 
B(  1-C ,  6-H ) :  -0.0560 B(  1-C ,  7-H ) :   0.7379 B(  1-C ,  8-H ) :   0.6771 
B(  2-C ,  3-I ) :   0.5564 B(  2-C ,  7-H ) :  -0.0650 B(  2-C ,  9-H ) :   0.7119 
B(  2-C , 10-H ) :   0.7136 B(  3-I ,  9-H ) :  -0.0760 B(  3-I , 10-H ) :  -0.0833 
B(  7-H ,  8-H ) :  -0.0563 B(  9-H , 10-H ) :  -0.0506 


                     *******************************
                     * LOEWDIN POPULATION ANALYSIS *
                     *******************************

----------------------
LOEWDIN ATOMIC CHARGES
----------------------
   0 C :   -0.346677
   1 C :   -0.251037
   2 C :   -0.333651
   3 I :    0.055503
   4 H :    0.121230
   5 H :    0.122698
   6 H :    0.118510
   7 H :    0.123666
   8 H :    0.127869
   9 H :    0.131659
  10 H :    0.130229

-------------------------------
LOEWDIN REDUCED ORBITAL CHARGES
-------------------------------
  0 C s       :     2.946261  s :     2.946261
      pz      :     1.116471  p :     3.330008
      px      :     1.127101
      py      :     1.086436
      dz2     :     0.020879  d :     0.070408
      dxz     :     0.009463
      dyz     :     0.008644
      dx2y2   :     0.010381
      dxy     :     0.021041

  1 C s       :     2.910984  s :     2.910984
      pz      :     1.101831  p :     3.249277
      px      :     1.067360
      py      :     1.080085
      dz2     :     0.026755  d :     0.090776
      dxz     :     0.011318
      dyz     :     0.010802
      dx2y2   :     0.014320
      dxy     :     0.027581

  2 C s       :     3.003572  s :     3.003572
      pz      :     1.137374  p :     3.254900
      px      :     1.023464
      py      :     1.094063
      dz2     :     0.024267  d :     0.075179
      dxz     :     0.011154
      dyz     :     0.006973
      dx2y2   :     0.018804
      dxy     :     0.013981

  3 I s       :     3.861559  s :     3.861559
      pz      :     3.945547  p :    11.033396
      px      :     3.351247
      py      :     3.736602
      dz2     :     2.007898  d :    10.049542
      dxz     :     2.007035
      dyz     :     2.002677
      dx2y2   :     2.011385
      dxy     :     2.020547

  4 H s       :     0.878770  s :     0.878770

  5 H s       :     0.877302  s :     0.877302

  6 H s       :     0.881490  s :     0.881490

  7 H s       :     0.876334  s :     0.876334

  8 H s       :     0.872131  s :     0.872131

  9 H s       :     0.868341  s :     0.868341

 10 H s       :     0.869771  s :     0.869771


---------------------------------
LOEWDIN BOND ORDERS (THRESH 0.050000)
---------------------------------
B(  0-C ,  1-C ) :   1.1330 B(  0-C ,  2-C ) :   0.0559 B(  0-C ,  4-H ) :   0.9330 
B(  0-C ,  5-H ) :   0.9381 B(  0-C ,  6-H ) :   0.9399 B(  1-C ,  2-C ) :   1.1402 
B(  1-C ,  3-I ) :   0.0660 B(  1-C ,  7-H ) :   0.9047 B(  1-C ,  8-H ) :   0.8886 
B(  2-C ,  3-I ) :   1.1195 B(  2-C ,  9-H ) :   0.9253 B(  2-C , 10-H ) :   0.9244 


------------------------------------------
LOEWDIN REDUCED ORBITAL POPULATIONS PER MO
-------------------------------------------
THRESHOLD FOR PRINTING IS 0.1%%
                      0         1         2         3         4         5   
                  -9.93577  -9.90223  -9.87859  -6.59430  -4.66603  -4.64945
                   2.00000   2.00000   2.00000   2.00000   2.00000   2.00000
                  --------  --------  --------  --------  --------  --------
 0 C  s               0.0       0.0      99.7       0.0       0.0       0.0
 1 C  s               0.0      99.6       0.0       0.0       0.0       0.0
 2 C  s              99.7       0.0       0.0       0.0       0.0       0.0
 3 I  s               0.0       0.0       0.0      99.9       0.0       0.0
 3 I  pz              0.0       0.0       0.0       0.0       2.6      39.3
 3 I  px              0.0       0.0       0.0       0.0      71.6      23.5
 3 I  py              0.0       0.0       0.0       0.0      25.8      37.2

                      6         7         8         9        10        11   
                  -4.64906  -1.80223  -1.79787  -1.79753  -1.78417  -1.78416
                   2.00000   2.00000   2.00000   2.00000   2.00000   2.00000
                  --------  --------  --------  --------  --------  --------
 3 I  pz             58.1       0.0       0.0       0.0       0.0       0.0
 3 I  px              4.8       0.0       0.0       0.0       0.0       0.0
 3 I  py             37.0       0.0       0.0       0.0       0.0       0.0
 3 I  dz2             0.0      21.3       2.7       4.9      24.5      46.6
 3 I  dxz             0.0       5.6      18.4      48.5      24.1       3.5
 3 I  dyz             0.0       1.7      16.4       9.4      40.3      32.3
 3 I  dx2y2           0.0      16.0      54.1      22.0       6.6       1.2
 3 I  dxy             0.0      55.4       8.4      15.2       4.5      16.4

                     12        13        14        15        16        17   
                  -0.73075  -0.64924  -0.59288  -0.52432  -0.42292  -0.41557
                   2.00000   2.00000   2.00000   2.00000   2.00000   2.00000
                  --------  --------  --------  --------  --------  --------
 0 C  s              10.9      17.1      12.8       5.5       0.3       0.2
 0 C  pz              0.2       0.1       0.1       2.8       5.7       0.0
 0 C  px              0.4       0.0       0.1       0.1       0.3      19.7
 0 C  py              2.4       0.2       1.5       4.7       8.9       0.2
 0 C  dyz             0.0       0.0       0.0       0.1       0.0       0.0
 0 C  dx2y2           0.0       0.0       0.0       0.1       0.1       0.0
 1 C  s              25.7       4.5       2.6      11.9       0.2       0.1
 1 C  pz              1.1       0.0       0.0       7.0      17.2       0.6
 1 C  px              1.0       3.6       1.4       1.4       6.6      18.1
 1 C  py              0.0       3.7       7.9       0.8       0.9       6.9
 1 C  dxz             0.0       0.0       0.0       0.1       0.0       0.1
 1 C  dyz             0.0       0.1       0.1       0.0       0.0       0.0
 1 C  dxy             0.0       0.0       0.0       0.1       0.1       0.0
 2 C  s              23.1       9.2       7.7       8.6       0.4       0.0
 2 C  pz              0.6       0.1       0.0       6.6      15.2       0.0
 2 C  px              0.7       6.3       5.2       1.1       5.2       1.2
 2 C  py              1.0       0.0       2.3       2.5       4.1      21.8
 2 C  dyz             0.0       0.0       0.0       0.1       0.0       0.1
 2 C  dx2y2           0.0       0.0       0.0       0.1       0.2       0.0
 2 C  dxy             0.0       0.1       0.1       0.0       0.0       0.0
 3 I  s               6.6      35.5      37.6       7.8       1.3       1.0
 3 I  pz              0.0       0.0       0.0       0.3       0.5       0.0
 3 I  px              1.3       0.5       0.4       1.1       1.3       2.8
 3 I  py              0.3       0.3       0.3       0.7       1.0       0.4
 3 I  dx2y2           0.0       0.0       0.0       0.0       0.0       0.2
 3 I  dxy             0.1       0.1       0.0       0.1       0.1       0.0
 4 H  s               2.2       3.1       4.7       2.8       3.5       2.4
 5 H  s               1.8       4.3       4.2       2.1       1.8       6.4
 6 H  s               2.0       3.7       3.7       4.2       1.7       0.6
 7 H  s               4.6       0.9       0.6       8.6       6.4       0.1
 8 H  s               4.7       1.2       1.3       6.2       4.4       8.5
 9 H  s               4.3       2.9       3.0       4.3       7.2       8.2
10 H  s               4.5       2.3       2.1       8.0       5.1       0.1

                     18        19        20        21        22        23   
                  -0.37678  -0.33581  -0.31872  -0.31329  -0.29175  -0.21928
                   2.00000   2.00000   2.00000   2.00000   2.00000   2.00000
                  --------  --------  --------  --------  --------  --------
 0 C  s               0.1       0.0       0.2       0.3       0.0       0.1
 0 C  pz             22.8       2.2       1.0      20.1       0.7       0.0
 0 C  px              0.8      11.3      21.1       0.0       2.1       0.1
 0 C  py              0.6      17.7      10.2       3.8       3.3       0.2
 0 C  dz2             0.1       0.2       0.0       0.5       0.2       0.0
 0 C  dxz             0.1       0.0       0.2       0.1       0.0       0.0
 0 C  dyz             0.1       0.0       0.2       0.0       0.0       0.0
 0 C  dx2y2           0.0       0.0       0.2       0.0       0.0       0.0
 0 C  dxy             0.0       0.4       0.2       0.1       0.2       0.0
 1 C  s               0.0       0.0       0.1       0.1       0.0       0.5
 1 C  pz              4.7       0.1       0.0      21.7       2.4       0.1
 1 C  px              4.0       0.1       7.8       0.1       7.9       1.3
 1 C  py              8.4       6.8       9.3       3.7       5.4       0.1
 1 C  dz2             0.1       0.0       0.0       0.7       0.5       0.0
 1 C  dxz             0.0       0.0       0.2       0.1       0.0       0.0
 1 C  dyz             0.0       0.1       0.2       0.0       0.0       0.0
 1 C  dx2y2           0.0       0.1       0.3       0.1       0.0       0.0
 1 C  dxy             0.0       0.2       0.1       0.3       0.5       0.0
 2 C  s               0.1       0.2       0.8       0.2       0.0       0.0
 2 C  pz             22.4       4.1       0.4       4.9       1.2       0.7
 2 C  px              3.9       9.4       6.3       2.7       8.4       0.3
 2 C  py              0.4       3.5      12.1       0.9       5.0       0.3
 2 C  dz2             0.3       0.1       0.1       0.3       0.2       0.0
 2 C  dxz             0.0       0.0       0.1       0.0       0.0       0.2
 2 C  dx2y2           0.0       0.0       0.2       0.0       0.2       0.1
 2 C  dxy             0.0       0.0       0.0       0.1       0.2       0.0
 3 I  s               0.3       1.6       0.0       0.2       1.3       0.0
 3 I  pz              1.7       0.0       0.0       1.5       1.3      52.8
 3 I  px              0.6       8.0       0.6       1.7      22.8      18.6
 3 I  py              0.3       6.7       0.8       0.3       6.1      23.0
 3 I  dxz             0.1       0.0       0.0       0.1       0.0       0.0
 3 I  dx2y2           0.0       0.0       0.2       0.0       0.0       0.0
 3 I  dxy             0.0       0.4       0.0       0.0       0.1       0.0
 4 H  s               0.4      17.6       1.4       0.1       5.1       0.2
 5 H  s               2.9       0.2      18.1       2.1       0.1       0.0
 6 H  s               9.6       3.6       0.2      12.4       2.2       0.0
 7 H  s               2.3       0.0       0.0      14.6       5.4       0.2
 8 H  s               0.1       2.5       0.2       0.6      13.5       0.3
 9 H  s               1.3       0.0       7.1       2.1       1.0       0.1
10 H  s              11.1       2.4       0.1       3.5       2.4       0.8

                     24        25        26        27        28        29   
                  -0.21709  -0.05390   0.03562   0.07310   0.07815   0.09861
                   2.00000   0.00000   0.00000   0.00000   0.00000   0.00000
                  --------  --------  --------  --------  --------  --------
 0 C  s               0.0       0.0       7.4       0.2      16.0       1.0
 0 C  pz              0.0       0.1       0.5       6.7       0.1       0.8
 0 C  px              0.2       0.0       0.9       0.2       0.3       2.6
 0 C  py              0.6       0.2       0.9       0.1       2.3       0.8
 0 C  dz2             0.0       0.0       0.0       0.2       0.0       0.4
 0 C  dxz             0.0       0.0       0.0       0.2       0.0       0.1
 0 C  dyz             0.0       0.0       0.2       0.1       0.0       0.0
 0 C  dx2y2           0.0       0.0       0.2       0.0       0.1       0.2
 0 C  dxy             0.0       0.0       0.0       0.0       0.2       0.1
 1 C  s               0.0       0.1       8.8       2.7       0.0       5.4
 1 C  pz              0.0       0.3       0.6       4.2       1.1       0.8
 1 C  px              0.0       0.4       1.7       0.1       1.5       4.4
 1 C  py              0.1       0.0       1.6       0.0       0.3       3.4
 1 C  dz2             0.0       0.1       0.0       0.9       0.1       0.3
 1 C  dyz             0.0       0.1       0.0       0.0       0.5       0.2
 1 C  dx2y2           0.0       0.4       0.1       0.0       0.1       0.1
 1 C  dxy             0.0       0.1       0.3       0.1       0.1       0.0
 2 C  s               0.0       9.6       4.5       0.9       6.3       4.2
 2 C  pz              0.7       0.7       1.4      10.3       0.0       0.1
 2 C  px              0.1      21.2       0.2       0.4       0.0       1.3
 2 C  py              0.7       8.5       4.3       1.1       4.7       4.6
 2 C  dz2             0.1       0.1       0.0       0.8       0.1       0.0
 2 C  dxz             0.0       0.0       0.2       0.0       0.1       0.1
 2 C  dyz             0.0       0.0       0.1       0.1       0.0       0.3
 2 C  dx2y2           0.2       0.0       0.4       0.1       0.2       0.0
 2 C  dxy             0.0       0.2       0.0       0.0       0.0       0.3
 3 I  s               0.0       2.8       1.8       0.0       0.1       2.9
 3 I  pz             39.1       1.0       0.0       0.6       0.1       0.1
 3 I  px              8.0      26.9       1.2       0.0       0.1       0.4
 3 I  py             46.6      10.0       0.0       0.0       1.2       0.1
 3 I  dz2             0.0       2.7       0.0       0.0       0.2       0.0
 3 I  dxz             0.0       0.8       0.1       0.2       0.1       0.3
 3 I  dyz             0.0       0.2       0.2       0.0       0.0       0.0
 3 I  dx2y2           0.0       1.8       0.4       0.1       0.0       0.3
 3 I  dxy             0.0       6.9       0.1       0.1       0.1       0.3
 4 H  s               0.3       0.1       2.0       0.0      15.9      11.4
 5 H  s               0.0       0.0       8.4       3.8      11.5       0.1
 6 H  s               0.0       0.1       7.9      14.1       8.2       1.0
 7 H  s               0.1       0.9       5.5      17.9       2.3       0.1
 8 H  s               0.0       1.3      18.4       0.5       3.0      31.9
 9 H  s               1.9       0.9      10.8       5.6      20.0      15.6
10 H  s               1.0       1.0       8.7      27.4       2.9       3.9

                     30        31        32        33        34        35   
                   0.10585   0.12362   0.13194   0.15836   0.19575   0.27488
                   0.00000   0.00000   0.00000   0.00000   0.00000   0.00000
                  --------  --------  --------  --------  --------  --------
 0 C  s               4.2       0.4       0.0       0.8       1.7       0.0
 0 C  pz              0.7       3.4      10.5       0.1       6.6       0.0
 0 C  px              3.0      16.3       2.8       1.7       2.1       1.7
 0 C  py              0.8       0.2       4.0       8.2      18.6       1.8
 0 C  dz2             0.0       0.0       0.9       0.2       0.5       0.2
 0 C  dxz             0.0       1.1       0.0       0.7       0.0       0.0
 0 C  dyz             0.5       0.1       0.0       0.0       2.6       0.1
 0 C  dx2y2           0.0       0.0       0.3       0.9       2.4       0.0
 0 C  dxy             0.6       0.2       0.0       1.3       0.3       0.4
 1 C  s               6.9       0.1       0.5       7.9       1.0       0.2
 1 C  pz              6.1       0.5       1.0      13.6       0.7       0.3
 1 C  px              0.7       0.4       6.6       9.2       7.5       1.4
 1 C  py              1.2       2.4       0.4       0.8      21.5       1.5
 1 C  dz2             0.0       0.0       0.1       0.3       0.2       0.2
 1 C  dxz             0.6       0.0       0.8       1.9       0.5       0.2
 1 C  dyz             0.0       0.6       0.3       0.3       2.0       0.2
 1 C  dx2y2           0.0       0.2       0.1       0.1       3.2       0.0
 1 C  dxy             0.6       0.0       0.1       2.2       0.0       0.3
 2 C  s               0.1       0.7       0.7       3.6       0.4       1.1
 2 C  pz              4.9       2.7       0.5       3.9       3.5       0.1
 2 C  px              0.5       0.7       1.9       9.7       3.5       0.8
 2 C  py              0.6       1.9       2.7       5.8       0.6       2.7
 2 C  dz2             0.3       0.1       0.2       0.6       0.0       0.0
 2 C  dxz             0.2       0.0       0.3       1.1       2.2       0.0
 2 C  dyz             0.0       0.0       0.8       1.4       0.0       0.0
 2 C  dx2y2           0.4       0.1       0.0       1.1       0.4       0.3
 2 C  dxy             0.1       0.0       0.1       2.0       0.0       0.0
 3 I  s               0.6       0.5       1.8       0.2       1.1      60.7
 3 I  pz              0.3       0.3       0.1       0.4       0.2       0.0
 3 I  px              0.2       0.0       0.4       0.1       0.1       5.5
 3 I  py              0.2       0.3       0.4       0.8       0.4       0.1
 3 I  dz2             0.1       0.5       0.0       0.2       0.0       3.5
 3 I  dxz             1.3       0.0       0.3       0.4       2.9       1.0
 3 I  dyz             0.1       0.0       0.2       3.0       2.0       0.5
 3 I  dx2y2           0.0       0.2       0.2       3.8       0.9       0.0
 3 I  dxy             0.9       1.0       1.0       1.3       0.2       7.4
 4 H  s               0.9      15.1      13.2       2.3       0.4       3.4
 5 H  s              14.0      29.2       1.5       0.1       1.5       0.4
 6 H  s               2.1       3.5      25.8       1.8       3.8       0.3
 7 H  s              31.3       0.9       6.0       3.0       0.4       0.7
 8 H  s               0.2       4.7       7.9       1.8       0.1       1.5
 9 H  s               7.4       2.9       3.2       0.5       1.0       0.9
10 H  s               7.4       8.6       2.5       1.0       3.0       0.4

                     36        37        38        39        40        41   
                   0.31362   0.32440   0.34359   0.36341   0.38184   0.39316
                   0.00000   0.00000   0.00000   0.00000   0.00000   0.00000
                  --------  --------  --------  --------  --------  --------
 0 C  s               0.7       0.2       0.1       0.1       0.2       0.2
 0 C  pz              0.6       0.1       0.0      12.0       1.2       1.4
 0 C  px              4.3       1.0       0.1       0.5       2.9       3.2
 0 C  py              1.4       0.1       1.3       0.2       5.6       1.6
 0 C  dz2             0.1       0.0       0.0       2.1       0.5       0.5
 0 C  dxz             0.4       0.0       0.0       0.9       0.2       0.1
 0 C  dyz             0.0       0.2       0.1       0.0       0.3       0.0
 0 C  dx2y2           0.0       0.3       0.1       0.0       0.4       0.2
 0 C  dxy             0.4       0.4       0.4       0.6       0.0       0.5
 1 C  s               0.1       0.6       0.2       0.5       0.7       0.0
 1 C  pz              0.9       0.5       1.7       1.0       0.3       0.7
 1 C  px              0.8      10.0       2.9       0.6       1.0       0.2
 1 C  py              0.2       0.8       0.9       4.7       5.0       1.7
 1 C  dz2             0.6       0.2       0.4       0.7       0.3       0.1
 1 C  dxz             0.0       1.1       0.8       0.4       0.2       0.0
 1 C  dyz             0.0       0.1       0.0       0.7       0.7       0.3
 1 C  dx2y2           0.1       0.0       0.8       0.1       0.2       0.1
 1 C  dxy             0.2       2.4       0.1       0.1       0.1       1.0
 2 C  s               0.0       1.4       4.4       0.8       0.1       0.5
 2 C  pz             10.0       2.4       0.4       4.2       1.3       0.1
 2 C  px              0.7       5.4       3.4       1.6       0.5       0.4
 2 C  py              3.6       1.1       1.2       4.5       1.1       0.0
 2 C  dz2             2.4       0.3       0.5       0.0       1.0       0.0
 2 C  dxz             0.5       0.1       0.2       0.1       0.0       0.3
 2 C  dyz             0.6       0.0       0.1       0.4       0.0       0.0
 2 C  dx2y2           0.8       1.0       0.0       0.0       0.0       0.0
 2 C  dxy             0.1       0.1       1.4       0.3       0.1       0.0
 3 I  s               0.8       3.2       0.1       0.1       0.0       0.0
 3 I  pz              0.3       0.4       1.5      11.6      32.1      31.4
 3 I  px              0.8       9.0      36.4       1.0       0.0      11.9
 3 I  py              0.2       6.9      13.1       3.7       5.4      23.0
 3 I  dz2             1.0       1.8       7.4       0.2      22.2       2.5
 3 I  dxz            30.0      11.3       0.0       0.9       4.0       0.6
 3 I  dyz             5.0       0.7       0.1      26.7       2.4       3.4
 3 I  dx2y2           5.3      18.4      14.7       3.5       3.8       5.5
 3 I  dxy             5.9       6.8       2.2       0.6       0.6       0.2
 4 H  s               0.4       0.8       0.6       0.0       0.4       1.6
 5 H  s               2.6       1.6       0.3       3.7       0.9       1.4
 6 H  s               0.5       0.1       0.2       7.5       0.8       1.3
 7 H  s               1.6       0.0       1.4       1.6       0.9       0.4
 8 H  s               0.1       6.2       0.2       0.3       0.1       2.9
 9 H  s               7.8       1.4       0.1       0.8       0.3       0.2
10 H  s               7.9       1.5       0.4       0.8       2.3       0.4

                     42        43        44        45        46        47   
                   0.39708   0.40524   0.43343   0.46633   0.51189   0.54376
                   0.00000   0.00000   0.00000   0.00000   0.00000   0.00000
                  --------  --------  --------  --------  --------  --------
 0 C  s               0.1       1.2       0.5       0.6       1.6       0.2
 0 C  pz              0.0       0.4      15.6       0.0       1.3       7.2
 0 C  px              0.9       4.8       0.3       0.5      15.7       4.5
 0 C  py              4.2      18.9       0.0       4.5       1.3       1.1
 0 C  dz2             0.2       1.8       2.7       0.0       0.6       0.1
 0 C  dxz             0.0       0.0       1.0       0.0       2.4       1.3
 0 C  dyz             0.3       0.8       0.4       0.0       0.6       0.7
 0 C  dx2y2           0.0       0.8       0.0       0.1       0.2       0.3
 0 C  dxy             0.5       2.5       0.1       0.2       1.0       0.0
 1 C  s               0.1       0.7       0.1       1.4       0.6       3.4
 1 C  pz              3.4       8.7       0.4       5.0       2.1      13.8
 1 C  px              0.5       0.3       1.3      10.4       5.0       3.4
 1 C  py              1.0       4.4       4.2       2.1       0.4       5.2
 1 C  dz2             0.9       2.0       0.1       0.5       0.6       0.0
 1 C  dxz             0.3       0.6       0.0       0.1       0.2       1.6
 1 C  dyz             0.1       0.4       1.0       0.2       0.0       0.0
 1 C  dx2y2           0.1       0.8       0.0       1.0       0.0       0.0
 1 C  dxy             0.0       0.0       0.2       0.2       0.4       0.4
 2 C  s               0.0       0.1       0.2       2.2       1.0       0.8
 2 C  pz              0.1       0.5       1.0       1.1       0.5       5.1
 2 C  px              0.1       0.2       0.1      17.9       0.4       0.8
 2 C  py              0.2       0.4       2.1       8.7       1.6       3.5
 2 C  dz2             0.0       0.4       0.4       1.1       0.3       1.1
 2 C  dxz             0.2       0.3       0.2       0.6       0.6       0.8
 2 C  dyz             0.0       0.0       0.4       0.1       0.5       3.0
 2 C  dx2y2           0.2       0.1       0.0       0.4       0.0       0.5
 2 C  dxy             0.1       0.0       0.0       3.7       0.2       0.0
 3 I  s               0.1       0.7       0.1       5.6       0.7       0.2
 3 I  pz              7.5       0.7       5.1       0.3       1.0       3.3
 3 I  px              4.9       0.6       0.4       7.8       3.4       1.0
 3 I  py             24.0       1.5       0.1       1.9      12.1       0.2
 3 I  dz2            22.3      11.8       4.5       0.0       2.8       0.6
 3 I  dxz             3.5       2.7       5.9       0.6       5.5       6.6
 3 I  dyz             9.8       0.3      31.3       0.0       1.5       3.1
 3 I  dx2y2           4.0       2.1       3.8       0.6       4.1       6.8
 3 I  dxy             4.1       3.3       3.6       0.4      15.3       1.2
 4 H  s               2.0      11.6       0.5       0.8       3.4       0.1
 5 H  s               0.0       0.3       1.4       0.3       8.0       0.7
 6 H  s               0.5       2.4       8.7       0.1       0.3       0.2
 7 H  s               2.8       7.5       0.1       2.6       0.6       1.0
 8 H  s               0.4       0.6       0.7       1.3       1.1       7.8
 9 H  s               0.4       1.6       0.1       7.0       0.8       5.1
10 H  s               0.1       1.2       1.3       8.0       0.5       2.9

                     48        49        50        51        52        53   
                   0.57145   0.58895   0.61863   0.63721   0.64639   0.65536
                   0.00000   0.00000   0.00000   0.00000   0.00000   0.00000
                  --------  --------  --------  --------  --------  --------
 0 C  s               2.9      11.8       7.1       1.2       0.2       1.4
 0 C  pz              9.0       0.4       4.7       2.0       1.7       0.1
 0 C  px              1.6       0.2       0.7       9.7       0.5       1.9
 0 C  py             14.1       4.0       0.0       0.1       0.1       0.7
 0 C  dz2             0.1       0.2       0.2       0.0       0.4       0.0
 0 C  dxz             0.2       0.1       0.0       0.6       0.2       0.1
 0 C  dyz             0.0       0.1       0.0       0.3       0.0       0.1
 0 C  dx2y2           0.7       0.4       0.1       0.3       0.1       0.0
 0 C  dxy             0.0       0.0       0.0       0.8       0.1       0.5
 1 C  s              12.0       1.3       2.4       0.2       4.1      19.2
 1 C  pz              0.7       1.3       2.7       1.4      17.0       4.9
 1 C  px              0.1       8.8       0.9       0.5       2.0      20.1
 1 C  py             10.1      10.1       0.6       0.5      15.2       0.8
 1 C  dz2             0.2       0.5       0.0       0.2       1.1       0.0
 1 C  dxz             0.0       0.0       0.0       0.0       0.1       0.2
 1 C  dyz             0.0       0.2       0.0       0.1       0.1       0.1
 1 C  dx2y2           0.0       0.2       0.0       0.1       0.0       0.0
 1 C  dxy             0.1       0.3       0.1       0.0       0.0       0.5
 2 C  s               0.2       1.7      27.7      11.0       1.8       0.3
 2 C  pz              4.1       0.4       9.1      13.5       1.1       3.0
 2 C  px             20.5      10.8       9.7       1.3       2.2       8.0
 2 C  py              1.2       5.5       8.1       2.2       6.2       4.6
 2 C  dz2             0.0       0.2       0.5       0.9       0.6       0.0
 2 C  dxz             0.0       0.0       0.1       0.0       0.1       0.0
 2 C  dyz             0.2       0.2       0.0       0.4       0.1       0.2
 2 C  dx2y2           0.2       0.1       0.1       0.3       0.4       0.5
 2 C  dxy             0.0       0.6       0.0       0.0       0.4       0.5
 3 I  s               0.1       0.6       0.6       1.7       0.6       0.7
 3 I  pz              0.1       1.2       0.3       0.0       1.4       0.0
 3 I  px              0.3       1.5       0.1       2.2       0.7       0.3
 3 I  py              0.1       1.5       0.3       1.4       0.2       0.1
 3 I  dz2             0.2       2.8       0.4       3.1       0.3       0.0
 3 I  dxz             0.2       5.2       0.1       0.4       2.6       0.4
 3 I  dyz             1.1       0.4       0.1       0.3       2.0       0.8
 3 I  dx2y2           0.6       1.2       0.9       0.1       0.2       0.2
 3 I  dxy             1.8      10.6       0.0       3.4       2.4       0.0
 4 H  s               1.4       3.0       0.1       1.2       1.8       0.1
 5 H  s               0.1       2.6       0.0      15.9       0.4       7.1
 6 H  s               2.3       1.6       3.5       0.2       8.1       1.6
 7 H  s               4.2       0.7       0.3       4.1      14.0       2.0
 8 H  s               9.1       1.2       0.2       0.5       0.2      12.1
 9 H  s               0.3       6.6       2.7      13.2       3.8       6.6
10 H  s               0.2       0.2      15.5       4.9       5.4       0.2

                     54        55        56        57        58        59   
                   0.67438   0.67504   0.68980   0.69174   0.72392   0.78855
                   0.00000   0.00000   0.00000   0.00000   0.00000   0.00000
                  --------  --------  --------  --------  --------  --------
 0 C  s              24.1       7.8       0.8       6.1       8.5       3.7
 0 C  pz             12.4       7.7      18.5       5.4       3.0       0.2
 0 C  px             10.7       1.7      14.7       8.4       1.5       3.9
 0 C  py              4.8      11.1       0.3      15.0       3.8       1.8
 0 C  dz2             0.4       0.1       0.5       1.6       0.1       0.6
 0 C  dxz             0.1       0.2       0.5       0.0       0.0       2.2
 0 C  dyz             0.0       0.1       0.2       0.0       0.4       0.3
 0 C  dx2y2           0.0       0.4       0.3       0.0       1.5       1.2
 0 C  dxy             0.0       0.0       0.2       1.3       0.2       0.0
 1 C  s               0.3       0.9       1.8       0.5      11.5       0.8
 1 C  pz              2.9       7.0       9.1       2.9       6.8       7.8
 1 C  px              4.0       3.7       0.8       0.8       2.0       9.1
 1 C  py              1.2      12.1       0.1       2.1      10.9       0.3
 1 C  dz2             0.1       1.6       0.4       0.3       1.1       1.5
 1 C  dxz             0.0       0.2       0.2       0.1       0.2       0.6
 1 C  dyz             0.0       0.0       0.1       0.0       0.3       0.3
 1 C  dx2y2           0.0       0.1       0.0       0.0       0.2       0.3
 1 C  dxy             0.0       0.5       0.0       0.0       0.6       2.2
 2 C  s               2.5       0.5       2.4       0.2       2.8       3.6
 2 C  pz              6.8       1.3       9.5       5.2       7.6      11.5
 2 C  px              1.5       0.1       0.2       0.1       4.6       7.8
 2 C  py              2.4      11.1       7.3       1.1       1.2       4.5
 2 C  dz2             0.5       0.1       0.1       0.1       0.2       2.5
 2 C  dxz             0.0       0.0       0.1       0.2       0.2       0.1
 2 C  dyz             0.0       0.7       0.0       0.2       0.5       0.3
 2 C  dx2y2           0.0       0.1       0.1       0.1       0.0       2.9
 2 C  dxy             0.0       0.0       0.2       0.0       0.4       0.1
 3 I  s               0.0       0.7       0.2       0.0       0.4       0.3
 3 I  pz              0.1       0.0       0.0       0.1       0.4       0.1
 3 I  px              0.0       1.6       0.1       0.6       1.3       2.1
 3 I  py              0.3       0.1       0.3       1.0       0.1       0.8
 3 I  dz2             0.2       0.2       0.3       0.0       0.0       0.1
 3 I  dxz             0.1       0.1       1.0       0.9       4.7       1.4
 3 I  dyz             0.1       0.3       0.0       0.9       2.1       0.6
 3 I  dx2y2           0.1       0.3       0.1       0.0       0.7       7.3
 3 I  dxy             0.5       0.5       0.0       3.3       0.2       4.0
 4 H  s               0.1       1.8       1.0      30.2       9.5       1.2
 5 H  s               0.8       1.6      12.6       0.4       3.5       3.5
 6 H  s              11.5       0.4       8.0       4.7       2.1       2.8
 7 H  s               2.4       9.9       1.8       3.8       0.7       0.9
 8 H  s               0.1      12.0       0.3       2.0       3.4       1.5
 9 H  s               0.2       0.4       3.6       0.0       0.2       2.1
10 H  s               8.6       1.0       2.3       0.2       0.8       1.2

                     60        61        62        63        64        65   
                   0.83575   0.98559   1.02498   1.36873   1.41160   1.62929
                   0.00000   0.00000   0.00000   0.00000   0.00000   0.00000
                  --------  --------  --------  --------  --------  --------
 0 C  s               3.3      11.9      19.5       0.1       0.4       0.9
 0 C  pz              1.4       0.6       1.2       0.5       0.2       0.2
 0 C  px              5.5       0.5       5.3       0.1       0.3       0.9
 0 C  py              2.3       0.0       1.7       0.1       0.1       0.7
 0 C  dz2             0.0       0.1       0.0       0.3       2.1       7.4
 0 C  dxz             0.4       0.0       0.8       2.9       7.1       9.7
 0 C  dyz             0.1       0.1       0.2      10.3       7.0       7.3
 0 C  dx2y2           0.5       0.0       0.0      11.1       1.7       1.1
 0 C  dxy             0.0       0.2       0.0       0.5       5.4      13.2
 1 C  s               4.8      44.0       0.1       0.1       0.5       0.0
 1 C  pz              0.2       0.8       0.1       0.1       0.2       0.0
 1 C  px              9.3       0.7       0.7       0.0       0.2       2.1
 1 C  py              4.7       0.6       0.1       0.0       0.1       2.4
 1 C  dz2             0.7       0.0       0.0       0.0       7.3       0.1
 1 C  dxz             0.2       0.2       0.2       2.1      16.1       2.0
 1 C  dyz             0.0       0.2       0.2      16.8       7.5       3.7
 1 C  dx2y2           0.6       0.0       0.3      21.8       0.4       4.9
 1 C  dxy             0.1       0.1       0.3       0.1      10.7       0.2
 2 C  s               4.7      11.8      29.7       0.2       0.2       0.9
 2 C  pz              4.6       0.1       1.4       0.2       1.4       0.1
 2 C  px              0.5       0.9       0.0       0.7       0.1       0.6
 2 C  py              2.7       0.5      12.9       0.1       1.2       1.0
 2 C  dz2             1.1       0.0       0.5       0.7       1.1       3.7
 2 C  dxz             0.0       0.1       0.0       0.2      17.9       8.5
 2 C  dyz             0.8       0.0       0.1      13.3       2.0       8.0
 2 C  dx2y2           0.0       0.1       0.9      15.0       0.3       0.2
 2 C  dxy             0.4       0.2       0.0       0.1       5.5      19.4
 3 I  s              12.2       0.1       2.3       0.4       0.1       0.0
 3 I  pz              0.1       0.1       0.1       0.0       0.1       0.1
 3 I  px              6.8       0.4       1.4       0.1       0.1       0.0
 3 I  py              0.4       0.2       0.2       0.2       0.0       0.0
 3 I  dz2             6.6       0.0       0.1       0.1       0.0       0.0
 3 I  dxz             0.8       1.0       0.6       0.1       0.6       0.2
 3 I  dyz             0.0       0.1       0.1       0.0       0.2       0.0
 3 I  dx2y2           3.9       0.4       1.6       0.1       0.4       0.0
 3 I  dxy             4.7       0.7       1.2       0.7       0.1       0.0
 4 H  s               1.9       0.8       3.4       0.4       0.1       0.1
 5 H  s               1.5       2.1       1.0       0.1       0.6       0.0
 6 H  s               2.3       1.3       3.4       0.3       0.0       0.1
 7 H  s               1.2       8.0       0.1       0.0       0.1       0.0
 8 H  s               0.5       7.9       0.0       0.0       0.1       0.0
 9 H  s               5.8       2.2       2.5       0.0       0.7       0.0
10 H  s               2.3       1.2       5.9       0.1       0.3       0.1

                     66        67        68        69        70        71   
                   1.76732   1.79480   1.81900   1.89505   1.95861   2.00170
                   0.00000   0.00000   0.00000   0.00000   0.00000   0.00000
                  --------  --------  --------  --------  --------  --------
 0 C  s               0.1       0.1       1.2       0.1       0.1       0.0
 0 C  pz              0.2       0.1       1.7       0.3       0.2       1.9
 0 C  px              0.5       0.0       0.1       1.3       0.9       0.1
 0 C  py              0.2       0.3       1.1       0.8       0.4       0.4
 0 C  dz2             0.0       0.4       1.1       2.8       2.0      26.0
 0 C  dxz             4.7       0.8       0.7      10.0      19.7       6.6
 0 C  dyz             5.3       0.0      38.7       1.0       0.0       1.0
 0 C  dx2y2          16.6       5.5       2.5      13.0       5.8       6.4
 0 C  dxy             0.2       1.0       2.1       2.7       0.9       0.9
 1 C  s               0.1       1.0       0.9       0.5       1.8       0.0
 1 C  pz              3.2       2.7       1.8       0.2       0.6       0.0
 1 C  px              3.7       0.9       0.3       0.9       0.2       0.5
 1 C  py              2.8       0.3       1.6       0.5       0.1       0.2
 1 C  dz2             2.3       0.9       1.9       0.0       4.0       0.5
 1 C  dxz             0.3      22.6       0.2      13.7       0.4       0.0
 1 C  dyz             1.1       0.3      23.0       0.3       0.3       4.5
 1 C  dx2y2           0.0       4.7       5.9       9.6       0.0       5.6
 1 C  dxy             3.4       2.7       1.9       0.1      13.1       0.7
 2 C  s               0.1       0.6       0.1       0.4       0.3       0.1
 2 C  pz              0.6       1.1       0.0       1.9       0.4       0.0
 2 C  px              1.3       2.0       0.0       0.5       0.4       0.1
 2 C  py              0.8       0.4       0.1       0.3       2.2       0.1
 2 C  dz2             0.7       0.9       0.6      13.6       0.0       9.4
 2 C  dxz             0.2      37.2       2.7       3.4       0.5       0.0
 2 C  dyz            23.9       0.3       0.1       7.2      19.6       0.1
 2 C  dx2y2          10.9       0.0       3.2       0.0      16.9      15.0
 2 C  dxy            10.1       8.6       2.1       7.3       1.6       9.0
 3 I  s               0.2       0.5       0.0       0.3       0.0       0.3
 3 I  px              0.2       0.4       0.0       0.4       0.0       0.3
 3 I  py              0.0       0.1       0.0       0.1       0.0       0.1
 3 I  dz2             0.1       0.2       0.0       0.2       0.0       0.1
 3 I  dx2y2           0.3       0.2       0.0       0.3       0.0       0.1
 3 I  dxy             0.0       0.4       0.1       0.2       0.0       0.4
 4 H  s               0.1       0.0       0.5       1.9       0.1       1.5
 5 H  s               0.0       0.2       0.0       0.3       2.0       1.3
 6 H  s               0.0       0.0       1.2       0.2       0.0       4.9
 7 H  s               1.6       2.1       1.4       0.1       0.2       0.1
 8 H  s               3.6       0.1       0.2       0.5       0.4       0.4
 9 H  s               0.2       0.1       0.4       0.1       4.3       0.7
10 H  s               0.4       0.2       0.2       3.2       0.2       0.8

                     72        73        74        75        76        77   
                   2.07999   2.16759   2.20458   2.27130   2.44131   2.55116
                   0.00000   0.00000   0.00000   0.00000   0.00000   0.00000
                  --------  --------  --------  --------  --------  --------
 0 C  s               0.0       0.0       0.0       0.2       0.4       1.4
 0 C  pz              0.2       0.0       0.3       0.3       0.4       0.3
 0 C  px              1.9       0.0       0.0       0.1       0.0       0.5
 0 C  py              0.0       0.0       0.0       0.4       1.1       2.5
 0 C  dz2             3.0       0.2      32.3       3.7       0.0       2.5
 0 C  dxz            13.4       0.6       5.7       2.1       0.3       1.3
 0 C  dyz             0.1       1.3       1.6       0.0      12.7       4.5
 0 C  dx2y2           5.0       2.1       1.2       0.0       7.9       7.6
 0 C  dxy            20.8       0.4       4.8      28.3       0.1       4.6
 1 C  s               0.1       0.0       0.0       0.8       2.7       0.0
 1 C  pz              0.1       0.5       0.0       1.3       0.8       0.0
 1 C  px              0.1       0.3       0.1       0.9       0.3       2.3
 1 C  py              0.2       0.2       0.1       0.7       0.2       3.5
 1 C  dz2             0.0      52.4       0.5       1.4      10.9       0.2
 1 C  dxz             0.0       0.9       1.7      15.4       1.2      11.2
 1 C  dyz             0.0       0.8      11.4       6.6       0.0      13.9
 1 C  dx2y2           0.3       1.6      13.7       0.8       1.1      19.2
 1 C  dxy             0.0      17.1       1.6       0.0      33.0       0.2
 2 C  s               0.1       0.0       0.0       0.3       0.6       1.4
 2 C  pz              1.8       0.1       0.0       0.4       0.4       0.5
 2 C  px              0.1       0.0       0.0       0.2       1.0       1.8
 2 C  py              0.7       0.0       0.2       0.2       0.2       0.9
 2 C  dz2            24.9       0.3      10.0      13.7       0.7       1.3
 2 C  dxz             0.7       1.0       0.0       0.3      12.8       4.9
 2 C  dyz             3.6       2.7       2.4       0.2       1.3       3.2
 2 C  dx2y2           6.4       6.2       2.4       1.6       6.8       2.2
 2 C  dxy             0.9       0.0       2.7      12.7       0.3       7.1
 3 I  s               0.0       0.0       0.0       0.1       0.0       0.1
 3 I  dx2y2           0.0       0.1       0.0       0.1       0.0       0.0
 3 I  dxy             0.0       0.0       0.1       0.0       0.0       0.0
 4 H  s               3.4       0.0       1.7       1.5       0.0       0.1
 5 H  s               4.4       0.0       0.2       1.5       0.4       0.3
 6 H  s               0.0       0.0       3.6       0.6       0.0       0.1
 7 H  s               0.0       5.6       0.0       0.1       0.9       0.0
 8 H  s               0.0       5.1       0.2       0.5       0.8       0.0
 9 H  s               3.6       0.0       0.1       1.2       0.6       0.2
10 H  s               4.1       0.0       0.9       1.6       0.0       0.1

                     78        79        80        81   
                  18.45562  18.50087  18.71923  55.73304
                   0.00000   0.00000   0.00000   0.00000
                  --------  --------  --------  --------
 2 C  s               0.0       0.0       0.1       0.0
 3 I  s               0.0       0.0       0.0     100.0
 3 I  pz             98.4       0.7       0.9       0.0
 3 I  px              0.3      12.3      87.1       0.0
 3 I  py              1.2      87.0      11.7       0.0


                      *****************************
                      * MAYER POPULATION ANALYSIS *
                      *****************************

  NA   - Mulliken gross atomic population
  ZA   - Total nuclear charge
  QA   - Mulliken gross atomic charge
  VA   - Mayer's total valence
  BVA  - Mayer's bonded valence
  FA   - Mayer's free valence

  ATOM       NA         ZA         QA         VA         BVA        FA
  0 C      6.2880     6.0000    -0.2880     3.9987     3.9987     0.0000
  1 C      6.1708     6.0000    -0.1708     4.0951     4.0951    -0.0000
  2 C      6.3494     6.0000    -0.3494     3.9843     3.9843    -0.0000
  3 I     25.0486    25.0000    -0.0486     1.0940     1.0940     0.0000
  4 H      0.8766     1.0000     0.1234     0.9674     0.9674    -0.0000
  5 H      0.8906     1.0000     0.1094     0.9505     0.9505    -0.0000
  6 H      0.8981     1.0000     0.1019     0.9564     0.9564     0.0000
  7 H      0.8884     1.0000     0.1116     0.9471     0.9471    -0.0000
  8 H      0.8964     1.0000     0.1036     0.9426     0.9426    -0.0000
  9 H      0.8447     1.0000     0.1553     0.9216     0.9216    -0.0000
 10 H      0.8484     1.0000     0.1516     0.9262     0.9262     0.0000

  Mayer bond orders larger than 0.100000
B(  0-C ,  1-C ) :   1.1493 B(  0-C ,  4-H ) :   0.9457 B(  0-C ,  5-H ) :   0.9524 
B(  0-C ,  6-H ) :   0.9549 B(  1-C ,  2-C ) :   1.1048 B(  1-C ,  7-H ) :   0.9270 
B(  1-C ,  8-H ) :   0.9078 B(  2-C ,  3-I ) :   1.0352 B(  2-C ,  9-H ) :   0.9243 
B(  2-C , 10-H ) :   0.9214 

-------
TIMINGS
-------

Total SCF time: 0 days 0 hours 0 min 1 sec 

Total time                  ....       1.006 sec
Sum of individual times     ....       0.988 sec  ( 98.2%)

SCF preparation             ....       0.026 sec  (  2.5%)
Fock matrix formation       ....       0.903 sec  ( 89.8%)
  Startup                   ....       0.001 sec  (  0.1% of F)
  Split-RI-J                ....       0.332 sec  ( 36.8% of F)
  XC integration            ....       0.563 sec  ( 62.4% of F)
    XC Preparation          ....       0.000 sec  (  0.0% of XC)
    Basis function eval.    ....       0.253 sec  ( 45.0% of XC)
    Density eval.           ....       0.102 sec  ( 18.1% of XC)
    XC-Functional eval.     ....       0.062 sec  ( 11.1% of XC)
    XC-Potential eval.      ....       0.108 sec  ( 19.1% of XC)
Diagonalization             ....       0.000 sec  (  0.0%)
Density matrix formation    ....       0.003 sec  (  0.3%)
Total Energy calculation    ....       0.000 sec  (  0.0%)
Population analysis         ....       0.016 sec  (  1.6%)
Orbital Transformation      ....       0.002 sec  (  0.2%)
Orbital Orthonormalization  ....       0.000 sec  (  0.0%)
DIIS solution               ....       0.009 sec  (  0.9%)
  MO trafo                  ....       0.000 sec  (  0.0 % of DIIS)
  Orb grad                  ....       0.000 sec  (  0.0 % of DIIS)
  Energy W gradient         ....       0.000 sec  (  0.0 % of DIIS)
  DIIS error                ....       0.001 sec  (  6.4 % of DIIS)
  DIIS work                 ....       0.007 sec  ( 82.2 % of DIIS)
  Form Q                    ....       0.000 sec  (  0.0 % of DIIS)
  Form QpQm                 ....       0.000 sec  (  0.0 % of DIIS)
  Exp/Cayley                ....       0.000 sec  (  0.0 % of DIIS)
  Orb update                ....       0.000 sec  (  0.0 % of DIIS)
  Wake-sleep                ....       0.000 sec  (  2.3 % of DIIS)
SOSCF solution              ....       0.028 sec  (  2.8%)
  MO trafo                  ....       0.027 sec  ( 97.4 % of SOSCF)
  Orb grad                  ....       0.000 sec  (  0.1 % of SOSCF)
  Rot update                ....       0.000 sec  (  0.4 % of SOSCF)
  Step                      ....       0.001 sec  (  2.0 % of SOSCF)
Finished LeanSCF after   1.0 sec

Maximum memory used throughout the entire LEANSCF-calculation: 8.5 MB


-------------------------------------------------------------------------------
                          DFT DISPERSION CORRECTION                            
                                                                               
                                DFTD4 V3.4.0                                   
-------------------------------------------------------------------------------
The PBE functional is recognized
Active option DFTDOPT                   ...         5   

-------------------------   ----------------
Dispersion correction           -0.008217122
-------------------------   ----------------

NOTIFICATION: Different basis set in ORCA and otool_gcp:
ORCA: 82  gCP: 88 
If you are NOT using ECPs, check your basis set inputs!
------------------   -----------------
gCP correction             0.046879381
------------------   -----------------

-------------------------   --------------------
FINAL SINGLE POINT ENERGY      -415.905939051348
-------------------------   --------------------


------------------------------------------------------------------------------
                              ORCA PROPERTY CALCULATIONS
------------------------------------------------------------------------------

GBWName                                 ... sp.gbw
Number of atoms                         ...     11
Number of basis functions               ...     82
Max core memory                         ...   1024 MB

Electric properties:
Dipole moment                           ... YES
Quadrupole moment                       ...  NO
Static polarizability (Dipole/Dipole)   ...  NO
Static polarizability (Dipole/Quad.)    ...  NO
Static polarizability (Quad./Quad.)     ...  NO
Static polarizability (Velocity)        ...  NO

Atomic electric properties:
Dipole moment                           ...  NO
Quadrupole moment                       ...  NO
Static polarizability                   ...  NO

Choice of electric origin               ... Center of mass
Position of electric origin             ...    -0.000053     0.000004    -0.000001

General magnetic properties:
Magnetizability                         ...  NO

EPR properties:
g-Tensor (aka g-matrix)                 ...  NO
Zero-Field splitting spin-orbit         ...  NO
Zero-field splitting spin-spin          ...  NO
Hyperfine couplings                     ...  NO (   0 nuclei)
Quadrupole couplings                    ...  NO (   0 nuclei)
Contact density                         ...  NO (   0 nuclei)

NMR properties:
Chemical shifts                         ...  NO (   0 nuclei)
Spin-rotation constants                 ...  NO (   0 nuclei)
Spin-spin couplings                     ...  NO (   0 nuclei,    0 pairs)

Choice of magnetic origin               ... GIAO
Position of magnetic origin             ...     0.000000     0.000000     0.000000

Properties with geometric perturbations:
SCF Hessian                             ...  NO
IR spectrum                             ...  NO
VCD spectrum                            ...  NO
X-ray spectroscopy properties:
SCF XES/XAS/RIXS spectra                ...  NO


-------------
DIPOLE MOMENT
-------------

Method             : SCF
Type of density    : Electron Density
Multiplicity       :   1
Irrep              :   0
Energy             :  -415.9446013107127555 Eh
Relativity type    : 
Basis              : AO
                                X                 Y                 Z
Electronic contribution:     65.580995203      -5.109126362       1.327576324
Nuclear contribution   :    -66.246303313       5.402058484      -1.380314340
                        -----------------------------------------
Total Dipole Moment    :     -0.665308110       0.292932122      -0.052738017
                        -----------------------------------------
Magnitude (a.u.)       :      0.728852117
Magnitude (Debye)      :      1.852594853



--------------------
Rotational spectrum 
--------------------
 
Rotational constants in cm-1:             0.356302             0.059581             0.054083 
Rotational constants in MHz :         10681.672368          1786.201249          1621.365416 

Dipole components along the rotational axes: 
x,y,z [a.u.] :     0.665308     0.292933    -0.052738 
x,y,z [Debye]:     1.691077     0.744578    -0.134050 

 

Dipole moment calculation done in   0.0 sec 

Maximum memory used throughout the entire PROP-calculation: 5.8 MB

--------------------------------
SUGGESTED CITATIONS FOR THIS RUN
--------------------------------

Below you find a list of papers that are relevant to this ORCA run
We neither can nor want to force you to cite these papers, but we appreciate if you do
You receive ORCA, which is the product of decades of hard work by many enthusiastic individuals, for free
The only thing we kindly ask in return is that you cite our papers,
We deeply appreciate it, if you show your appreciation for ORCA by not just citing the generic ORCA reference.

Please note that relegating all ORCA citations to the supporting information does *not* help us.
SI sections are not indexed - citations you put there will not count into any citation statistics
But we need these citations in order to attract the funding resources that allow us to do what we are doing

Therefore, if you are a happy ORCA user, please consider citing a few of the papers listed below in the main body of your paper

In addition to the list printed below, the program has created the file sp.bibtex that contains the list in bibtex format
You can import this file easily into all common literature databanks and citation aid programs


List of essential papers. We consider these as the minimum necessary citations

  1. Neese,F.
     Software update: the ORCA program system, version 5.0
     WIRES Comput. Molec. Sci., 2022 12(1)e1606
     doi.org/10.1002/wcms.1606

List of papers to cite with high priority. The work reported in these papers was absolutely
necessary for this run to complete.
Our perspective: the developers of density functionals and basis sets usually get cited in chemistry papers
Good! But without the algorithms to do something with them, the functionals or basis sets would not do anything.
Hence, in our opinion, the algorithm design and method developments papers are equally worthy of getting cited

  1. Neese,F.
     An improvement of the resolution of the identity approximation for the formation of the Coulomb matrix
     J. Comp. Chem., 2003 24(14)1740-1747
     doi.org/10.1002/jcc.10318
  2. Neese,F.
     The SHARK Integral Generation and Digestion System
     J. Comp. Chem., 2022  1-16
     doi.org/10.1002/jcc.26942
  3. Caldeweyher,E.; Bannwarth,C.; Grimme,S.
     Extension of the D3 dispersion coefficient model
     J. Chem. Phys., 2017 147 034112
     doi.org/10.1063/1.4993215
  4. Caldeweyher,E.; Ehlert,S.; Hansen,A.; Neugebauer,H.; Spicher,S.; Bannwarth,C.; Grimme,S.
     A generally applicable atomic-charge dependent London dispersion correction
     J. Chem. Phys., 2019 150 154122
     doi.org/10.1063/1.5090222
  5. Caldeweyher,E.; Mewes,J.; Ehlert,S.; Grimme,S.
     Extension and evaluation of the D4 London-dispersion model for periodic systems
     Phys. Chem. Chem. Phys., 2020 22(16)8499-8512
     doi.org/10.1039/D0CP00502A
  6. Wittmann,L.; Gordiy,I.; Friede,M.; Helmich-Paris,B.; Grimme,S.; Hansen,A.; Bursch,M.
     Extension of the D3 and D4 London Dispersion Corrections to the full Actinides Series
     Phys. Chem. Chem. Phys., 2024 26(32)21379-21394
     doi.org/https://doi.org/10.1039/D4CP01514B 

List of suggested additional citations. These are papers that are important in the 'surrounding' of 
of this run, or papers that preceded the highly important papers. If you like your results we are grateful for a citation.

  1. Neese,F.
     The ORCA program system
     WIRES Comput. Molec. Sci., 2012 2(1)73-78
     doi.org/10.1002/wcms.81
  2. Neese,F.
     Software update: the ORCA program system, version 4.0
     WIRES Comput. Molec. Sci., 2018 8(1)1-6
     doi.org/10.1002/wcms.1327
  3. Neese,F.; Wennmohs,F.; Becker,U.; Riplinger,C.
     The ORCA quantum chemistry program package
     J. Chem. Phys., 2020 152 Art. No. L224108
     doi.org/10.1063/5.0004608

List of optional additional citations

  1. Neese,F.
     Approximate second-order SCF convergence for spin unrestricted wavefunctions
     Chem. Phys. Lett., 2000 325(1-3)93-98
     doi.org/10.1016/s0009-2614(00)00662-x

Timings for individual modules:

Sum of individual times          ...        2.015 sec (=   0.034 min)
Startup calculation              ...        0.195 sec (=   0.003 min)   9.7 %
SCF iterations                   ...        1.784 sec (=   0.030 min)  88.5 %
Property calculations            ...        0.036 sec (=   0.001 min)   1.8 %
                             ****ORCA TERMINATED NORMALLY****
TOTAL RUN TIME: 0 days 0 hours 0 minutes 2 seconds 104 msec
