
                                 *****************
                                 * O   R   C   A *
                                 *****************

                                            #,                                       
                                            ###                                      
                                            ####                                     
                                            #####                                    
                                            ######                                   
                                           ########,                                 
                                     ,,################,,,,,                         
                               ,,#################################,,                 
                          ,,##########################################,,             
                       ,#########################################, ''#####,          
                    ,#############################################,,   '####,        
                  ,##################################################,,,,####,       
                ,###########''''           ''''###############################       
              ,#####''   ,,,,##########,,,,          '''####'''          '####       
            ,##' ,,,,###########################,,,                        '##       
           ' ,,###''''                  '''############,,,                           
         ,,##''                                '''############,,,,        ,,,,,,###''
      ,#''                                            '''#######################'''  
     '                                                          ''''####''''         
             ,#######,   #######,   ,#######,      ##                                
            ,#'     '#,  ##    ##  ,#'     '#,    #''#        ,####,   ,####,        
            ##       ##  ##   ,#'  ##            #'  '#       #'       #'  '#        
            ##       ##  #######   ##           ,######,      #####,   #    #        
            '#,     ,#'  ##    ##  '#,     ,#' ,#      #,     #,   #   #,  ,#        
             '#######'   ##     ##  '#######'  #'      '#     '####' # '####'        



                #########################################################
                #                        -***-                          #
                #          Department of theory and spectroscopy        #
                #                                                       #
                #                      Frank Neese                      #
                #                                                       #
                #     Directorship, Architecture, Infrastructure        #
                #                    SHARK, DRIVERS                     #
                #        Core code/Algorithms in most modules           #
                #                                                       #
                #        Max Planck Institute fuer Kohlenforschung      #
                #                Kaiser Wilhelm Platz 1                 #
                #                 D-45470 Muelheim/Ruhr                 #
                #                      Germany                          #
                #                                                       #
                #                  All rights reserved                  #
                #                        -***-                          #
                #########################################################


                         Program Version 6.0.1  -  RELEASE   -


 With contributions from (in alphabetic order):
[Max-Planck-Institut fuer Kohlenforschung]                               
  Daniel Aravena         : Magnetic Suceptibility                        
  Michael Atanasov       : Ab Initio Ligand Field Theory (pilot matlab implementation)
  Alexander A. Auer      : GIAO ZORA, VPT2 properties, NMR spectrum      
  Ute Becker             : All parallelization in ORCA, NUMFREQ, NUMCALC 
  Giovanni Bistoni       : ED, misc. LED, open-shell LED, HFLD           
  Martin Brehm           : Molecular dynamics                            
  Dmytro Bykov           : pre 5.0 version of the SCF Hessian            
  Marcos Casanova-Páez   : Triplet and SCS-CIS(D). UHF-(DLPNO)-IP/EA/STEOM-CCSD. UHF-CVS-IP/STEOM-CCSD   
  Vijay G. Chilkuri      : MRCI spin determinant printing, contributions to CSF-ICE 
  Pauline Colinet        : FMM embedding                                 
  Dipayan Datta          : RHF DLPNO-CCSD density                        
  Achintya Kumar Dutta   : EOM-CC, STEOM-CC                              
  Nicolas Foglia         : Exact transition moments, OPA infrastructure, MCD improvements    
  Dmitry Ganyushin       : Spin-Orbit,Spin-Spin,Magnetic field MRCI      
  Miquel Garcia-Rates    : C-PCM and meta-GGA Hessian, CCSD/C-PCM, Gaussian charge scheme 
  Tiago L. C. Gouveia    : GS-ROHF, GS-ROCIS                             
  Yang Guo               : DLPNO-NEVPT2, F12-NEVPT2, CIM, IAO-localization        
  Andreas Hansen         : Spin unrestricted coupled pair/coupled cluster methods 
  Ingolf Harden          : AUTO-CI MPn and infrastructure                
  Benjamin Helmich-Paris : MC-RPA, TRAH-(SCF,CASSCF), AVAS, COSX integrals, SCF dyn. polar. 
  Lee Huntington         : MR-EOM, pCC                                   
  Robert Izsak           : Overlap fitted RIJCOSX, COSX-SCS-MP3, EOM     
  Riya Kayal             : Wick's Theorem for AUTO-CI, AUTO-CI UHF-CCSDT 
  Emily Kempfer          : AUTO-CI, RHF CISDT and CCSDT                  
  Christian Kollmar      : KDIIS, OOCD, Brueckner-CCSD(T), CCSD density, CASPT2, CASPT2-K, improved NEVPT2 
  Axel Koslowski         : Symmetry handling                             
  Simone Kossmann        : meta-GGA functionals, TD-DFT gradient, OOMP2, (MP2 Hessian; deprecated post 5.0) 
  Lucas Lang             : DCDCAS                                        
  Marvin Lechner         : AUTO-CI (C++ implementation), FIC-MRCC        
  Spencer Leger          : CASSCF response                               
  Dagmar Lenk            : GEPOL surface, SMD, ORCA-2-JSON               
  Dimitrios Liakos       : Extrapolation schemes; Compound Job, initial MDCI parallelization 
  Dimitrios Manganas     : Further ROCIS development; embedding schemes. LFT, Crystal Embedding 
  Dimitrios Pantazis     : SARC Basis sets                               
  Anastasios Papadopoulos: AUTO-CI, single reference methods and gradients 
  Taras Petrenko         : pre 6.0 DFT Hessian and TD-DFT gradient, (ASA, deprecated), ECA, 1-Electron XAS/XES, NRVS 
  Peter Pinski           : DLPNO-MP2, DLPNO-MP2 Gradient                 
  Christoph Reimann      : Effective Core Potentials                     
  Marius Retegan         : Local ZFS, SOC                                
  Christoph Riplinger    : Optimizer, TS searches, QM/MM, DLPNO-CCSD(T), (RO)-DLPNO pert. Triples 
  Michael Roemelt        : Original ROCIS implementation                 
  Masaaki Saitow         : Open-shell DLPNO-CCSD energy and density      
  Barbara Sandhoefer     : DKH picture change effects                    
  Kantharuban Sivalingam : CASSCF convergence/infrastructure, NEVPT2 and variants, FIC-MRCI 
  Bernardo de Souza      : ESD, SOC TD-DFT                               
  Georgi L. Stoychev     : AutoAux, RI-MP2 NMR, DLPNO-MP2 response, X2C  
  Van Anh Tran           : RI-MP2 g-tensors                              
  Willem Van den Heuvel  : Paramagnetic NMR                              
  Zikuan Wang            : NOTCH, Electric field optimization            
  Frank Wennmohs         : Technical directorship and infrastructure     
  Hang Xu                : AUTO-CI-Response properties                   
                                                                         
[FACCTs GmbH]                                                            
  Markus Bursch, Miquel Garcia-Rates, Christoph Riplinger, Bernardo de Souza, Georgi L. Stoychev 
                                                                 
  APM, Basis sets (HGBS, AHGBS, def-TZVP (Ac-Lr), def2-XVPD (La-Lu)), CI-OPT, improved COSX, DLPNO-Multilevel,           
  DOCKER, DRACO, updates on ESD, GOAT, IRC, LR-CPCM, MBIS, meta-GGA TD-DFT gradient, ML-optimized integration grids, 
  MM, NACMEs, nearIR, NEB, NEB-TS, NL-DFT gradient (VV10), 2- and 3-layer-ONIOM, interface openCOSMO-RS, QMMM,   
  Crystal-QMMM, SF, symmetry and pop. for TD-DFT, r2SCAN hybrids, SOLVATOR                                   
                                                                         
[Other institutions]                                                     
  V. Asgeirsson          : NEB                                           
  Christoph Bannwarth    : sTDA-DFT, sTD-DFT, PBEh-3c, B97-3c, D3        
  Sebastian Ehlert       : rSCAN, r2SCAN, r2SCAN-3c, D4, dhf basis sets  
  Marvin Friede          : D4 for Fr, Ra, Ac-Lr                          
  Lars Goerigk           : TD-DFT with DH, B97 family of functionals     
  Stefan Grimme          : VdW corrections, initial TS optimization, DFT functionals, gCP, sTDA/sTD-DF 
  Waldemar Hujo          : DFT-NL                                        
  H. Jonsson             : NEB                                           
  Holger Kruse           : gCP                                           
  Marcel Mueller         : wB97X-3c, vDZP basis set                      
  Hagen Neugebauer       : wr2SCAN                                       
  Tobias Risthaus        : range-separated hybrid DFT                    
  Lukas Wittmann         : regularized MP2, r2SCAN double-hybrids, wr2SCAN        
                                                                         
We gratefully acknowledge several colleagues who have allowed us to      
interface, adapt or use parts of their codes:                            
  Ed Valeev, F. Pavosevic, A. Kumar             : LibInt (2-el integral package), F12 methods 
  Garnet Chan, S. Sharma, J. Yang, R. Olivares  : DMRG                   
  Ulf Ekstrom                                   : XCFun DFT Library      
  Mihaly Kallay                                 : mrcc  (arbitrary order and MRCC methods)
  Frank Weinhold                                : gennbo (NPA and NBO analysis)           
  Simon Mueller                                 : openCOSMO-RS                            
  Christopher J. Cramer and Donald G. Truhlar   : smd solvation model                     
  S Lehtola, MJT Oliveira, MAL Marques          : LibXC Library                           
  Liviu Ungur et al                             : ANISO software                          


 Your calculation uses the libint2 library for the computation of 2-el integrals
 For citations please refer to: http://libint.valeyev.net

 Your ORCA version has been built with support for libXC version: 6.2.2
 For citations please refer to: https://libxc.gitlab.io

 This ORCA versions uses:
   CBLAS   interface :  Fast vector & matrix operations
   LAPACKE interface :  Fast linear algebra routines
   SCALAPACK package :  Parallel linear algebra routines
   Shared memory     :  Shared parallel matrices
   BLAS/LAPACK       :  OpenBLAS 0.3.27  USE64BITINT DYNAMIC_ARCH NO_AFFINITY Zen SINGLE_THREADED
        Core in use  :  Zen
   Copyright (c) 2011-2014, The OpenBLAS Project


Your calculation utilizes the geometrical counterpoise correction gCP
Please cite in your paper:
H.Kruse, S. Grimme J.Chem.Phys., 136, (2012), 154101 
   

Your calculation utilizes the DFT-NL dispersion correction.
Cite in your paper:
Vydrov, O. A.; Van Voorhis, T. J. Chem. Phys. 2010, 133, 244103
Hujo, W.; Grimme, S. J. Chem. Theory Comput. 2011, 7, 3866 
   

================================================================================

----- Orbital basis set information -----
Your calculation utilizes the basis: def2-TZVP
   F. Weigend and R. Ahlrichs, Phys. Chem. Chem. Phys. 7, 3297 (2005).

----- AuxJ basis set information -----
Your calculation utilizes the auxiliary basis: def2/J
   F. Weigend, Phys. Chem. Chem. Phys. 8, 1057 (2006).

================================================================================
                                        WARNINGS
                       Please study these warnings very carefully!
================================================================================

WARNING: Old DensityContainer found on disk!
         Will remove this file - 
         If you want to keep old densities, please start your calculation with a different basename. 


================================================================================
                                       INPUT FILE
================================================================================
NAME = sp.inp
|  1> ! wb97x-v def2-tzvp def2/J RIJCOSX DEFGRID2 scfconv7 GCP(DFT/TZ) printgap
|  2> %output
|  3>     printlevel normal
|  4> end
|  5> * xyz 0 1
|  6> C -2.5096854503276846 0.7516000011853021 -2.3862372400167316e-05
|  7> C -1.2250755219631024 -0.024284592417116436 -3.411095408567897e-06
|  8> C -1.195037801885259 -1.416942829677932 4.427518568582502e-06
|  9> C 0.009424472259002723 -2.11413691497557 1.4767776856150991e-05
| 10> C 1.208358938910404 -1.4119436239686067 5.185074529054376e-07
| 11> C 1.2258995841646623 -0.016790269755921877 -8.656380932468118e-06
| 12> C -0.0017080575169737906 0.6568880306571769 8.486782499297093e-06
| 13> O -0.0720739626386403 2.028440203763153 2.81745124770929e-05
| 14> C 2.5174547706076766 0.7546274925201504 -2.182795058199587e-05
| 15> H -2.5775680722773604 1.4028250136696911 -0.8779259180223329
| 16> H -3.3681383288494895 0.07613209369133561 -7.250703833964525e-05
| 17> H -2.577629978613376 1.4027785033910767 0.8779078836516001
| 18> H -2.1362682275949623 -1.9596346816674899 2.5529931533497577e-06
| 19> H 0.012777145395156276 -3.198783254421271 2.4560881873163147e-05
| 20> H 2.1532032004152577 -1.9483742985197812 -9.083824565234906e-06
| 21> H 0.820123881251472 2.3915858568923074 0.00011515195119995507
| 22> H 2.6158472613579873 1.3939705403376699 -0.8879583133018429
| 23> H 2.616140705299053 1.3935063765446667 0.8882158058106646
| 24> H 3.370333762266681 0.0728269366497316 -0.00035118074978151637
| 25> *
| 26> 
| 27>                          ****END OF INPUT****
================================================================================

                       ****************************
                       * Single Point Calculation *
                       ****************************

---------------------------------
CARTESIAN COORDINATES (ANGSTROEM)
---------------------------------
  C     -2.509685    0.751600   -0.000024
  C     -1.225076   -0.024285   -0.000003
  C     -1.195038   -1.416943    0.000004
  C      0.009424   -2.114137    0.000015
  C      1.208359   -1.411944    0.000001
  C      1.225900   -0.016790   -0.000009
  C     -0.001708    0.656888    0.000008
  O     -0.072074    2.028440    0.000028
  C      2.517455    0.754627   -0.000022
  H     -2.577568    1.402825   -0.877926
  H     -3.368138    0.076132   -0.000073
  H     -2.577630    1.402779    0.877908
  H     -2.136268   -1.959635    0.000003
  H      0.012777   -3.198783    0.000025
  H      2.153203   -1.948374   -0.000009
  H      0.820124    2.391586    0.000115
  H      2.615847    1.393971   -0.887958
  H      2.616141    1.393506    0.888216
  H      3.370334    0.072827   -0.000351

----------------------------
CARTESIAN COORDINATES (A.U.)
----------------------------
  NO LB      ZA    FRAG     MASS         X           Y           Z
   0 C     6.0000    0    12.011   -4.742618    1.420318   -0.000045
   1 C     6.0000    0    12.011   -2.315057   -0.045891   -0.000006
   2 C     6.0000    0    12.011   -2.258294   -2.677634    0.000008
   3 C     6.0000    0    12.011    0.017810   -3.995140    0.000028
   4 C     6.0000    0    12.011    2.283467   -2.668187    0.000001
   5 C     6.0000    0    12.011    2.316614   -0.031729   -0.000016
   6 C     6.0000    0    12.011   -0.003228    1.241338    0.000016
   7 O     8.0000    0    15.999   -0.136200    3.833196    0.000053
   8 C     6.0000    0    12.011    4.757300    1.426039   -0.000041
   9 H     1.0000    0     1.008   -4.870898    2.650955   -1.659040
  10 H     1.0000    0     1.008   -6.364859    0.143869   -0.000137
  11 H     1.0000    0     1.008   -4.871015    2.650867    1.659005
  12 H     1.0000    0     1.008   -4.036962   -3.703173    0.000005
  13 H     1.0000    0     1.008    0.024145   -6.044824    0.000046
  14 H     1.0000    0     1.008    4.068964   -3.681894   -0.000017
  15 H     1.0000    0     1.008    1.549810    4.519442    0.000218
  16 H     1.0000    0     1.008    4.943235    2.634223   -1.677998
  17 H     1.0000    0     1.008    4.943789    2.633345    1.678485
  18 H     1.0000    0     1.008    6.369008    0.137623   -0.000664

--------------------------------
INTERNAL COORDINATES (ANGSTROEM)
--------------------------------
 C      0   0   0     0.000000000000     0.00000000     0.00000000
 C      1   0   0     1.500739674647     0.00000000     0.00000000
 C      2   1   0     1.392982135743   122.36692850     0.00000000
 C      3   2   1     1.391692840579   121.29968662   179.99958212
 C      4   3   2     1.389431276985   119.57921193     0.00000000
 C      5   4   3     1.395263615268   121.07701743     0.00000000
 C      2   1   3     1.400222873557   119.75955275   180.00000121
 O      7   2   1     1.373356007939   116.17219917     0.00000000
 C      6   5   4     1.504393619953   121.56926812   179.99989829
 H      1   2   3     1.095177650686   111.13041077   239.24772823
 H      1   2   3     1.092336139228   110.67146964     0.00000000
 H      1   2   3     1.095177634603   111.13069252   120.74787629
 H      3   2   1     1.086475568295   118.73116229     0.00000000
 H      4   3   2     1.084651521082   120.24118949   179.99976788
 H      5   4   3     1.086502897921   120.05776862   180.00106803
 H      8   7   2     0.963271387302   109.21056822   179.99494648
 H      9   6   5     1.098577178466   112.04420670   119.30759702
 H      9   6   5     1.098576914098   112.04412026   240.72809987
 H      9   6   5     1.091904153702   110.51183476     0.00000000

---------------------------
INTERNAL COORDINATES (A.U.)
---------------------------
 C      0   0   0     0.000000000000     0.00000000     0.00000000
 C      1   0   0     2.835986983394     0.00000000     0.00000000
 C      2   1   0     2.632354745999   122.36692850     0.00000000
 C      3   2   1     2.629918331232   121.29968662   179.99958212
 C      4   3   2     2.625644595405   119.57921193     0.00000000
 C      5   4   3     2.636666117482   121.07701743     0.00000000
 C      2   1   3     2.646037757475   119.75955275   180.00000121
 O      7   2   1     2.595266739381   116.17219917     0.00000000
 C      6   5   4     2.842891939330   121.56926812   179.99989829
 H      1   2   3     2.069585827788   111.13041077   239.24772823
 H      1   2   3     2.064216149325   110.67146964     0.00000000
 H      1   2   3     2.069585797396   111.13069252   120.74787629
 H      3   2   1     2.053141275273   118.73116229     0.00000000
 H      4   3   2     2.049694325587   120.24118949   179.99976788
 H      5   4   3     2.053192920782   120.05776862   180.00106803
 H      8   7   2     1.820319114642   109.21056822   179.99494648
 H      9   6   5     2.076010004277   112.04420670   119.30759702
 H      9   6   5     2.076009504693   112.04412026   240.72809987
 H      9   6   5     2.063399814988   110.51183476     0.00000000

---------------------
BASIS SET INFORMATION
---------------------
There are 3 groups of distinct atoms

 Group   1 Type C   : 11s6p2d1f contracted to 5s3p2d1f pattern {62111/411/11/1}
 Group   2 Type O   : 11s6p2d1f contracted to 5s3p2d1f pattern {62111/411/11/1}
 Group   3 Type H   : 5s1p contracted to 3s1p pattern {311/1}

Atom   0C    basis set group =>   1
Atom   1C    basis set group =>   1
Atom   2C    basis set group =>   1
Atom   3C    basis set group =>   1
Atom   4C    basis set group =>   1
Atom   5C    basis set group =>   1
Atom   6C    basis set group =>   1
Atom   7O    basis set group =>   2
Atom   8C    basis set group =>   1
Atom   9H    basis set group =>   3
Atom  10H    basis set group =>   3
Atom  11H    basis set group =>   3
Atom  12H    basis set group =>   3
Atom  13H    basis set group =>   3
Atom  14H    basis set group =>   3
Atom  15H    basis set group =>   3
Atom  16H    basis set group =>   3
Atom  17H    basis set group =>   3
Atom  18H    basis set group =>   3
---------------------------------
AUXILIARY/J BASIS SET INFORMATION
---------------------------------
There are 3 groups of distinct atoms

 Group   1 Type C   : 12s5p4d2f1g contracted to 6s4p3d1f1g pattern {711111/2111/211/2/1}
 Group   2 Type O   : 12s5p4d2f1g contracted to 6s4p3d1f1g pattern {711111/2111/211/2/1}
 Group   3 Type H   : 5s2p1d contracted to 3s1p1d pattern {311/2/1}

Atom   0C    basis set group =>   1
Atom   1C    basis set group =>   1
Atom   2C    basis set group =>   1
Atom   3C    basis set group =>   1
Atom   4C    basis set group =>   1
Atom   5C    basis set group =>   1
Atom   6C    basis set group =>   1
Atom   7O    basis set group =>   2
Atom   8C    basis set group =>   1
Atom   9H    basis set group =>   3
Atom  10H    basis set group =>   3
Atom  11H    basis set group =>   3
Atom  12H    basis set group =>   3
Atom  13H    basis set group =>   3
Atom  14H    basis set group =>   3
Atom  15H    basis set group =>   3
Atom  16H    basis set group =>   3
Atom  17H    basis set group =>   3
Atom  18H    basis set group =>   3

Checking for AutoStart:
The File: sp.gbw exists
Trying to determine its content:
     ... Fine, the file contains calculation information
     ... Fine, the calculation information was read
     ... Fine, the file contains a basis set
     ... Fine, the basis set was read
     ... Fine, the file contains a geometry
     ... Fine, the geometry was read
     ... Fine, the file contains a set of orbitals
     ... Fine, the orbitals can be read
     => possible old guess file was deleted
     => GBW file was renamed to GES file
     => GES file is set as startup file
     => Guess is set to MORead
     ... now leaving AutoStart

------------------------------------------------------------------------------
                             ORCA STARTUP CALCULATIONS
                           -- RI-GTO INTEGRALS CHOSEN --
------------------------------------------------------------------------------
------------------------------------------------------------------------------
                   ___                                                        
                  /   \      - P O W E R E D   B Y -                         
                 /     \                                                     
                 |  |  |   _    _      __       _____    __    __             
                 |  |  |  | |  | |    /  \     |  _  \  |  |  /  |          
                  \  \/   | |  | |   /    \    | | | |  |  | /  /          
                 / \  \   | |__| |  /  /\  \   | |_| |  |  |/  /          
                |  |  |   |  __  | /  /__\  \  |    /   |      \           
                |  |  |   | |  | | |   __   |  |    \   |  |\   \          
                \     /   | |  | | |  |  |  |  | |\  \  |  | \   \       
                 \___/    |_|  |_| |__|  |__|  |_| \__\ |__|  \__/        
                                                                              
                      - O R C A' S   B I G   F R I E N D -                    
                                      &                                       
                       - I N T E G R A L  F E E D E R -                       
                                                                              
 v1 FN, 2020, v2 2021, v3 2022-2024                                           
------------------------------------------------------------------------------


----------------------
SHARK INTEGRAL PACKAGE
----------------------

Number of atoms                             ...     19
Number of basis functions                   ...    339
Number of shells                            ...    139
Maximum angular momentum                    ...      3
Integral batch strategy                     ... SHARK/LIBINT Hybrid
RI-J (if used) integral strategy            ... SPLIT-RIJ (Revised 2003 algorithm where possible)
Printlevel                                  ...      1
Contraction scheme used                     ... SEGMENTED contraction
Prescreening option                         ... SCHWARTZ
   Thresh                                   ... 3.000e-11
   Tcut                                     ... 1.000e-12
   Tpresel                                  ... 1.000e-12 
Coulomb Range Separation                    ... NOT USED
Exchange Range Separation                   ... Long Range
   Mu parameter                             ... 3.000e-01
   Scaling (regular/separated)              ... 1.670e-01 8.330e-01
Multipole approximations                    ... NOT USED
Finite Nucleus Model                        ... NOT USED
CABS basis                                  ... NOT available
Auxiliary Coulomb fitting basis             ... AVAILABLE
   # of basis functions in Aux-J            ...    551
   # of shells in Aux-J                     ...    185
   Maximum angular momentum in Aux-J        ...      4
Auxiliary J/K fitting basis                 ... NOT available
Auxiliary Correlation fitting basis         ... NOT available
Auxiliary 'external' fitting basis          ... NOT available

Checking pre-screening integrals            ... done (  0.0 sec) Dimension = 139
Check shell pair data                       ... done (  0.0 sec)
Shell pair information
Shell pair cut-off parameter TPreSel        ...   1.0e-12
Total number of shell pairs                 ...      9730
Shell pairs after pre-screening             ...      8860
Total number of primitive shell pairs       ...     29148
Primitive shell pairs kept                  ...     19816
          la=0 lb=0:   2476 shell pairs
          la=1 lb=0:   2528 shell pairs
          la=1 lb=1:    658 shell pairs
          la=2 lb=0:   1258 shell pairs
          la=2 lb=1:    636 shell pairs
          la=2 lb=2:    165 shell pairs
          la=3 lb=0:    615 shell pairs
          la=3 lb=1:    320 shell pairs
          la=3 lb=2:    159 shell pairs
          la=3 lb=3:     45 shell pairs

Calculating one electron integrals          ... done (  0.1 sec)
Calculating RI/J V-Matrix + Cholesky decomp.... done (  0.0 sec)
Calculating Nuclear repulsion               ... done (  0.0 sec) ENN=    431.931922050672 Eh

Diagonalization of the overlap matrix:
Smallest eigenvalue                        ... 7.625e-06
Time for diagonalization                   ...    0.015 sec
Threshold for overlap eigenvalues          ... 1.000e-07
Number of eigenvalues below threshold      ... 0
Time for construction of square roots      ...    0.007 sec
Total time needed                          ...    0.023 sec

-------------------
DFT GRID GENERATION
-------------------

General Integration Accuracy     IntAcc      ... 4.388
Radial Grid Type                 RadialGrid  ... OptM3 with GC (2021)
Angular Grid (max. ang.)         AngularGrid ... 4 (Lebedev-302)
Angular grid pruning method      GridPruning ... 4 (adaptive)
Weight generation scheme         WeightScheme... mBecke (2022)
Basis function cutoff            BFCut       ... 1.0000e-11
Integration weight cutoff        WCut        ... 1.0000e-14
Partially contracted basis set               ... off
Rotationally invariant grid construction     ... off
Angular grids for H and He will be reduced by one unit

Total number of grid points                  ...    86121
Total number of batches                      ...     1360
Average number of points per batch           ...       63
Average number of grid points per atom       ...     4533

--------------------
COSX GRID GENERATION
--------------------

GRIDX 1
-------
General Integration Accuracy     IntAcc      ... 3.816
Radial Grid Type                 RadialGrid  ... OptM3 with GC (2021)
Angular Grid (max. ang.)         AngularGrid ... 1 (Lebedev-50)
Angular grid pruning method      GridPruning ... 4 (adaptive)
Weight generation scheme         WeightScheme... mBecke (2022)
Basis function cutoff            BFCut       ... 1.0000e-11
Integration weight cutoff        WCut        ... 1.0000e-14
Partially contracted basis set               ... on
Rotationally invariant grid construction     ... off
Angular grids for H and He will be reduced by one unit

Total number of grid points                  ...    11033
Total number of batches                      ...       95
Average number of points per batch           ...      116
Average number of grid points per atom       ...      581
UseSFitting                                  ... on

GRIDX 2
-------
General Integration Accuracy     IntAcc      ... 4.020
Radial Grid Type                 RadialGrid  ... OptM3 with GC (2021)
Angular Grid (max. ang.)         AngularGrid ... 2 (Lebedev-110)
Angular grid pruning method      GridPruning ... 4 (adaptive)
Weight generation scheme         WeightScheme... mBecke (2022)
Basis function cutoff            BFCut       ... 1.0000e-11
Integration weight cutoff        WCut        ... 1.0000e-14
Partially contracted basis set               ... on
Rotationally invariant grid construction     ... off
Angular grids for H and He will be reduced by one unit

Total number of grid points                  ...    23620
Total number of batches                      ...      194
Average number of points per batch           ...      121
Average number of grid points per atom       ...     1243
UseSFitting                                  ... on

GRIDX 3
-------
General Integration Accuracy     IntAcc      ... 4.338
Radial Grid Type                 RadialGrid  ... OptM3 with GC (2021)
Angular Grid (max. ang.)         AngularGrid ... 3 (Lebedev-194)
Angular grid pruning method      GridPruning ... 4 (adaptive)
Weight generation scheme         WeightScheme... mBecke (2022)
Basis function cutoff            BFCut       ... 1.0000e-11
Integration weight cutoff        WCut        ... 1.0000e-14
Partially contracted basis set               ... on
Rotationally invariant grid construction     ... off
Angular grids for H and He will be reduced by one unit

Total number of grid points                  ...    51874
Total number of batches                      ...      413
Average number of points per batch           ...      125
Average number of grid points per atom       ...     2730
UseSFitting                                  ... on
Initializing property integral containers    ... done (  0.0 sec)

SHARK setup successfully completed in   2.9 seconds

Maximum memory used throughout the entire STARTUP-calculation: 53.7 MB
-------------------------------------------------------------------------------
                                 ORCA GUESS
                   Start orbitals & Density for SCF / CASSCF
-------------------------------------------------------------------------------

------------
SCF SETTINGS
------------
Hamiltonian:
 Density Functional     Method          .... DFT(GTOs)
 Exchange Functional    Exchange        .... WB97X-V
 Correlation Functional Correlation     .... WB97X-V
 Gradients option       PostSCFGGA      .... off
 Hybrid DFT is turned on
   Fraction HF Exchange ScalHFX         ....  0.167000
   Scaling of DF-GGA-X  ScalDFX         ....  0.000000
   Scaling of DF-GGA-C  ScalDFC         ....  1.000000
   Scaling of DF-LDA-C  ScalLDAC        ....  1.000000
   Perturbative correction              ....  0.000000
 Long-range corrected/Screened/Range-Separated Hybrid DFT is turned on
   Amount of maximum screened exact exchange              ....  0.833000
   Range separation parameter mu (erf(mu*r12)/r12)        ....  0.300000
   NL short-range parameter             ....  6.000000
   NL long-range parameter              ....  0.010000
 RI-approximation to the Coulomb term is turned on
   Number of AuxJ basis functions       .... 551
   RIJ-COSX (HFX calculated with COS-X)).... on


General Settings:
 Integral files         IntName         .... sp
 Hartree-Fock type      HFTyp           .... RHF
 Total Charge           Charge          ....    0
 Multiplicity           Mult            ....    1
 Number of Electrons    NEL             ....   66
 Basis Dimension        Dim             ....  339
 Nuclear Repulsion      ENuc            ....    431.9319220507 Eh

Convergence Acceleration:
 AO-DIIS                CNVDIIS         .... on
   Start iteration      DIISMaxIt       ....    12
   Startup error        DIISStart       ....  0.200000
   # of expansion vecs  DIISMaxEq       ....     5
   Bias factor          DIISBfac        ....   1.050
   Max. coefficient     DIISMaxC        ....  10.000
 MO-DIIS                CNVKDIIS        .... off
 Trust-Rad. Augm. Hess. CNVTRAH         .... auto
   Auto Start mean grad. ratio tolernc. ....  1.125000
   Auto Start start iteration           ....     1
   Auto Start num. interpolation iter.  ....    10
   Max. Number of Micro iterations      ....    24
   Max. Number of Macro iterations      .... Maxiter - #DIIS iter
   Number of Davidson start vectors     ....     2
   Converg. threshold    (grad. norm)   ....   1.000e-04
   Grad. Scal. Fac. for Micro threshold ....   0.100
   Minimum threshold for Micro iter.    ....   1.000e-02
   NR start threshold (gradient norm)   ....   1.000e-04
   Initial trust radius                 ....   0.400
   Minimum AH scaling param. (alpha)    ....   1.000
   Maximum AH scaling param. (alpha)    .... 1000.000
   Quad. conv. algorithm                .... NR
   White noise on init. David. guess    .... on
   Maximum white noise                  ....   0.010
   Pseudo random numbers                .... off
   Inactive MOs                         .... canonical
   Orbital update algorithm             .... Taylor
   Preconditioner                       .... Diag
   Full preconditioner red. dimension   ....   250
 SOSCF                  CNVSOSCF        .... on
   Start iteration      SOSCFMaxIt      ....   150
   Startup grad/error   SOSCFStart      ....  0.003300
   Hessian update       SOSCFHessUp     .... L-BFGS
 Level Shifting         CNVShift        .... on
   Level shift para.    LevelShift      ....    0.2500
   Turn off err/grad.   ShiftErr        ....    0.0010
 Zerner damping         CNVZerner       .... off
 Static damping         CNVDamp         .... on
   Fraction old density DampFac         ....    0.7000
   Max. Damping (<1)    DampMax         ....    0.9800
   Min. Damping (>=0)   DampMin         ....    0.0000
   Turn off err/grad.   DampErr         ....    0.1000

SCF Procedure:
 Maximum # iterations   MaxIter         ....   125
 SCF integral mode      SCFMode         .... Direct
   Integral package                     .... SHARK and LIBINT hybrid scheme
 Reset frequency        DirectResetFreq ....    20
 Integral Threshold     Thresh          ....  3.000e-11 Eh
 Primitive CutOff       TCut            ....  1.000e-12 Eh

Convergence Tolerance:
 Convergence Check Mode ConvCheckMode   .... Total+1el-Energy
 Convergence forced     ConvForced      .... 0
 Energy Change          TolE            ....  1.000e-07 Eh
 1-El. energy change                    ....  1.000e-04 Eh
 Orbital Gradient       TolG            ....  1.000e-04
 Orbital Rotation angle TolX            ....  1.000e-04
 DIIS Error             TolErr          ....  1.000e-07

---------------------
INITIAL GUESS: MOREAD
---------------------
Guess MOs are being read from file: sp.ges
Input Geometry matches current geometry (good)
Atom 0: N(Shells)= 11 and 9 - projection required
Input basis set needs projection
NBasis(read)= 226
NBasis(calc)= 339
Basis set overlap was calculated
Using GuessMode=FMatrix for the initial guess
C*T matrix was formed
Effective Fockian was calculated
Effective Fockian was diagonalized
Initial density was built
                      ------------------
                      INITIAL GUESS DONE (   0.0 sec)
                      ------------------
             **** ENERGY FILE WAS UPDATED (sp.en.tmp) ****
Finished Guess after   0.5 sec
Maximum memory used throughout the entire GUESS-calculation: 34.6 MB

-------------------------------------------------------------------------------------------
                                      ORCA LEAN-SCF
                              memory conserving SCF solver
-------------------------------------------------------------------------------------------

----------------------------------------D-I-I-S--------------------------------------------
Iteration    Energy (Eh)           Delta-E    RMSDP     MaxDP     DIISErr   Damp  Time(sec)
-------------------------------------------------------------------------------------------
               ***  Starting incremental Fock matrix formation  ***
    1    -386.3632032354660168     0.00e+00  2.15e-03  1.36e-01  7.15e-02  0.700  51.5
    2    -386.3690607672054966    -5.86e-03  1.74e-03  1.06e-01  5.18e-02  0.700  28.5
                               ***Turning on AO-DIIS***
    3    -386.3734670754437275    -4.41e-03  1.35e-03  7.91e-02  3.70e-02  0.700  31.2
    4    -386.3767022110969265    -3.24e-03  3.27e-03  1.87e-01  2.60e-02  0.000  27.3
                              *** Initializing SOSCF ***
---------------------------------------S-O-S-C-F--------------------------------------
Iteration    Energy (Eh)           Delta-E    RMSDP     MaxDP     MaxGrad    Time(sec)
--------------------------------------------------------------------------------------
    5    -386.3848847838406755    -8.18e-03  9.69e-05  3.38e-03  1.37e-03    43.4
               *** Restarting incremental Fock matrix formation ***
    6    -386.3849010610257437    -1.63e-05  3.56e-05  1.28e-03  5.07e-04    85.6
    7    -386.3849058568845294    -4.80e-06  2.32e-05  1.58e-03  1.25e-04    65.9
    8    -386.3849063727866451    -5.16e-07  6.42e-06  3.63e-04  7.82e-05    45.2
    9    -386.3849065633919508    -1.91e-07  2.10e-06  6.04e-05  2.59e-05    32.0
   10    -386.3849065748927387    -1.15e-08  2.11e-06  1.01e-04  7.99e-06    24.6
                 **** Energy Check signals convergence ****

               *****************************************************
               *                     SUCCESS                       *
               *           SCF CONVERGED AFTER  10 CYCLES          *
               *****************************************************


------------------
NL GRID GENERATION
------------------

General Integration Accuracy     IntAcc      ... 4.004
Radial Grid Type                 RadialGrid  ... OptM3 with GC (2021)
Angular Grid (max. ang.)         AngularGrid ... 2 (Lebedev-110)
Angular grid pruning method      GridPruning ... 4 (adaptive)
Weight generation scheme         WeightScheme... mBecke (2022)
Basis function cutoff            BFCut       ... 1.0000e-10
Integration weight cutoff        WCut        ... 1.0000e-14
Partially contracted basis set               ... off
Rotationally invariant grid construction     ... off
Angular grids for H and He will be reduced by one unit

Total number of grid points                  ...    26798
Total number of batches                      ...      430
Average number of points per batch           ...       62
Average number of grid points per atom       ...     1410
Final grid set up in    2.3 sec

-------------------------------------------------------------------------------
                    post-SCF DFT-NL dispersion correction                      
-------------------------------------------------------------------------------

SCF Energy:     -386.384906575 
NL    Energy:      0.249945255 
SC+NL Energy:   -386.134961320 
NL done in  :              3.6 sec
-------------------------------------------------------------------------------
Recomputing exchange energy using gridx3       ... done (   82.962 sec)
Old exchange energy                            :    -17.492114387 Eh
New exchange energy                            :    -17.492116378 Eh
Exchange energy change after final integration :     -0.000001991 Eh
Total energy after final integration           :   -386.134963311 Eh
             **** ENERGY FILE WAS UPDATED (sp.en.tmp) ****

----------------
TOTAL SCF ENERGY
----------------

Total Energy       :       -386.13496331056814 Eh          -10507.26653 eV

Components:
Nuclear Repulsion  :        431.93192205067237 Eh           11753.46513 eV
Electronic Energy  :       -818.31682862556511 Eh          -22267.53297 eV
One Electron Energy:      -1377.86831993603232 Eh          -37493.70313 eV
Two Electron Energy:        559.55149131046721 Eh           15226.17016 eV

Virial components:
Potential Energy   :       -770.72775808447068 Eh          -20972.56852 eV
Kinetic Energy     :        384.59279477390248 Eh           10465.30199 eV
Virial Ratio       :          2.00400987370960

DFT components:
N(Alpha)           :       33.000035642660 electrons
N(Beta)            :       33.000035642660 electrons
N(Total)           :       66.000071285321 electrons
E(X)               :      -35.770885054258 Eh       
E(C)               :       -2.718167896797 Eh       
NL Energy, E(C,NL) :        0.249945254882 Eh       
E(XC)              :      -38.239107696173 Eh       

---------------
SCF CONVERGENCE
---------------

  Last Energy change         ...    1.1501e-08  Tolerance :   1.0000e-07
  Last MAX-Density change    ...    1.0088e-04  Tolerance :   1.0000e-05
  Last RMS-Density change    ...    2.1105e-06  Tolerance :   1.0000e-06
  Last DIIS Error            ...    1.3697e-03  Tolerance :   1.0000e-07
  Last Orbital Gradient      ...    7.9905e-06  Tolerance :   1.0000e-04
  Last Orbital Rotation      ...    1.9079e-05  Tolerance :   1.0000e-04


----------------
ORBITAL ENERGIES
----------------

  NO   OCC          E(Eh)            E(eV) 
   0   2.0000     -19.242996      -523.6285 
   1   2.0000     -10.328275      -281.0467 
   2   2.0000     -10.281819      -279.7825 
   3   2.0000     -10.280869      -279.7567 
   4   2.0000     -10.275174      -279.6017 
   5   2.0000     -10.270226      -279.4671 
   6   2.0000     -10.267834      -279.4020 
   7   2.0000     -10.263300      -279.2786 
   8   2.0000     -10.260395      -279.1995 
   9   2.0000      -1.192442       -32.4480 
  10   2.0000      -0.991867       -26.9901 
  11   2.0000      -0.922952       -25.1148 
  12   2.0000      -0.884885       -24.0789 
  13   2.0000      -0.827399       -22.5147 
  14   2.0000      -0.808498       -22.0003 
  15   2.0000      -0.728687       -19.8286 
  16   2.0000      -0.704469       -19.1696 
  17   2.0000      -0.654913       -17.8211 
  18   2.0000      -0.605951       -16.4888 
  19   2.0000      -0.577255       -15.7079 
  20   2.0000      -0.560305       -15.2467 
  21   2.0000      -0.535757       -14.5787 
  22   2.0000      -0.527960       -14.3665 
  23   2.0000      -0.518785       -14.1169 
  24   2.0000      -0.515593       -14.0300 
  25   2.0000      -0.499583       -13.5943 
  26   2.0000      -0.488695       -13.2981 
  27   2.0000      -0.482912       -13.1407 
  28   2.0000      -0.449123       -12.2212 
  29   2.0000      -0.446126       -12.1397 
  30   2.0000      -0.435740       -11.8571 
  31   2.0000      -0.332875        -9.0580 
  32   2.0000      -0.310397        -8.4463 
  33   0.0000       0.075475         2.0538 
  34   0.0000       0.084936         2.3112 
  35   0.0000       0.098650         2.6844 
  36   0.0000       0.135549         3.6885 
  37   0.0000       0.138017         3.7556 
  38   0.0000       0.165903         4.5145 
  39   0.0000       0.169159         4.6031 
  40   0.0000       0.178429         4.8553 
  41   0.0000       0.185993         5.0611 
  42   0.0000       0.206076         5.6076 
  43   0.0000       0.209979         5.7138 
*Only the first 10 virtual orbitals were printed.

                    ********************************
                    * MULLIKEN POPULATION ANALYSIS *
                    ********************************

-----------------------
MULLIKEN ATOMIC CHARGES
-----------------------
   0 C :   -0.332075
   1 C :    0.036215
   2 C :   -0.174246
   3 C :   -0.130040
   4 C :   -0.186973
   5 C :    0.124116
   6 C :    0.123634
   7 O :   -0.389006
   8 C :   -0.475043
   9 H :    0.121924
  10 H :    0.110819
  11 H :    0.121921
  12 H :    0.108972
  13 H :    0.111535
  14 H :    0.107699
  15 H :    0.317235
  16 H :    0.138081
  17 H :    0.138115
  18 H :    0.127119
Sum of atomic charges:   -0.0000000

--------------------------------
MULLIKEN REDUCED ORBITAL CHARGES
--------------------------------
  0 C s       :     3.241827  s :     3.241827
      pz      :     1.070450  p :     3.031778
      px      :     0.929506
      py      :     1.031822
      dz2     :     0.005114  d :     0.055150
      dxz     :     0.009942
      dyz     :     0.016123
      dx2y2   :     0.011767
      dxy     :     0.012203
      f0      :     0.000308  f :     0.003320
      f+1     :     0.000025
      f-1     :     0.000993
      f+2     :     0.000114
      f-2     :     0.000327
      f+3     :     0.000813
      f-3     :     0.000739

  1 C s       :     3.219213  s :     3.219213
      pz      :     0.954573  p :     2.597919
      px      :     0.812500
      py      :     0.830845
      dz2     :     0.006053  d :     0.136473
      dxz     :     0.022468
      dyz     :     0.026415
      dx2y2   :     0.039391
      dxy     :     0.042146
      f0      :     0.001803  f :     0.010181
      f+1     :     0.000802
      f-1     :     0.000734
      f+2     :     0.000989
      f-2     :     0.001119
      f+3     :     0.003370
      f-3     :     0.001365

  2 C s       :     3.187117  s :     3.187117
      pz      :     0.981596  p :     2.887800
      px      :     0.988239
      py      :     0.917965
      dz2     :     0.004437  d :     0.091733
      dxz     :     0.009600
      dyz     :     0.021196
      dx2y2   :     0.025855
      dxy     :     0.030644
      f0      :     0.001599  f :     0.007597
      f+1     :     0.000665
      f-1     :     0.000616
      f+2     :     0.000962
      f-2     :     0.000458
      f+3     :     0.002198
      f-3     :     0.001099

  3 C s       :     3.160493  s :     3.160493
      pz      :     0.996816  p :     2.874840
      px      :     0.928332
      py      :     0.949692
      dz2     :     0.004536  d :     0.087179
      dxz     :     0.024293
      dyz     :     0.005127
      dx2y2   :     0.030593
      dxy     :     0.022630
      f0      :     0.001637  f :     0.007529
      f+1     :     0.000613
      f-1     :     0.000719
      f+2     :     0.000186
      f-2     :     0.001209
      f+3     :     0.002129
      f-3     :     0.001035

  4 C s       :     3.194672  s :     3.194672
      pz      :     0.987839  p :     2.893590
      px      :     0.984005
      py      :     0.921746
      dz2     :     0.004665  d :     0.091052
      dxz     :     0.009511
      dyz     :     0.022346
      dx2y2   :     0.025964
      dxy     :     0.028566
      f0      :     0.001610  f :     0.007659
      f+1     :     0.000663
      f-1     :     0.000633
      f+2     :     0.000998
      f-2     :     0.000467
      f+3     :     0.002192
      f-3     :     0.001096

  5 C s       :     3.180058  s :     3.180058
      pz      :     0.986203  p :     2.556816
      px      :     0.794872
      py      :     0.775741
      dz2     :     0.007192  d :     0.129176
      dxz     :     0.020291
      dyz     :     0.024648
      dx2y2   :     0.034511
      dxy     :     0.042534
      f0      :     0.001754  f :     0.009834
      f+1     :     0.000797
      f-1     :     0.000689
      f+2     :     0.001016
      f-2     :     0.000987
      f+3     :     0.003248
      f-3     :     0.001344

  6 C s       :     3.060732  s :     3.060732
      pz      :     0.944067  p :     2.617588
      px      :     0.951072
      py      :     0.722450
      dz2     :     0.004413  d :     0.182382
      dxz     :     0.024045
      dyz     :     0.044314
      dx2y2   :     0.042576
      dxy     :     0.067034
      f0      :     0.002506  f :     0.015665
      f+1     :     0.000771
      f-1     :     0.001277
      f+2     :     0.002554
      f-2     :     0.001062
      f+3     :     0.005461
      f-3     :     0.002033

  7 O s       :     3.748462  s :     3.748462
      pz      :     1.835340  p :     4.607113
      px      :     1.444500
      py      :     1.327273
      dz2     :     0.004348  d :     0.031735
      dxz     :     0.001678
      dyz     :     0.005068
      dx2y2   :     0.012826
      dxy     :     0.007815
      f0      :     0.000231  f :     0.001696
      f+1     :     0.000314
      f-1     :     0.000357
      f+2     :     0.000119
      f-2     :     0.000021
      f+3     :     0.000214
      f-3     :     0.000440

  8 C s       :     3.325098  s :     3.325098
      pz      :     1.044331  p :     3.087949
      px      :     0.974673
      py      :     1.068944
      dz2     :     0.005359  d :     0.058669
      dxz     :     0.011330
      dyz     :     0.018664
      dx2y2   :     0.013269
      dxy     :     0.010048
      f0      :     0.000324  f :     0.003328
      f+1     :     0.000021
      f-1     :     0.001012
      f+2     :     0.000135
      f-2     :     0.000298
      f+3     :     0.000826
      f-3     :     0.000712

  9 H s       :     0.856967  s :     0.856967
      pz      :     0.009587  p :     0.021109
      px      :     0.004072
      py      :     0.007450

 10 H s       :     0.867960  s :     0.867960
      pz      :     0.004226  p :     0.021220
      px      :     0.009940
      py      :     0.007054

 11 H s       :     0.856970  s :     0.856970
      pz      :     0.009587  p :     0.021109
      px      :     0.004073
      py      :     0.007449

 12 H s       :     0.869136  s :     0.869136
      pz      :     0.004577  p :     0.021893
      px      :     0.011263
      py      :     0.006053

 13 H s       :     0.866296  s :     0.866296
      pz      :     0.004854  p :     0.022169
      px      :     0.003495
      py      :     0.013820

 14 H s       :     0.870373  s :     0.870373
      pz      :     0.004633  p :     0.021928
      px      :     0.011224
      py      :     0.006072

 15 H s       :     0.634475  s :     0.634475
      pz      :     0.016485  p :     0.048289
      px      :     0.019888
      py      :     0.011917

 16 H s       :     0.841396  s :     0.841396
      pz      :     0.009494  p :     0.020523
      px      :     0.004182
      py      :     0.006847

 17 H s       :     0.841363  s :     0.841363
      pz      :     0.009498  p :     0.020522
      px      :     0.004182
      py      :     0.006843

 18 H s       :     0.851035  s :     0.851035
      pz      :     0.004414  p :     0.021846
      px      :     0.010113
      py      :     0.007319


------------------------
MULLIKEN OVERLAP CHARGES
------------------------
B(  0-C ,  1-C ) :   0.6070 B(  0-C ,  2-C ) :  -0.1632 B(  0-C ,  5-C ) :   0.0510 
B(  0-C ,  6-C ) :  -0.1328 B(  0-C ,  9-H ) :   0.8077 B(  0-C , 10-H ) :   0.8662 
B(  0-C , 11-H ) :   0.8078 B(  1-C ,  2-C ) :   1.0872 B(  1-C ,  4-C ) :  -0.1520 
B(  1-C ,  5-C ) :  -0.2324 B(  1-C ,  6-C ) :   0.8387 B(  1-C ,  7-O ) :  -0.1862 
B(  1-C , 10-H ) :  -0.1395 B(  1-C , 12-H ) :  -0.1187 B(  2-C ,  3-C ) :   0.9760 
B(  2-C ,  5-C ) :  -0.1879 B(  2-C ,  6-C ) :  -0.0535 B(  2-C , 12-H ) :   0.8621 
B(  2-C , 13-H ) :  -0.1023 B(  3-C ,  4-C ) :   0.9902 B(  3-C ,  6-C ) :  -0.1613 
B(  3-C , 12-H ) :  -0.0996 B(  3-C , 13-H ) :   0.8724 B(  3-C , 14-H ) :  -0.0702 
B(  4-C ,  5-C ) :   0.9420 B(  4-C ,  8-C ) :  -0.1206 B(  4-C , 13-H ) :  -0.1054 
B(  4-C , 14-H ) :   0.8372 B(  5-C ,  6-C ) :   0.6755 B(  5-C ,  7-O ) :  -0.1586 
B(  5-C ,  8-C ) :   0.4577 B(  5-C , 14-H ) :  -0.1006 B(  5-C , 15-H ) :  -0.0909 
B(  5-C , 16-H ) :  -0.1070 B(  5-C , 17-H ) :  -0.1068 B(  5-C , 18-H ) :  -0.0840 
B(  6-C ,  7-O ) :   0.7882 B(  6-C ,  8-C ) :  -0.1008 B(  7-O , 15-H ) :   0.6202 
B(  8-C , 16-H ) :   0.8579 B(  8-C , 17-H ) :   0.8579 B(  8-C , 18-H ) :   0.8023 
B(  9-H , 11-H ) :  -0.0609 B( 16-H , 17-H ) :  -0.1017 


                     *******************************
                     * LOEWDIN POPULATION ANALYSIS *
                     *******************************

----------------------
LOEWDIN ATOMIC CHARGES
----------------------
   0 C :   -0.248558
   1 C :   -0.153697
   2 C :   -0.119065
   3 C :   -0.158069
   4 C :   -0.124630
   5 C :   -0.169578
   6 C :   -0.207556
   7 O :    0.081584
   8 C :   -0.266344
   9 H :    0.128665
  10 H :    0.122383
  11 H :    0.128664
  12 H :    0.143154
  13 H :    0.139917
  14 H :    0.142431
  15 H :    0.181220
  16 H :    0.124506
  17 H :    0.124513
  18 H :    0.130456

-------------------------------
LOEWDIN REDUCED ORBITAL CHARGES
-------------------------------
  0 C s       :     2.811747  s :     2.811747
      pz      :     1.073340  p :     3.156259
      px      :     1.028298
      py      :     1.054622
      dz2     :     0.034064  d :     0.255515
      dxz     :     0.031318
      dyz     :     0.069189
      dx2y2   :     0.051299
      dxy     :     0.069646
      f0      :     0.001991  f :     0.025037
      f+1     :     0.002876
      f-1     :     0.003778
      f+2     :     0.003966
      f-2     :     0.002175
      f+3     :     0.005677
      f-3     :     0.004575

  1 C s       :     2.707737  s :     2.707737
      pz      :     0.857945  p :     2.881252
      px      :     0.991982
      py      :     1.031324
      dz2     :     0.032556  d :     0.507769
      dxz     :     0.071076
      dyz     :     0.078662
      dx2y2   :     0.155554
      dxy     :     0.169922
      f0      :     0.004235  f :     0.056938
      f+1     :     0.004106
      f-1     :     0.004217
      f+2     :     0.006863
      f-2     :     0.007078
      f+3     :     0.021282
      f-3     :     0.009157

  2 C s       :     2.755007  s :     2.755007
      pz      :     0.890901  p :     2.929631
      px      :     1.008701
      py      :     1.030029
      dz2     :     0.025507  d :     0.391420
      dxz     :     0.030183
      dyz     :     0.068128
      dx2y2   :     0.117928
      dxy     :     0.149674
      f0      :     0.003008  f :     0.043007
      f+1     :     0.003413
      f-1     :     0.003956
      f+2     :     0.006506
      f-2     :     0.003016
      f+3     :     0.015256
      f-3     :     0.007852

  3 C s       :     2.759492  s :     2.759492
      pz      :     0.913101  p :     2.968793
      px      :     1.068083
      py      :     0.987609
      dz2     :     0.024966  d :     0.386514
      dxz     :     0.082246
      dyz     :     0.012639
      dx2y2   :     0.165131
      dxy     :     0.101531
      f0      :     0.003086  f :     0.043270
      f+1     :     0.004334
      f-1     :     0.003222
      f+2     :     0.001263
      f-2     :     0.007981
      f+3     :     0.015515
      f-3     :     0.007869

  4 C s       :     2.754728  s :     2.754728
      pz      :     0.895946  p :     2.933234
      px      :     1.009782
      py      :     1.027506
      dz2     :     0.025501  d :     0.393505
      dxz     :     0.029780
      dyz     :     0.071188
      dx2y2   :     0.119960
      dxy     :     0.147077
      f0      :     0.003028  f :     0.043163
      f+1     :     0.003422
      f-1     :     0.003968
      f+2     :     0.006632
      f-2     :     0.003090
      f+3     :     0.015175
      f-3     :     0.007848

  5 C s       :     2.707888  s :     2.707888
      pz      :     0.880185  p :     2.896444
      px      :     0.987319
      py      :     1.028940
      dz2     :     0.033013  d :     0.508423
      dxz     :     0.069268
      dyz     :     0.078961
      dx2y2   :     0.155004
      dxy     :     0.172178
      f0      :     0.004172  f :     0.056823
      f+1     :     0.004177
      f-1     :     0.004245
      f+2     :     0.007079
      f-2     :     0.006840
      f+3     :     0.021311
      f-3     :     0.009000

  6 C s       :     2.706728  s :     2.706728
      pz      :     0.864882  p :     2.741907
      px      :     1.054803
      py      :     0.822221
      dz2     :     0.045073  d :     0.664790
      dxz     :     0.075148
      dyz     :     0.136886
      dx2y2   :     0.216993
      dxy     :     0.190690
      f0      :     0.006779  f :     0.094131
      f+1     :     0.004509
      f-1     :     0.008801
      f+2     :     0.017310
      f-2     :     0.007314
      f+3     :     0.033585
      f-3     :     0.015834

  7 O s       :     3.317262  s :     3.317262
      pz      :     1.719862  p :     4.525337
      px      :     1.437585
      py      :     1.367890
      dz2     :     0.008244  d :     0.071032
      dxz     :     0.000676
      dyz     :     0.014146
      dx2y2   :     0.024761
      dxy     :     0.023204
      f0      :     0.000400  f :     0.004785
      f+1     :     0.000435
      f-1     :     0.000680
      f+2     :     0.000608
      f-2     :     0.000014
      f+3     :     0.001366
      f-3     :     0.001283

  8 C s       :     2.814207  s :     2.814207
      pz      :     1.062746  p :     3.166108
      px      :     1.039226
      py      :     1.064136
      dz2     :     0.032901  d :     0.261091
      dxz     :     0.034930
      dyz     :     0.073006
      dx2y2   :     0.053211
      dxy     :     0.067043
      f0      :     0.002135  f :     0.024938
      f+1     :     0.002863
      f-1     :     0.003668
      f+2     :     0.003935
      f-2     :     0.002156
      f+3     :     0.005820
      f-3     :     0.004361

  9 H s       :     0.811077  s :     0.811077
      pz      :     0.027571  p :     0.060258
      px      :     0.012071
      py      :     0.020617

 10 H s       :     0.818007  s :     0.818007
      pz      :     0.013297  p :     0.059610
      px      :     0.025007
      py      :     0.021306

 11 H s       :     0.811078  s :     0.811078
      pz      :     0.027572  p :     0.060258
      px      :     0.012071
      py      :     0.020615

 12 H s       :     0.799159  s :     0.799159
      pz      :     0.013405  p :     0.057686
      px      :     0.028083
      py      :     0.016199

 13 H s       :     0.801741  s :     0.801741
      pz      :     0.013985  p :     0.058342
      px      :     0.010625
      py      :     0.033732

 14 H s       :     0.799801  s :     0.799801
      pz      :     0.013611  p :     0.057767
      px      :     0.028001
      py      :     0.016155

 15 H s       :     0.663432  s :     0.663432
      pz      :     0.044091  p :     0.155349
      px      :     0.080046
      py      :     0.031212

 16 H s       :     0.815325  s :     0.815325
      pz      :     0.027747  p :     0.060168
      px      :     0.012629
      py      :     0.019792

 17 H s       :     0.815319  s :     0.815319
      pz      :     0.027756  p :     0.060169
      px      :     0.012630
      py      :     0.019782

 18 H s       :     0.809312  s :     0.809312
      pz      :     0.013057  p :     0.060232
      px      :     0.025287
      py      :     0.021887


---------------------------------
LOEWDIN BOND ORDERS (THRESH 0.050000)
---------------------------------
B(  0-C ,  1-C ) :   1.2110 B(  0-C ,  2-C ) :   0.1753 B(  0-C ,  6-C ) :   0.1704 
B(  0-C ,  9-H ) :   0.8919 B(  0-C , 10-H ) :   0.8936 B(  0-C , 11-H ) :   0.8919 
B(  1-C ,  2-C ) :   1.4989 B(  1-C ,  3-C ) :   0.2335 B(  1-C ,  4-C ) :   0.0994 
B(  1-C ,  5-C ) :   0.2129 B(  1-C ,  6-C ) :   1.3919 B(  1-C ,  7-O ) :   0.1438 
B(  1-C ,  9-H ) :   0.0816 B(  1-C , 10-H ) :   0.0840 B(  1-C , 11-H ) :   0.0816 
B(  1-C , 12-H ) :   0.0949 B(  2-C ,  3-C ) :   1.5757 B(  2-C ,  4-C ) :   0.2466 
B(  2-C ,  5-C ) :   0.0986 B(  2-C ,  6-C ) :   0.2357 B(  2-C , 12-H ) :   0.8223 
B(  2-C , 13-H ) :   0.0960 B(  3-C ,  4-C ) :   1.5897 B(  3-C ,  5-C ) :   0.2345 
B(  3-C ,  6-C ) :   0.1021 B(  3-C , 12-H ) :   0.0947 B(  3-C , 13-H ) :   0.8315 
B(  3-C , 14-H ) :   0.0950 B(  4-C ,  5-C ) :   1.4891 B(  4-C ,  6-C ) :   0.2341 
B(  4-C ,  8-C ) :   0.1761 B(  4-C , 13-H ) :   0.0970 B(  4-C , 14-H ) :   0.8224 
B(  5-C ,  6-C ) :   1.4090 B(  5-C ,  7-O ) :   0.1379 B(  5-C ,  8-C ) :   1.2103 
B(  5-C , 14-H ) :   0.0944 B(  5-C , 16-H ) :   0.0784 B(  5-C , 17-H ) :   0.0784 
B(  5-C , 18-H ) :   0.0826 B(  6-C ,  7-O ) :   1.6016 B(  6-C ,  8-C ) :   0.1715 
B(  6-C , 15-H ) :   0.1025 B(  7-O , 15-H ) :   0.9920 B(  8-C , 16-H ) :   0.8945 
B(  8-C , 17-H ) :   0.8945 B(  8-C , 18-H ) :   0.8888 

------------------------------------------
LOEWDIN REDUCED ORBITAL POPULATIONS PER MO
-------------------------------------------
THRESHOLD FOR PRINTING IS 0.1%%
                      0         1         2         3         4         5   
                 -19.24300 -10.32828 -10.28182 -10.28087 -10.27517 -10.27023
                   2.00000   2.00000   2.00000   2.00000   2.00000   2.00000
                  --------  --------  --------  --------  --------  --------
 0 C  dxy             0.0       0.0       0.0       0.0       0.1       0.0
 1 C  s               0.0       0.0       0.0       0.0      98.5       0.0
 1 C  dxy             0.0       0.2       0.0       0.0       0.0       0.0
 2 C  s               0.0       0.0       0.0       0.0       0.2       0.0
 2 C  py              0.0       0.0       0.0       0.0       0.1       0.0
 2 C  dx2y2           0.0       0.0       0.0       0.0       0.2       0.0
 3 C  s               0.0       0.0       0.0       0.0       0.0       0.2
 3 C  px              0.0       0.0       0.0       0.0       0.0       0.1
 3 C  dxy             0.0       0.0       0.0       0.0       0.0       0.2
 4 C  s               0.0       0.0       0.0       0.1       0.0      98.5
 4 C  py              0.0       0.0       0.0       0.1       0.0       0.0
 4 C  dx2y2           0.0       0.0       0.0       0.2       0.0       0.0
 5 C  s               0.0       0.0       1.4      97.2       0.0       0.1
 5 C  py              0.0       0.0       0.0       0.0       0.0       0.1
 5 C  dx2y2           0.0       0.1       0.0       0.0       0.0       0.2
 5 C  dxy             0.0       0.2       0.1       0.0       0.0       0.0
 6 C  s               0.0      98.7       0.0       0.0       0.0       0.0
 6 C  dxy             0.0       0.0       0.0       0.2       0.2       0.0
 7 O  s              99.8       0.0       0.0       0.0       0.0       0.0
 7 O  py              0.0       0.1       0.0       0.0       0.0       0.0
 8 C  s               0.0       0.0      98.0       1.4       0.0       0.0

                      6         7         8         9        10        11   
                 -10.26783 -10.26330 -10.26040  -1.19244  -0.99187  -0.92295
                   2.00000   2.00000   2.00000   2.00000   2.00000   2.00000
                  --------  --------  --------  --------  --------  --------
 0 C  s               0.0       0.0      99.4       0.1       1.8       7.6
 0 C  px              0.0       0.0       0.0       0.4       0.8       1.1
 0 C  py              0.0       0.0       0.0       0.0       0.4       0.5
 0 C  dz2             0.0       0.0       0.0       0.0       0.1       0.1
 0 C  dxy             0.0       0.0       0.0       0.0       0.1       0.2
 1 C  s               0.2       0.0       0.0       0.9      10.4      11.2
 1 C  px              0.0       0.0       0.1       0.8       1.0       1.4
 1 C  py              0.1       0.0       0.0       1.0       0.9       0.0
 1 C  dz2             0.1       0.0       0.0       0.1       0.6       0.4
 1 C  dx2y2           0.2       0.0       0.0       0.0       0.0       0.1
 1 C  dxy             0.0       0.0       0.1       0.3       0.0       0.1
 1 C  f-3             0.1       0.0       0.0       0.0       0.1       0.1
 2 C  s              98.3       0.4       0.0       0.1      10.1       5.6
 2 C  px              0.0       0.1       0.0       0.0       1.8       0.3
 2 C  py              0.0       0.0       0.0       0.1       0.8       1.7
 2 C  dz2             0.0       0.1       0.0       0.0       0.5       0.2
 2 C  dx2y2           0.0       0.1       0.0       0.0       0.0       0.4
 2 C  dxy             0.0       0.2       0.0       0.0       0.0       0.0
 3 C  s               0.4      98.2       0.0       0.0       9.6       0.1
 3 C  px              0.1       0.0       0.0       0.0       0.0       3.0
 3 C  py              0.0       0.0       0.0       0.0       2.8       0.0
 3 C  dz2             0.1       0.0       0.0       0.0       0.5       0.0
 3 C  dxy             0.2       0.0       0.0       0.0       0.0       0.7
 4 C  s               0.0       0.2       0.0       0.1      10.8       4.3
 4 C  px              0.0       0.1       0.0       0.0       1.7       0.8
 4 C  py              0.0       0.0       0.0       0.1       1.0       2.0
 4 C  dz2             0.0       0.1       0.0       0.0       0.6       0.1
 4 C  dx2y2           0.0       0.1       0.0       0.0       0.0       0.5
 4 C  dxy             0.0       0.2       0.0       0.0       0.0       0.0
 5 C  s               0.0       0.0       0.0       1.0      11.5      11.3
 5 C  px              0.0       0.0       0.0       0.8       0.8       2.9
 5 C  py              0.0       0.0       0.0       1.1       0.9       0.0
 5 C  dz2             0.0       0.0       0.0       0.1       0.6       0.4
 5 C  dxy             0.0       0.0       0.0       0.3       0.0       0.2
 5 C  f-3             0.0       0.0       0.0       0.0       0.1       0.1
 6 C  s               0.0       0.0       0.0       9.7       6.7       0.0
 6 C  px              0.0       0.0       0.0       0.0       0.0      11.0
 6 C  py              0.0       0.0       0.0       8.7       6.5       0.0
 6 C  dz2             0.0       0.0       0.0       1.3       0.3       0.0
 6 C  dx2y2           0.0       0.0       0.0       2.7       0.6       0.0
 6 C  dxy             0.0       0.0       0.0       0.0       0.0       0.8
 6 C  f-1             0.0       0.0       0.0       0.2       0.1       0.0
 6 C  f-3             0.0       0.0       0.0       0.5       0.0       0.0
 7 O  s               0.0       0.0       0.0      51.8       2.1       0.0
 7 O  px              0.0       0.0       0.0       1.1       0.2       0.7
 7 O  py              0.0       0.0       0.0       1.1       1.1       0.1
 8 C  s               0.0       0.0       0.0       0.2       2.3      11.9
 8 C  px              0.0       0.0       0.0       0.5       0.9       1.0
 8 C  py              0.0       0.0       0.0       0.0       0.5       0.4
 8 C  dz2             0.0       0.0       0.0       0.0       0.1       0.1
 8 C  dxy             0.0       0.0       0.0       0.0       0.2       0.2
 9 H  s               0.0       0.0       0.1       0.0       0.3       1.4
10 H  s               0.0       0.0       0.1       0.0       0.4       1.6
10 H  px              0.0       0.0       0.0       0.0       0.0       0.1
11 H  s               0.0       0.0       0.1       0.0       0.3       1.4
12 H  s               0.0       0.0       0.0       0.0       1.3       1.2
13 H  s               0.0       0.0       0.0       0.0       1.2       0.0
14 H  s               0.0       0.0       0.0       0.0       1.4       1.0
15 H  s               0.0       0.0       0.0      11.2       0.7       0.2
15 H  px              0.0       0.0       0.0       2.3       0.2       0.0
15 H  py              0.0       0.0       0.0       0.5       0.0       0.0
16 H  s               0.0       0.0       0.0       0.0       0.4       2.4
16 H  pz              0.0       0.0       0.0       0.0       0.0       0.1
17 H  s               0.0       0.0       0.0       0.0       0.4       2.4
17 H  pz              0.0       0.0       0.0       0.0       0.0       0.1
18 H  s               0.0       0.0       0.0       0.0       0.5       2.6
18 H  px              0.0       0.0       0.0       0.0       0.0       0.2

                     12        13        14        15        16        17   
                  -0.88489  -0.82740  -0.80850  -0.72869  -0.70447  -0.65491
                   2.00000   2.00000   2.00000   2.00000   2.00000   2.00000
                  --------  --------  --------  --------  --------  --------
 0 C  s               6.6       4.9      15.6       0.1       3.6       0.0
 0 C  px              0.5       0.2       0.5       0.5       4.2       0.1
 0 C  py              0.0       0.1       0.5       0.9       1.1       0.1
 0 C  dz2             0.0       0.0       0.0       0.0       0.2       0.0
 0 C  dx2y2           0.1       0.1       0.0       0.2       0.1       0.1
 0 C  dxy             0.0       0.0       0.1       0.0       0.3       0.0
 1 C  s               3.8       0.1       0.5       0.1       5.5       1.1
 1 C  px              0.3       8.0       4.9       1.7       0.4       2.2
 1 C  py              4.3       1.7       6.2       7.6       0.2       0.5
 1 C  dx2y2           0.7       0.5       0.7       0.0       0.4       0.9
 1 C  dxy             0.0       0.8       0.9       0.2       0.3       0.6
 2 C  s               3.3       4.5       7.5       2.0       0.1       3.6
 2 C  px              3.0       0.3       0.1       3.0       0.6       6.2
 2 C  py              4.6       0.6       0.1       2.4       8.7       3.4
 2 C  dx2y2           0.8       0.0       0.2       0.0       0.4       0.1
 2 C  dxy             0.3       0.5       0.1       0.2       0.3       0.0
 3 C  s              15.9       1.8       0.1       5.7       2.8       0.9
 3 C  px              0.0       1.7      10.1       0.8       3.7       3.2
 3 C  py              0.2       0.2       0.0       2.4       1.4       0.2
 3 C  dz2             0.3       0.0       0.0       0.0       0.0       0.0
 3 C  dx2y2           0.3       0.1       0.0       0.0       0.0       0.6
 3 C  dxy             0.0       0.3       1.4       0.0       0.0       0.0
 3 C  f-3             0.1       0.0       0.0       0.0       0.0       0.0
 4 C  s               5.3       0.3      10.6       0.0       4.2       0.3
 4 C  px              2.7       0.0       0.4       1.0       3.8       6.9
 4 C  py              3.9       1.0       0.2       7.9       0.1       1.9
 4 C  dx2y2           0.6       0.2       0.1       0.3       0.1       0.1
 4 C  dxy             0.3       0.6       0.0       0.5       0.0       0.0
 5 C  s               2.1       1.1       0.2       3.9       1.7       0.9
 5 C  px              0.3      10.6       0.1       0.2       3.7       4.1
 5 C  py              4.8       0.5       6.5       1.1       8.3       1.1
 5 C  dx2y2           1.0       0.0       1.2       0.2       0.0       0.3
 5 C  dxy             0.0       1.6       0.0       0.1       0.1       0.6
 6 C  s               3.8       8.6       1.1       1.9       1.1       0.1
 6 C  px              0.1       0.0       0.0       5.9      14.0       0.1
 6 C  py              0.4       1.2       0.3       3.3       0.0       8.8
 6 C  dx2y2           1.6       0.0       0.0       0.0       0.3       0.4
 6 C  dxy             0.0       0.3       0.6       0.0       0.4       1.2
 6 C  f+3             0.0       0.0       0.1       0.1       0.0       0.1
 7 O  s               1.5       0.7       0.2       0.1       1.0       0.2
 7 O  px              0.3       0.7       0.1       7.8       1.7       8.1
 7 O  py              2.3       4.7       0.4      13.1       1.8      13.0
 7 O  dx2y2           0.1       0.2       0.0       0.4       0.0       0.3
 7 O  dxy             0.0       0.0       0.0       0.0       0.2       0.2
 8 C  s               6.3      14.2       2.0       2.8       0.6       0.3
 8 C  px              0.2       0.9       0.1       2.6       3.4       0.7
 8 C  py              0.0       0.3       0.6       0.7       0.3       5.3
 8 C  dz2             0.0       0.0       0.0       0.1       0.0       0.1
 8 C  dx2y2           0.1       0.1       0.0       0.0       0.5       0.0
 8 C  dxy             0.0       0.1       0.1       0.2       0.0       0.2
 9 H  s               1.5       1.2       5.0       0.0       2.1       0.0
 9 H  pz              0.1       0.1       0.3       0.0       0.1       0.0
 9 H  py              0.1       0.0       0.2       0.0       0.0       0.0
10 H  s               1.3       1.9       4.5       0.4       2.5       0.0
10 H  px              0.1       0.1       0.2       0.0       0.1       0.0
10 H  py              0.0       0.1       0.2       0.0       0.2       0.0
11 H  s               1.5       1.2       5.0       0.0       2.1       0.0
11 H  pz              0.1       0.1       0.3       0.0       0.1       0.0
11 H  py              0.1       0.0       0.2       0.0       0.0       0.0
12 H  s               0.6       2.0       1.9       1.2       0.3       8.4
12 H  px              0.1       0.1       0.1       0.0       0.1       0.4
12 H  py              0.0       0.0       0.1       0.1       0.0       0.1
13 H  s               3.4       0.7       0.1       4.1       2.3       0.1
13 H  py              0.3       0.1       0.0       0.3       0.2       0.0
14 H  s               1.0       0.0       3.8       0.0       4.4       1.7
14 H  px              0.1       0.0       0.3       0.0       0.2       0.0
14 H  py              0.0       0.0       0.1       0.0       0.1       0.1
15 H  s               0.9       1.8       0.0       5.5       0.0       6.2
15 H  px              0.2       0.2       0.0       0.5       0.0       0.2
16 H  s               1.5       4.7       0.9       1.5       0.2       1.3
16 H  pz              0.1       0.3       0.1       0.1       0.0       0.1
16 H  py              0.1       0.1       0.0       0.0       0.0       0.0
17 H  s               1.5       4.7       0.9       1.5       0.2       1.3
17 H  pz              0.1       0.3       0.1       0.1       0.0       0.1
17 H  py              0.1       0.1       0.0       0.0       0.0       0.0
18 H  s               1.3       4.7       0.4       1.6       1.9       0.0
18 H  px              0.1       0.2       0.0       0.0       0.1       0.0
18 H  py              0.0       0.2       0.0       0.1       0.1       0.0

                     18        19        20        21        22        23   
                  -0.60595  -0.57726  -0.56031  -0.53576  -0.52796  -0.51879
                   2.00000   2.00000   2.00000   2.00000   2.00000   2.00000
                  --------  --------  --------  --------  --------  --------
 0 C  s               0.2       0.1       0.0       0.1       0.0       0.0
 0 C  pz              0.0       0.0       5.6       0.0      24.2       0.0
 0 C  px              0.5       6.6       0.0       2.9       0.0       8.0
 0 C  py              6.4       0.2       0.0       5.9       0.0       4.8
 0 C  dz2             0.2       0.0       0.0       0.1       0.0       0.1
 0 C  dyz             0.0       0.0       0.1       0.0       0.5       0.0
 0 C  dx2y2           0.0       0.2       0.0       0.0       0.0       0.0
 0 C  dxy             0.2       0.1       0.0       0.2       0.0       0.2
 1 C  s               0.9       1.2       0.0       0.8       0.0       0.0
 1 C  pz              0.0       0.0       6.4       0.0       7.9       0.0
 1 C  px              3.6       0.2       0.0       7.4       0.0       0.5
 1 C  py              1.0       6.9       0.0       0.8       0.0       1.9
 1 C  dxz             0.0       0.0       0.1       0.0       0.3       0.0
 1 C  dyz             0.0       0.0       0.1       0.0       0.2       0.0
 1 C  dx2y2           0.1       0.2       0.0       0.1       0.0       0.5
 1 C  dxy             0.5       0.0       0.0       0.7       0.0       0.1
 1 C  f+3             0.0       0.1       0.0       0.2       0.0       0.1
 2 C  s               0.1       0.4       0.0       0.6       0.0       0.2
 2 C  pz              0.0       0.0       1.9       0.0       1.9       0.0
 2 C  px              8.2       0.1       0.0       2.6       0.0       0.6
 2 C  py              2.6       3.3       0.0       5.6       0.0       1.7
 2 C  dyz             0.0       0.0       0.1       0.0       0.2       0.0
 2 C  dx2y2           0.2       0.9       0.0       0.0       0.0       0.3
 2 C  dxy             0.1       0.1       0.0       2.0       0.0       0.1
 2 C  f+3             0.0       0.2       0.0       0.2       0.0       0.0
 3 C  s               0.1       0.7       0.0       1.0       0.0       0.1
 3 C  pz              0.0       0.0       1.3       0.0       0.2       0.0
 3 C  px              8.4       2.9       0.0       1.2       0.0       0.0
 3 C  py              5.7      17.8       0.0       0.3       0.0       2.1
 3 C  dx2y2           0.1       0.5       0.0       1.1       0.0       0.7
 4 C  s               0.7       0.9       0.0       0.5       0.0       0.5
 4 C  pz              0.0       0.0       3.0       0.0       0.0       0.0
 4 C  px              1.7       4.6       0.0       8.1       0.0       0.1
 4 C  py             13.7       0.6       0.0       0.6       0.0       0.0
 4 C  dyz             0.0       0.0       0.3       0.0       0.0       0.0
 4 C  dx2y2           0.1       0.6       0.0       0.1       0.0       0.0
 4 C  dxy             0.0       0.3       0.0       2.5       0.0       0.0
 4 C  f+3             0.1       0.0       0.0       0.1       0.0       0.0
 5 C  s               0.2       1.2       0.0       1.2       0.0       0.1
 5 C  pz              0.0       0.0      11.8       0.0       0.9       0.0
 5 C  px              0.2       2.8       0.0       6.2       0.0       0.2
 5 C  py              6.6       0.1       0.0       0.8       0.0       0.1
 5 C  dxz             0.0       0.0       0.0       0.0       1.2       0.0
 5 C  dyz             0.0       0.0       0.3       0.0       0.1       0.0
 5 C  dx2y2           0.2       0.7       0.0       0.1       0.0       1.6
 5 C  dxy             0.4       0.0       0.0       1.8       0.0       0.8
 5 C  f0              0.0       0.0       0.2       0.0       0.0       0.0
 5 C  f-2             0.0       0.0       0.0       0.0       0.1       0.0
 5 C  f+3             0.0       0.1       0.0       0.2       0.0       0.2
 6 C  s               0.4       0.1       0.0       2.1       0.0       0.4
 6 C  pz              0.0       0.0      13.5       0.0       2.5       0.0
 6 C  px              3.0       2.3       0.0       0.2       0.0       0.3
 6 C  py              0.6       3.1       0.0       2.8       0.0       0.1
 6 C  dz2             0.0       0.0       0.0       0.2       0.0       0.1
 6 C  dxz             0.0       0.0       0.0       0.0       0.5       0.0
 6 C  dx2y2           0.5       1.9       0.0       0.1       0.0       0.4
 6 C  dxy             0.9       0.1       0.0       0.1       0.0       0.2
 6 C  f0              0.0       0.0       0.2       0.0       0.0       0.0
 6 C  f+3             0.0       0.0       0.0       0.1       0.0       0.0
[...]
 5 C  f+3             0.8       0.0       0.0       0.0       0.1       0.2
 5 C  f-3             0.0       0.0       0.0       0.1       0.0       0.1
 6 C  s               1.1       0.0       0.0       0.9       0.9       0.9
 6 C  pz              0.0       0.0       0.6       0.0       0.0       0.0
 6 C  px              0.0       0.0       0.0       0.4       0.2       0.1
 6 C  py              0.5       0.0       0.0       0.6       1.7       0.0
 6 C  dz2             0.3       0.0       0.0       0.1       0.1       0.1
 6 C  dxz             0.0       0.6       0.0       0.0       0.0       0.0
 6 C  dyz             0.0       0.0       1.5       0.0       0.0       0.0
 6 C  dx2y2           0.8       0.0       0.0       1.3       0.8       0.4
 6 C  dxy             0.2       0.0       0.0       1.2       0.6       1.3
 6 C  f0              0.0       0.0       0.3       0.0       0.0       0.0
 6 C  f-1             0.0       0.0       0.0       0.0       0.2       0.0
 6 C  f+2             0.0       0.0       0.5       0.0       0.0       0.0
 6 C  f+3             7.5       0.0       0.0       0.1       0.0       2.2
 6 C  f-3             0.0       0.0       0.0       0.1       0.7       0.1
 7 O  s               3.3       0.0       0.0       2.2       0.8       2.5
 7 O  pz              0.0       0.1       0.9       0.0       0.0       0.0
 7 O  px              0.9       0.0       0.0       3.4       0.7       0.5
 7 O  py              0.0       0.0       0.0       0.3       2.5       0.3
 7 O  dz2            22.3       0.0       0.0      49.0       5.3       5.4
 7 O  dxz             0.0      95.6       0.1       0.0       0.0       0.0
 7 O  dyz             0.0       0.1      82.7       0.0       0.0       0.0
 7 O  dx2y2           3.7       0.0       0.0       0.8      69.2       8.1
 7 O  dxy            16.1       0.0       0.0      24.1       7.5      43.8
 7 O  f0              0.0       1.8       3.6       0.0       0.0       0.0
 7 O  f+1             0.9       0.0       0.0       5.1       0.9       2.4
 7 O  f-1             0.4       0.0       0.0       1.5       2.4       0.4
 7 O  f+2             0.0       0.7       9.1       0.0       0.0       0.0
 7 O  f-2             0.0       0.1       0.2       0.0       0.0       0.0
 7 O  f+3            10.2       0.0       0.0       0.3       0.1      13.4
 7 O  f-3            18.1       0.0       0.0       4.8       2.9       9.1
 8 C  s               0.0       0.0       0.0       0.0       0.1       0.0
15 H  s               2.9       0.0       0.0       2.0       0.4       5.8
15 H  pz              0.0       0.3       0.0       0.0       0.0       0.0
15 H  px              1.1       0.0       0.0       0.1       0.0       0.2
15 H  py              0.4       0.0       0.0       0.1       0.1       0.0

                    330       331       332       333       334       335   
                  22.21477  22.52762  22.54907  22.82750  22.83599  23.03128
                   0.00000   0.00000   0.00000   0.00000   0.00000   0.00000
                  --------  --------  --------  --------  --------  --------
 0 C  s               0.4       3.1      89.0       4.3       0.9       0.1
 1 C  s              11.7       0.0       1.0       0.3       6.9       6.0
 1 C  px              0.0       0.0       0.2       0.1       0.0       0.1
 1 C  py              0.1       0.0       0.1       0.1       0.0       0.3
 1 C  dx2y2           0.0       0.0       0.1       0.1       0.0       0.2
 1 C  dxy             0.0       0.0       0.2       0.0       0.0       0.0
 2 C  s              19.9       1.4       2.5      44.5       1.5      23.0
 2 C  px              0.0       0.0       0.0       0.0       0.1       0.0
 2 C  py              0.0       0.0       0.0       0.0       0.2       0.1
 3 C  s              20.3       0.6       0.7       0.1      73.2       0.6
 3 C  px              0.0       0.0       0.0       0.5       0.0       0.0
 3 C  py              0.1       0.0       0.0       0.0       0.0       0.0
 3 C  dxy             0.0       0.0       0.0       0.2       0.0       0.0
 4 C  s              21.0       2.0       0.6      46.3       3.4      17.6
 4 C  px              0.0       0.0       0.0       0.0       0.2       0.0
 4 C  py              0.0       0.0       0.0       0.0       0.3       0.1
 5 C  s              12.6       0.7       0.0       0.1       9.3       1.6
 5 C  px              0.0       0.2       0.0       0.1       0.0       0.1
 5 C  py              0.1       0.1       0.0       0.2       0.0       0.3
 5 C  dx2y2           0.0       0.0       0.0       0.1       0.0       0.2
 5 C  dxy             0.0       0.2       0.0       0.0       0.0       0.0
 6 C  s              12.2       0.4       0.9       0.2       1.3      48.5
 6 C  px              0.0       0.1       0.0       0.3       0.0       0.0
 6 C  py              0.1       0.0       0.0       0.0       0.0       0.0
 6 C  dx2y2           0.2       0.0       0.0       0.0       0.0       0.1
 7 O  s               0.2       0.0       0.0       0.0       0.0       0.2
 7 O  py              0.1       0.0       0.0       0.0       0.0       0.2
 8 C  s               0.1      90.2       3.7       2.0       1.6       0.3
 9 H  s               0.0       0.0       0.2       0.0       0.0       0.0
10 H  s               0.0       0.0       0.1       0.0       0.0       0.0
11 H  s               0.0       0.0       0.2       0.0       0.0       0.0
12 H  s               0.1       0.0       0.0       0.1       0.0       0.0
13 H  s               0.1       0.0       0.0       0.0       0.1       0.0
14 H  s               0.1       0.0       0.0       0.1       0.0       0.0
16 H  s               0.0       0.2       0.0       0.0       0.0       0.0
17 H  s               0.0       0.2       0.0       0.0       0.0       0.0
18 H  s               0.0       0.1       0.0       0.0       0.0       0.0

                    336       337       338   
                  23.14346  23.56429  44.05582
                   0.00000   0.00000   0.00000
                  --------  --------  --------
 0 C  s               0.3       0.1       0.0
 1 C  s              42.2      30.3       0.0
 1 C  px              0.2       0.1       0.0
 1 C  dxy             0.0       0.1       0.0
 2 C  s               0.0       5.1       0.0
 3 C  s               0.2       2.6       0.0
 4 C  s               1.3       5.7       0.0
 5 C  s              53.7      20.3       0.0
 5 C  px              0.2       0.0       0.0
 5 C  dxy             0.0       0.1       0.0
 6 C  s               0.0      34.2       0.0
 6 C  px              0.7       0.0       0.0
 6 C  dxy             0.3       0.0       0.0
 7 O  s               0.0       0.0      99.7
 8 C  s               0.1       0.1       0.0


                      *****************************
                      * MAYER POPULATION ANALYSIS *
                      *****************************

  NA   - Mulliken gross atomic population
  ZA   - Total nuclear charge
  QA   - Mulliken gross atomic charge
  VA   - Mayer's total valence
  BVA  - Mayer's bonded valence
  FA   - Mayer's free valence

  ATOM       NA         ZA         QA         VA         BVA        FA
  0 C      6.3321     6.0000    -0.3321     3.9139     3.9139     0.0000
  1 C      5.9638     6.0000     0.0362     3.7405     3.7405    -0.0000
  2 C      6.1742     6.0000    -0.1742     3.9906     3.9906    -0.0000
  3 C      6.1300     6.0000    -0.1300     3.9660     3.9660    -0.0000
  4 C      6.1870     6.0000    -0.1870     3.9840     3.9840     0.0000
  5 C      5.8759     6.0000     0.1241     3.5050     3.5050     0.0000
  6 C      5.8764     6.0000     0.1236     4.0173     4.0173    -0.0000
  7 O      8.3890     8.0000    -0.3890     2.1019     2.1019    -0.0000
  8 C      6.4750     6.0000    -0.4750     3.8892     3.8892    -0.0000
  9 H      0.8781     1.0000     0.1219     0.9697     0.9697     0.0000
 10 H      0.8892     1.0000     0.1108     0.9730     0.9730     0.0000
 11 H      0.8781     1.0000     0.1219     0.9697     0.9697     0.0000
 12 H      0.8910     1.0000     0.1090     0.9701     0.9701    -0.0000
 13 H      0.8885     1.0000     0.1115     0.9722     0.9722    -0.0000
 14 H      0.8923     1.0000     0.1077     0.9740     0.9740     0.0000
 15 H      0.6828     1.0000     0.3172     0.9178     0.9178    -0.0000
 16 H      0.8619     1.0000     0.1381     0.9551     0.9551    -0.0000
 17 H      0.8619     1.0000     0.1381     0.9551     0.9551    -0.0000
 18 H      0.8729     1.0000     0.1271     0.9842     0.9842     0.0000

  Mayer bond orders larger than 0.100000
B(  0-C ,  1-C ) :   0.9624 B(  0-C ,  9-H ) :   0.9669 B(  0-C , 10-H ) :   0.9939 
B(  0-C , 11-H ) :   0.9669 B(  1-C ,  2-C ) :   1.4341 B(  1-C ,  6-C ) :   1.3692 
B(  2-C ,  3-C ) :   1.4345 B(  2-C , 12-H ) :   0.9713 B(  3-C ,  4-C ) :   1.4527 
B(  3-C , 13-H ) :   0.9807 B(  4-C ,  5-C ) :   1.3885 B(  4-C , 14-H ) :   0.9657 
B(  5-C ,  6-C ) :   1.3317 B(  5-C ,  8-C ) :   0.8788 B(  6-C ,  7-O ) :   1.2048 
B(  7-O , 15-H ) :   0.8845 B(  8-C , 16-H ) :   0.9834 B(  8-C , 17-H ) :   0.9835 
B(  8-C , 18-H ) :   0.9819 

-------
TIMINGS
-------

Total SCF time: 0 days 0 hours 8 min 49 sec 

Total time                  ....     529.515 sec
Sum of individual times     ....     525.800 sec  ( 99.3%)

SCF preparation             ....       0.959 sec  (  0.2%)
Fock matrix formation       ....     517.579 sec  ( 97.7%)
  Startup                   ....       0.013 sec  (  0.0% of F)
  Split-RI-J                ....      18.010 sec  (  3.5% of F)
  Chain of spheres X        ....     449.967 sec  ( 86.9% of F)
  XC integration            ....      53.064 sec  ( 10.3% of F)
    XC Preparation          ....       0.000 sec  (  0.0% of XC)
    Basis function eval.    ....      13.165 sec  ( 24.8% of XC)
    Density eval.           ....      17.107 sec  ( 32.2% of XC)
    XC-Functional eval.     ....       6.164 sec  ( 11.6% of XC)
    XC-Potential eval.      ....      15.589 sec  ( 29.4% of XC)
Diagonalization             ....       0.000 sec  (  0.0%)
Density matrix formation    ....       0.115 sec  (  0.0%)
Total Energy calculation    ....       0.012 sec  (  0.0%)
Population analysis         ....       4.427 sec  (  0.8%)
Orbital Transformation      ....       0.057 sec  (  0.0%)
Orbital Orthonormalization  ....       0.000 sec  (  0.0%)
DIIS solution               ....       0.201 sec  (  0.0%)
  MO trafo                  ....       0.000 sec  (  0.0 % of DIIS)
  Orb grad                  ....       0.000 sec  (  0.0 % of DIIS)
  Energy W gradient         ....       0.000 sec  (  0.0 % of DIIS)
  DIIS error                ....       0.026 sec  ( 12.9 % of DIIS)
  DIIS work                 ....       0.148 sec  ( 73.2 % of DIIS)
  Form Q                    ....       0.000 sec  (  0.0 % of DIIS)
  Form QpQm                 ....       0.000 sec  (  0.0 % of DIIS)
  Exp/Cayley                ....       0.000 sec  (  0.0 % of DIIS)
  Orb update                ....       0.000 sec  (  0.0 % of DIIS)
  Wake-sleep                ....       0.002 sec  (  0.9 % of DIIS)
SOSCF solution              ....       0.118 sec  (  0.0%)
  MO trafo                  ....       0.058 sec  ( 49.2 % of SOSCF)
  Orb grad                  ....       0.001 sec  (  0.7 % of SOSCF)
  Rot update                ....       0.003 sec  (  2.2 % of SOSCF)
  Step                      ....       0.056 sec  ( 47.8 % of SOSCF)
Grid generation             ....       2.332 sec  (  0.4%)
Finished LeanSCF after 530.6 sec

Maximum memory used throughout the entire LEANSCF-calculation: 49.4 MB
------------------   -----------------
gCP correction             0.011392318
------------------   -----------------

-------------------------   --------------------
FINAL SINGLE POINT ENERGY      -386.123570992668
-------------------------   --------------------


------------------------------------------------------------------------------
                              ORCA PROPERTY CALCULATIONS
------------------------------------------------------------------------------

GBWName                                 ... sp.gbw
Number of atoms                         ...     19
Number of basis functions               ...    339
Max core memory                         ...   1024 MB

Electric properties:
Dipole moment                           ... YES
Quadrupole moment                       ...  NO
Static polarizability (Dipole/Dipole)   ...  NO
Static polarizability (Dipole/Quad.)    ...  NO
Static polarizability (Quad./Quad.)     ...  NO
Static polarizability (Velocity)        ...  NO

Atomic electric properties:
Dipole moment                           ...  NO
Quadrupole moment                       ...  NO
Static polarizability                   ...  NO

Choice of electric origin               ... Center of mass
Position of electric origin             ...     0.002151    -0.006106     0.000001

General magnetic properties:
Magnetizability                         ...  NO

EPR properties:
g-Tensor (aka g-matrix)                 ...  NO
Zero-Field splitting spin-orbit         ...  NO
Zero-field splitting spin-spin          ...  NO
Hyperfine couplings                     ...  NO (   0 nuclei)
Quadrupole couplings                    ...  NO (   0 nuclei)
Contact density                         ...  NO (   0 nuclei)

NMR properties:
Chemical shifts                         ...  NO (   0 nuclei)
Spin-rotation constants                 ...  NO (   0 nuclei)
Spin-spin couplings                     ...  NO (   0 nuclei,    0 pairs)

Choice of magnetic origin               ... GIAO
Position of magnetic origin             ...     0.000000     0.000000     0.000000

Properties with geometric perturbations:
SCF Hessian                             ...  NO
IR spectrum                             ...  NO
VCD spectrum                            ...  NO
X-ray spectroscopy properties:
SCF XES/XAS/RIXS spectra                ...  NO


-------------
DIPOLE MOMENT
-------------

Method             : SCF
Type of density    : Electron Density
Multiplicity       :   1
Irrep              :   0
Energy             :  -386.1349633105681391 Eh
Relativity type    : 
Basis              : AO
                                X                 Y                 Z
Electronic contribution:     -0.301273798      -0.883967024       0.000097563
Nuclear contribution   :      0.859638184       1.023713066      -0.000050882
                        -----------------------------------------
Total Dipole Moment    :      0.558364385       0.139746043       0.000046681
                        -----------------------------------------
Magnitude (a.u.)       :      0.575586436
Magnitude (Debye)      :      1.463024452



--------------------
Rotational spectrum 
--------------------
 
Rotational constants in cm-1:             0.076210             0.058984             0.033667 
Rotational constants in MHz :          2284.706519          1768.304908          1009.321214 

Dipole components along the rotational axes: 
x,y,z [a.u.] :     0.557272     0.144039     0.000047 
x,y,z [Debye]:     1.416474     0.366118     0.000119 

 

Dipole moment calculation done in   0.0 sec 

Maximum memory used throughout the entire PROP-calculation: 31.6 MB

--------------------------------
SUGGESTED CITATIONS FOR THIS RUN
--------------------------------

Below you find a list of papers that are relevant to this ORCA run
We neither can nor want to force you to cite these papers, but we appreciate if you do
You receive ORCA, which is the product of decades of hard work by many enthusiastic individuals, for free
The only thing we kindly ask in return is that you cite our papers,
We deeply appreciate it, if you show your appreciation for ORCA by not just citing the generic ORCA reference.

Please note that relegating all ORCA citations to the supporting information does *not* help us.
SI sections are not indexed - citations you put there will not count into any citation statistics
But we need these citations in order to attract the funding resources that allow us to do what we are doing

Therefore, if you are a happy ORCA user, please consider citing a few of the papers listed below in the main body of your paper

In addition to the list printed below, the program has created the file sp.bibtex that contains the list in bibtex format
You can import this file easily into all common literature databanks and citation aid programs


List of essential papers. We consider these as the minimum necessary citations

  1. Neese,F.
     Software update: the ORCA program system, version 5.0
     WIRES Comput. Molec. Sci., 2022 12(1)e1606
     doi.org/10.1002/wcms.1606

List of papers to cite with high priority. The work reported in these papers was absolutely
necessary for this run to complete.
Our perspective: the developers of density functionals and basis sets usually get cited in chemistry papers
Good! But without the algorithms to do something with them, the functionals or basis sets would not do anything.
Hence, in our opinion, the algorithm design and method developments papers are equally worthy of getting cited

  1. Neese,F.
     An improvement of the resolution of the identity approximation for the formation of the Coulomb matrix
     J. Comp. Chem., 2003 24(14)1740-1747
     doi.org/10.1002/jcc.10318
  2. Neese,F.; Wennmohs,F.; Hansen,A.; Becker,U.
     Efficient, approximate and parallel Hartree-Fock and hybrid DFT calculations. A 'chain-of-spheres' algorithm for the Hartree-Fock exchange
     Chem. Phys., 2009 356(1-3)98-109
     doi.org/10.1016/j.chemphys.2008.10.036
  3. Helmich-Paris,B.; de Souza,B.; Neese,F.; Izsák,R.
     An improved chain of spheres for exchange algorithm
     J. Chem. Phys., 2021 155 104109
     doi.org/doi: 10.1063/5.0058766.
  4. Neese,F.
     The SHARK Integral Generation and Digestion System
     J. Comp. Chem., 2022  1-16
     doi.org/10.1002/jcc.26942

List of suggested additional citations. These are papers that are important in the 'surrounding' of 
of this run, or papers that preceded the highly important papers. If you like your results we are grateful for a citation.

  1. Izsak,R.; Neese,F.
     An overlap fitted chain of spheres exchange method
     J. Chem. Phys., 2011 135 144105
     doi.org/10.1063/1.3646921
  2. Izsak,R.; Hansen,A.; Neese,F.
     The resolution of identity and chain of spheres approximations for the LPNO-CCSD singles Fock term
     Molec. Phys., 2012 110 2413-2417
     doi.org/10.1080/00268976.2012.687466
  3. Neese,F.
     The ORCA program system
     WIRES Comput. Molec. Sci., 2012 2(1)73-78
     doi.org/10.1002/wcms.81
  4. Izsak,R.; Neese,F.; Klopper,W.
     Robust fitting techniques in the chain of spheres approximation to the Fock exchange: The role of the complementary space
     J. Chem. Phys., 2013 139 
     doi.org/10.1063/1.4819264
  5. Neese,F.
     Software update: the ORCA program system, version 4.0
     WIRES Comput. Molec. Sci., 2018 8(1)1-6
     doi.org/10.1002/wcms.1327
  6. Neese,F.; Wennmohs,F.; Becker,U.; Riplinger,C.
     The ORCA quantum chemistry program package
     J. Chem. Phys., 2020 152 Art. No. L224108
     doi.org/10.1063/5.0004608

List of optional additional citations

  1. Neese,F.
     Approximate second-order SCF convergence for spin unrestricted wavefunctions
     Chem. Phys. Lett., 2000 325(1-3)93-98
     doi.org/10.1016/s0009-2614(00)00662-x

Timings for individual modules:

Sum of individual times          ...      537.422 sec (=   8.957 min)
Startup calculation              ...        3.391 sec (=   0.057 min)   0.6 %
SCF iterations                   ...      533.915 sec (=   8.899 min)  99.3 %
Property calculations            ...        0.116 sec (=   0.002 min)   0.0 %
                             ****ORCA TERMINATED NORMALLY****
TOTAL RUN TIME: 0 days 0 hours 8 minutes 58 seconds 419 msec
