
                                 *****************
                                 * O   R   C   A *
                                 *****************

                                            #,                                       
                                            ###                                      
                                            ####                                     
                                            #####                                    
                                            ######                                   
                                           ########,                                 
                                     ,,################,,,,,                         
                               ,,#################################,,                 
                          ,,##########################################,,             
                       ,#########################################, ''#####,          
                    ,#############################################,,   '####,        
                  ,##################################################,,,,####,       
                ,###########''''           ''''###############################       
              ,#####''   ,,,,##########,,,,          '''####'''          '####       
            ,##' ,,,,###########################,,,                        '##       
           ' ,,###''''                  '''############,,,                           
         ,,##''                                '''############,,,,        ,,,,,,###''
      ,#''                                            '''#######################'''  
     '                                                          ''''####''''         
             ,#######,   #######,   ,#######,      ##                                
            ,#'     '#,  ##    ##  ,#'     '#,    #''#        ,####,   ,####,        
            ##       ##  ##   ,#'  ##            #'  '#       #'       #'  '#        
            ##       ##  #######   ##           ,######,      #####,   #    #        
            '#,     ,#'  ##    ##  '#,     ,#' ,#      #,     #,   #   #,  ,#        
             '#######'   ##     ##  '#######'  #'      '#     '####' # '####'        



                #########################################################
                #                        -***-                          #
                #          Department of theory and spectroscopy        #
                #                                                       #
                #                      Frank Neese                      #
                #                                                       #
                #     Directorship, Architecture, Infrastructure        #
                #                    SHARK, DRIVERS                     #
                #        Core code/Algorithms in most modules           #
                #                                                       #
                #        Max Planck Institute fuer Kohlenforschung      #
                #                Kaiser Wilhelm Platz 1                 #
                #                 D-45470 Muelheim/Ruhr                 #
                #                      Germany                          #
                #                                                       #
                #                  All rights reserved                  #
                #                        -***-                          #
                #########################################################


                         Program Version 6.0.1  -  RELEASE   -


 With contributions from (in alphabetic order):
[Max-Planck-Institut fuer Kohlenforschung]                               
  Daniel Aravena         : Magnetic Suceptibility                        
  Michael Atanasov       : Ab Initio Ligand Field Theory (pilot matlab implementation)
  Alexander A. Auer      : GIAO ZORA, VPT2 properties, NMR spectrum      
  Ute Becker             : All parallelization in ORCA, NUMFREQ, NUMCALC 
  Giovanni Bistoni       : ED, misc. LED, open-shell LED, HFLD           
  Martin Brehm           : Molecular dynamics                            
  Dmytro Bykov           : pre 5.0 version of the SCF Hessian            
  Marcos Casanova-Páez   : Triplet and SCS-CIS(D). UHF-(DLPNO)-IP/EA/STEOM-CCSD. UHF-CVS-IP/STEOM-CCSD   
  Vijay G. Chilkuri      : MRCI spin determinant printing, contributions to CSF-ICE 
  Pauline Colinet        : FMM embedding                                 
  Dipayan Datta          : RHF DLPNO-CCSD density                        
  Achintya Kumar Dutta   : EOM-CC, STEOM-CC                              
  Nicolas Foglia         : Exact transition moments, OPA infrastructure, MCD improvements    
  Dmitry Ganyushin       : Spin-Orbit,Spin-Spin,Magnetic field MRCI      
  Miquel Garcia-Rates    : C-PCM and meta-GGA Hessian, CCSD/C-PCM, Gaussian charge scheme 
  Tiago L. C. Gouveia    : GS-ROHF, GS-ROCIS                             
  Yang Guo               : DLPNO-NEVPT2, F12-NEVPT2, CIM, IAO-localization        
  Andreas Hansen         : Spin unrestricted coupled pair/coupled cluster methods 
  Ingolf Harden          : AUTO-CI MPn and infrastructure                
  Benjamin Helmich-Paris : MC-RPA, TRAH-(SCF,CASSCF), AVAS, COSX integrals, SCF dyn. polar. 
  Lee Huntington         : MR-EOM, pCC                                   
  Robert Izsak           : Overlap fitted RIJCOSX, COSX-SCS-MP3, EOM     
  Riya Kayal             : Wick's Theorem for AUTO-CI, AUTO-CI UHF-CCSDT 
  Emily Kempfer          : AUTO-CI, RHF CISDT and CCSDT                  
  Christian Kollmar      : KDIIS, OOCD, Brueckner-CCSD(T), CCSD density, CASPT2, CASPT2-K, improved NEVPT2 
  Axel Koslowski         : Symmetry handling                             
  Simone Kossmann        : meta-GGA functionals, TD-DFT gradient, OOMP2, (MP2 Hessian; deprecated post 5.0) 
  Lucas Lang             : DCDCAS                                        
  Marvin Lechner         : AUTO-CI (C++ implementation), FIC-MRCC        
  Spencer Leger          : CASSCF response                               
  Dagmar Lenk            : GEPOL surface, SMD, ORCA-2-JSON               
  Dimitrios Liakos       : Extrapolation schemes; Compound Job, initial MDCI parallelization 
  Dimitrios Manganas     : Further ROCIS development; embedding schemes. LFT, Crystal Embedding 
  Dimitrios Pantazis     : SARC Basis sets                               
  Anastasios Papadopoulos: AUTO-CI, single reference methods and gradients 
  Taras Petrenko         : pre 6.0 DFT Hessian and TD-DFT gradient, (ASA, deprecated), ECA, 1-Electron XAS/XES, NRVS 
  Peter Pinski           : DLPNO-MP2, DLPNO-MP2 Gradient                 
  Christoph Reimann      : Effective Core Potentials                     
  Marius Retegan         : Local ZFS, SOC                                
  Christoph Riplinger    : Optimizer, TS searches, QM/MM, DLPNO-CCSD(T), (RO)-DLPNO pert. Triples 
  Michael Roemelt        : Original ROCIS implementation                 
  Masaaki Saitow         : Open-shell DLPNO-CCSD energy and density      
  Barbara Sandhoefer     : DKH picture change effects                    
  Kantharuban Sivalingam : CASSCF convergence/infrastructure, NEVPT2 and variants, FIC-MRCI 
  Bernardo de Souza      : ESD, SOC TD-DFT                               
  Georgi L. Stoychev     : AutoAux, RI-MP2 NMR, DLPNO-MP2 response, X2C  
  Van Anh Tran           : RI-MP2 g-tensors                              
  Willem Van den Heuvel  : Paramagnetic NMR                              
  Zikuan Wang            : NOTCH, Electric field optimization            
  Frank Wennmohs         : Technical directorship and infrastructure     
  Hang Xu                : AUTO-CI-Response properties                   
                                                                         
[FACCTs GmbH]                                                            
  Markus Bursch, Miquel Garcia-Rates, Christoph Riplinger, Bernardo de Souza, Georgi L. Stoychev 
                                                                 
  APM, Basis sets (HGBS, AHGBS, def-TZVP (Ac-Lr), def2-XVPD (La-Lu)), CI-OPT, improved COSX, DLPNO-Multilevel,           
  DOCKER, DRACO, updates on ESD, GOAT, IRC, LR-CPCM, MBIS, meta-GGA TD-DFT gradient, ML-optimized integration grids, 
  MM, NACMEs, nearIR, NEB, NEB-TS, NL-DFT gradient (VV10), 2- and 3-layer-ONIOM, interface openCOSMO-RS, QMMM,   
  Crystal-QMMM, SF, symmetry and pop. for TD-DFT, r2SCAN hybrids, SOLVATOR                                   
                                                                         
[Other institutions]                                                     
  V. Asgeirsson          : NEB                                           
  Christoph Bannwarth    : sTDA-DFT, sTD-DFT, PBEh-3c, B97-3c, D3        
  Sebastian Ehlert       : rSCAN, r2SCAN, r2SCAN-3c, D4, dhf basis sets  
  Marvin Friede          : D4 for Fr, Ra, Ac-Lr                          
  Lars Goerigk           : TD-DFT with DH, B97 family of functionals     
  Stefan Grimme          : VdW corrections, initial TS optimization, DFT functionals, gCP, sTDA/sTD-DF 
  Waldemar Hujo          : DFT-NL                                        
  H. Jonsson             : NEB                                           
  Holger Kruse           : gCP                                           
  Marcel Mueller         : wB97X-3c, vDZP basis set                      
  Hagen Neugebauer       : wr2SCAN                                       
  Tobias Risthaus        : range-separated hybrid DFT                    
  Lukas Wittmann         : regularized MP2, r2SCAN double-hybrids, wr2SCAN        
                                                                         
We gratefully acknowledge several colleagues who have allowed us to      
interface, adapt or use parts of their codes:                            
  Ed Valeev, F. Pavosevic, A. Kumar             : LibInt (2-el integral package), F12 methods 
  Garnet Chan, S. Sharma, J. Yang, R. Olivares  : DMRG                   
  Ulf Ekstrom                                   : XCFun DFT Library      
  Mihaly Kallay                                 : mrcc  (arbitrary order and MRCC methods)
  Frank Weinhold                                : gennbo (NPA and NBO analysis)           
  Simon Mueller                                 : openCOSMO-RS                            
  Christopher J. Cramer and Donald G. Truhlar   : smd solvation model                     
  S Lehtola, MJT Oliveira, MAL Marques          : LibXC Library                           
  Liviu Ungur et al                             : ANISO software                          


 Your calculation uses the libint2 library for the computation of 2-el integrals
 For citations please refer to: http://libint.valeyev.net

 Your ORCA version has been built with support for libXC version: 6.2.2
 For citations please refer to: https://libxc.gitlab.io

 This ORCA versions uses:
   CBLAS   interface :  Fast vector & matrix operations
   LAPACKE interface :  Fast linear algebra routines
   SCALAPACK package :  Parallel linear algebra routines
   Shared memory     :  Shared parallel matrices
   BLAS/LAPACK       :  OpenBLAS 0.3.27  USE64BITINT DYNAMIC_ARCH NO_AFFINITY Zen SINGLE_THREADED
        Core in use  :  Zen
   Copyright (c) 2011-2014, The OpenBLAS Project


Your calculation utilizes the geometrical counterpoise correction gCP
Please cite in your paper:
H.Kruse, S. Grimme J.Chem.Phys., 136, (2012), 154101 
   

Your calculation utilizes the atom-pairwise dispersion correction
based on EEQ partial charges (D4)


================================================================================

----- Orbital basis set information -----
Your calculation utilizes the basis: def2-SV(P)
   F. Weigend and R. Ahlrichs, Phys. Chem. Chem. Phys. 7, 3297 (2005).

----- AuxJ basis set information -----
Your calculation utilizes the auxiliary basis: def2/J
   F. Weigend, Phys. Chem. Chem. Phys. 8, 1057 (2006).

================================================================================
                                        WARNINGS
                       Please study these warnings very carefully!
================================================================================

WARNING: Old DensityContainer found on disk!
         Will remove this file - 
         If you want to keep old densities, please start your calculation with a different basename. 


================================================================================
                                       INPUT FILE
================================================================================
NAME = sp.inp
|  1> ! pbe def2-sv(p) def2/J RI DEFGRID1 loosescf d4 GCP(DFT/SV(P)) printgap
|  2> %output
|  3>     printlevel normal
|  4> end
|  5> * xyz 0 1
|  6> C -2.154057671 0.4658713041 -0.6937916189
|  7> C -1.3379030677 0.3830084384 0.5976958742
|  8> C -0.0008629659 -0.2539646002 0.3006891075
|  9> O 0.2355430544 -1.4317609038 0.3417470934
| 10> O 0.9030912902 0.6691064845 -0.0528455087
| 11> C 2.1910220078 0.1846130599 -0.4060169803
| 12> H -3.1298488363 0.8998846617 -0.4909107
| 13> H -1.6423746257 1.0863120159 -1.4257683882
| 14> H -2.2949084596 -0.5271469334 -1.1140104104
| 15> H -1.8609680595 -0.2342828818 1.3280774409
| 16> H -1.1759569699 1.3817488915 1.0021528161
| 17> H 2.6274366967 -0.3711834622 0.4262736871
| 18> H 2.7926164327 1.0590190496 -0.6399424486
| 19> H 2.122711875 -0.4775045527 -1.2715580226
| 20> *
| 21> 
| 22>                          ****END OF INPUT****
================================================================================

                       ****************************
                       * Single Point Calculation *
                       ****************************

---------------------------------
CARTESIAN COORDINATES (ANGSTROEM)
---------------------------------
  C     -2.154058    0.465871   -0.693792
  C     -1.337903    0.383008    0.597696
  C     -0.000863   -0.253965    0.300689
  O      0.235543   -1.431761    0.341747
  O      0.903091    0.669106   -0.052846
  C      2.191022    0.184613   -0.406017
  H     -3.129849    0.899885   -0.490911
  H     -1.642375    1.086312   -1.425768
  H     -2.294908   -0.527147   -1.114010
  H     -1.860968   -0.234283    1.328077
  H     -1.175957    1.381749    1.002153
  H      2.627437   -0.371183    0.426274
  H      2.792616    1.059019   -0.639942
  H      2.122712   -0.477505   -1.271558

----------------------------
CARTESIAN COORDINATES (A.U.)
----------------------------
  NO LB      ZA    FRAG     MASS         X           Y           Z
   0 C     6.0000    0    12.011   -4.070579    0.880369   -1.311076
   1 C     6.0000    0    12.011   -2.528270    0.723781    1.129482
   2 C     6.0000    0    12.011   -0.001631   -0.479924    0.568220
   3 O     8.0000    0    15.999    0.445112   -2.705636    0.645808
   4 O     8.0000    0    15.999    1.706595    1.264428   -0.099864
   5 C     6.0000    0    12.011    4.140432    0.348868   -0.767261
   6 H     1.0000    0     1.008   -5.914557    1.700536   -0.927687
   7 H     1.0000    0     1.008   -3.103638    2.052832   -2.694312
   8 H     1.0000    0     1.008   -4.336748   -0.996163   -2.105175
   9 H     1.0000    0     1.008   -3.516720   -0.442730    2.509703
  10 H     1.0000    0     1.008   -2.222237    2.611127    1.893794
  11 H     1.0000    0     1.008    4.965136   -0.701435    0.805541
  12 H     1.0000    0     1.008    5.277280    2.001256   -1.209316
  13 H     1.0000    0     1.008    4.011344   -0.902353   -2.402896

--------------------------------
INTERNAL COORDINATES (ANGSTROEM)
--------------------------------
 C      0   0   0     0.000000000000     0.00000000     0.00000000
 C      1   0   0     1.530004750265     0.00000000     0.00000000
 C      2   1   0     1.510504520083   109.21038273     0.00000000
 O      3   2   1     1.201989058775   125.49163859   270.31427359
 O      3   2   1     1.339470137548   111.01749430    88.82143351
 C      5   3   2     1.420644044147   116.25776308   182.26364144
 H      1   2   3     1.087058719714   110.05471553   178.58352340
 H      1   2   3     1.087454002016   110.36988580   298.52750975
 H      1   2   3     1.087431835743   110.23230092    58.70873582
 H      2   1   3     1.090001281016   109.89539193   241.05971555
 H      2   1   3     1.089630418583   110.05744069   119.79696386
 H      6   5   3     1.091822013749   110.27171414   301.17915906
 H      6   5   3     1.086840748046   106.31664512   181.21033393
 H      6   5   3     1.091891616903   110.31317161    61.25489953

---------------------------
INTERNAL COORDINATES (A.U.)
---------------------------
 C      0   0   0     0.000000000000     0.00000000     0.00000000
 C      1   0   0     2.891289961599     0.00000000     0.00000000
 C      2   1   0     2.854439867006   109.21038273     0.00000000
 O      3   2   1     2.271430137054   125.49163859   270.31427359
 O      3   2   1     2.531231724531   111.01749430    88.82143351
 C      5   3   2     2.684628177224   116.25776308   182.26364144
 H      1   2   3     2.054243271751   110.05471553   178.58352340
 H      1   2   3     2.054990247047   110.36988580   298.52750975
 H      1   2   3     2.054948358861   110.23230092    58.70873582
 H      2   1   3     2.059803906743   109.89539193   241.05971555
 H      2   1   3     2.059103078313   110.05744069   119.79696386
 H      6   5   3     2.063244592972   110.27171414   301.17915906
 H      6   5   3     2.053831364993   106.31664512   181.21033393
 H      6   5   3     2.063376123872   110.31317161    61.25489953

---------------------
BASIS SET INFORMATION
---------------------
There are 3 groups of distinct atoms

 Group   1 Type C   : 7s4p1d contracted to 3s2p1d pattern {511/31/1}
 Group   2 Type O   : 7s4p1d contracted to 3s2p1d pattern {511/31/1}
 Group   3 Type H   : 4s contracted to 2s pattern {31}

Atom   0C    basis set group =>   1
Atom   1C    basis set group =>   1
Atom   2C    basis set group =>   1
Atom   3O    basis set group =>   2
Atom   4O    basis set group =>   2
Atom   5C    basis set group =>   1
Atom   6H    basis set group =>   3
Atom   7H    basis set group =>   3
Atom   8H    basis set group =>   3
Atom   9H    basis set group =>   3
Atom  10H    basis set group =>   3
Atom  11H    basis set group =>   3
Atom  12H    basis set group =>   3
Atom  13H    basis set group =>   3
---------------------------------
AUXILIARY/J BASIS SET INFORMATION
---------------------------------
There are 3 groups of distinct atoms

 Group   1 Type C   : 12s5p4d2f1g contracted to 6s4p3d1f1g pattern {711111/2111/211/2/1}
 Group   2 Type O   : 12s5p4d2f1g contracted to 6s4p3d1f1g pattern {711111/2111/211/2/1}
 Group   3 Type H   : 5s2p1d contracted to 3s1p1d pattern {311/2/1}

Atom   0C    basis set group =>   1
Atom   1C    basis set group =>   1
Atom   2C    basis set group =>   1
Atom   3O    basis set group =>   2
Atom   4O    basis set group =>   2
Atom   5C    basis set group =>   1
Atom   6H    basis set group =>   3
Atom   7H    basis set group =>   3
Atom   8H    basis set group =>   3
Atom   9H    basis set group =>   3
Atom  10H    basis set group =>   3
Atom  11H    basis set group =>   3
Atom  12H    basis set group =>   3
Atom  13H    basis set group =>   3

Checking for AutoStart:
The File: sp.gbw exists
Trying to determine its content:
     ... Fine, the file contains calculation information
     ... Fine, the calculation information was read
     ... Fine, the file contains a basis set
     ... Fine, the basis set was read
     ... Fine, the file contains a geometry
     ... Fine, the geometry was read
     ... Fine, the file contains a set of orbitals
     ... Fine, the orbitals can be read
     => possible old guess file was deleted
     => GBW file was renamed to GES file
     => GES file is set as startup file
     => Guess is set to MORead
     ... now leaving AutoStart

------------------------------------------------------------------------------
                             ORCA STARTUP CALCULATIONS
                           -- RI-GTO INTEGRALS CHOSEN --
------------------------------------------------------------------------------
------------------------------------------------------------------------------
                   ___                                                        
                  /   \      - P O W E R E D   B Y -                         
                 /     \                                                     
                 |  |  |   _    _      __       _____    __    __             
                 |  |  |  | |  | |    /  \     |  _  \  |  |  /  |          
                  \  \/   | |  | |   /    \    | | | |  |  | /  /          
                 / \  \   | |__| |  /  /\  \   | |_| |  |  |/  /          
                |  |  |   |  __  | /  /__\  \  |    /   |      \           
                |  |  |   | |  | | |   __   |  |    \   |  |\   \          
                \     /   | |  | | |  |  |  |  | |\  \  |  | \   \       
                 \___/    |_|  |_| |__|  |__|  |_| \__\ |__|  \__/        
                                                                              
                      - O R C A' S   B I G   F R I E N D -                    
                                      &                                       
                       - I N T E G R A L  F E E D E R -                       
                                                                              
 v1 FN, 2020, v2 2021, v3 2022-2024                                           
------------------------------------------------------------------------------


----------------------
SHARK INTEGRAL PACKAGE
----------------------

Number of atoms                             ...     14
Number of basis functions                   ...    100
Number of shells                            ...     52
Maximum angular momentum                    ...      2
Integral batch strategy                     ... SHARK/LIBINT Hybrid
RI-J (if used) integral strategy            ... SPLIT-RIJ (Revised 2003 algorithm where possible)
Printlevel                                  ...      1
Contraction scheme used                     ... SEGMENTED contraction
Prescreening option                         ... SCHWARTZ
   Thresh                                   ... 1.000e-09
   Tcut                                     ... 1.000e-10
   Tpresel                                  ... 1.000e-10 
Coulomb Range Separation                    ... NOT USED
Exchange Range Separation                   ... NOT USED
Multipole approximations                    ... NOT USED
Finite Nucleus Model                        ... NOT USED
CABS basis                                  ... NOT available
Auxiliary Coulomb fitting basis             ... AVAILABLE
   # of basis functions in Aux-J            ...    382
   # of shells in Aux-J                     ...    130
   Maximum angular momentum in Aux-J        ...      4
Auxiliary J/K fitting basis                 ... NOT available
Auxiliary Correlation fitting basis         ... NOT available
Auxiliary 'external' fitting basis          ... NOT available

Checking pre-screening integrals            ... done (  0.0 sec) Dimension = 52
Check shell pair data                       ... done (  0.0 sec)
Shell pair information
Shell pair cut-off parameter TPreSel        ...   1.0e-10
Total number of shell pairs                 ...      1378
Shell pairs after pre-screening             ...      1335
Total number of primitive shell pairs       ...      5562
Primitive shell pairs kept                  ...      3900
          la=0 lb=0:    565 shell pairs
          la=1 lb=0:    403 shell pairs
          la=1 lb=1:     78 shell pairs
          la=2 lb=0:    196 shell pairs
          la=2 lb=1:     72 shell pairs
          la=2 lb=2:     21 shell pairs

Calculating one electron integrals          ... done (  0.0 sec)
Calculating RI/J V-Matrix + Cholesky decomp.... done (  0.0 sec)
Calculating Nuclear repulsion               ... done (  0.0 sec) ENN=    247.349422331433 Eh

Diagonalization of the overlap matrix:
Smallest eigenvalue                        ... 2.319e-03
Time for diagonalization                   ...    0.001 sec
Threshold for overlap eigenvalues          ... 1.000e-07
Number of eigenvalues below threshold      ... 0
Time for construction of square roots      ...    0.001 sec
Total time needed                          ...    0.007 sec

-------------------
DFT GRID GENERATION
-------------------

General Integration Accuracy     IntAcc      ... 4.159
Radial Grid Type                 RadialGrid  ... OptM3 with GC (2021)
Angular Grid (max. ang.)         AngularGrid ... 3 (Lebedev-194)
Angular grid pruning method      GridPruning ... 4 (adaptive)
Weight generation scheme         WeightScheme... mBecke (2022)
Basis function cutoff            BFCut       ... 1.0000e-10
Integration weight cutoff        WCut        ... 1.0000e-14
Partially contracted basis set               ... off
Rotationally invariant grid construction     ... off
Angular grids for H and He will be reduced by one unit

Total number of grid points                  ...    31176
Total number of batches                      ...      495
Average number of points per batch           ...       62
Average number of grid points per atom       ...     2227
Initializing property integral containers    ... done (  0.0 sec)

SHARK setup successfully completed in   0.3 seconds

Maximum memory used throughout the entire STARTUP-calculation: 15.8 MB
-------------------------------------------------------------------------------
                                 ORCA GUESS
                   Start orbitals & Density for SCF / CASSCF
-------------------------------------------------------------------------------

------------
SCF SETTINGS
------------
Hamiltonian:
 Density Functional     Method          .... DFT(GTOs)
 Exchange Functional    Exchange        .... PBE
   PBE kappa parameter   XKappa         ....  0.804000
   PBE mue parameter    XMuePBE         ....  0.219520
 Correlation Functional Correlation     .... PBE
   PBE beta parameter  CBetaPBE         ....  0.066725
 LDA part of GGA corr.  LDAOpt          .... PW91-LDA
 Gradients option       PostSCFGGA      .... off
   NL short-range parameter             ....  6.400000
 RI-approximation to the Coulomb term is turned on
   Number of AuxJ basis functions       .... 382


General Settings:
 Integral files         IntName         .... sp
 Hartree-Fock type      HFTyp           .... RHF
 Total Charge           Charge          ....    0
 Multiplicity           Mult            ....    1
 Number of Electrons    NEL             ....   48
 Basis Dimension        Dim             ....  100
 Nuclear Repulsion      ENuc            ....    247.3494223314 Eh

Convergence Acceleration:
 AO-DIIS                CNVDIIS         .... on
   Start iteration      DIISMaxIt       ....    12
   Startup error        DIISStart       ....  0.200000
   # of expansion vecs  DIISMaxEq       ....     5
   Bias factor          DIISBfac        ....   1.050
   Max. coefficient     DIISMaxC        ....  10.000
 MO-DIIS                CNVKDIIS        .... off
 Trust-Rad. Augm. Hess. CNVTRAH         .... auto
   Auto Start mean grad. ratio tolernc. ....  1.125000
   Auto Start start iteration           ....     1
   Auto Start num. interpolation iter.  ....    10
   Max. Number of Micro iterations      ....    24
   Max. Number of Macro iterations      .... Maxiter - #DIIS iter
   Number of Davidson start vectors     ....     2
   Converg. threshold    (grad. norm)   ....   1.000e-04
   Grad. Scal. Fac. for Micro threshold ....   0.100
   Minimum threshold for Micro iter.    ....   1.000e-02
   NR start threshold (gradient norm)   ....   1.000e-04
   Initial trust radius                 ....   0.400
   Minimum AH scaling param. (alpha)    ....   1.000
   Maximum AH scaling param. (alpha)    .... 1000.000
   Quad. conv. algorithm                .... NR
   White noise on init. David. guess    .... on
   Maximum white noise                  ....   0.010
   Pseudo random numbers                .... off
   Inactive MOs                         .... canonical
   Orbital update algorithm             .... Taylor
   Preconditioner                       .... Diag
   Full preconditioner red. dimension   ....   250
 SOSCF                  CNVSOSCF        .... on
   Start iteration      SOSCFMaxIt      ....   150
   Startup grad/error   SOSCFStart      ....  0.003300
   Hessian update       SOSCFHessUp     .... L-BFGS
 Level Shifting         CNVShift        .... on
   Level shift para.    LevelShift      ....    0.2500
   Turn off err/grad.   ShiftErr        ....    0.0010
 Zerner damping         CNVZerner       .... off
 Static damping         CNVDamp         .... on
   Fraction old density DampFac         ....    0.7000
   Max. Damping (<1)    DampMax         ....    0.9800
   Min. Damping (>=0)   DampMin         ....    0.0000
   Turn off err/grad.   DampErr         ....    0.1000

SCF Procedure:
 Maximum # iterations   MaxIter         ....   125
 SCF integral mode      SCFMode         .... Direct
   Integral package                     .... SHARK and LIBINT hybrid scheme
 Reset frequency        DirectResetFreq ....    20
 Integral Threshold     Thresh          ....  1.000e-09 Eh
 Primitive CutOff       TCut            ....  1.000e-10 Eh

Convergence Tolerance:
 Convergence Check Mode ConvCheckMode   .... Total+1el-Energy
 Convergence forced     ConvForced      .... 0
 Energy Change          TolE            ....  1.000e-05 Eh
 1-El. energy change                    ....  1.000e-02 Eh
 Orbital Gradient       TolG            ....  1.000e-04
 Orbital Rotation angle TolX            ....  1.000e-04
 DIIS Error             TolErr          ....  5.000e-04

---------------------
INITIAL GUESS: MOREAD
---------------------
Guess MOs are being read from file: sp.ges
Input Geometry matches current geometry (good)
Input basis set matches current basis set (good)
Occupation numbers will be reassigned to an Aufbau configuration
MOs were renormalized
MOs were reorthogonalized (Cholesky)
                      ------------------
                      INITIAL GUESS DONE (   0.0 sec)
                      ------------------
             **** ENERGY FILE WAS UPDATED (sp.en.tmp) ****
Finished Guess after   0.0 sec
Maximum memory used throughout the entire GUESS-calculation: 8.1 MB

-------------------------------------------------------------------------------------------
                                      ORCA LEAN-SCF
                              memory conserving SCF solver
-------------------------------------------------------------------------------------------

----------------------------------------D-I-I-S--------------------------------------------
Iteration    Energy (Eh)           Delta-E    RMSDP     MaxDP     DIISErr   Damp  Time(sec)
-------------------------------------------------------------------------------------------
               ***  Starting incremental Fock matrix formation  ***
                              *** Initializing SOSCF ***
---------------------------------------S-O-S-C-F--------------------------------------
Iteration    Energy (Eh)           Delta-E    RMSDP     MaxDP     MaxGrad    Time(sec)
--------------------------------------------------------------------------------------
    1    -307.0807273041377812     0.00e+00  9.22e-06  1.42e-04  1.76e-05     0.2
               *** Restarting incremental Fock matrix formation ***
    2    -307.0807273094028460    -5.27e-09  1.19e-05  2.11e-04  6.81e-05     0.3
    3    -307.0807271823609881     1.27e-07  8.12e-06  1.62e-04  1.16e-04     0.2
                 **** Energy Check signals convergence ****

               *****************************************************
               *                     SUCCESS                       *
               *           SCF CONVERGED AFTER   3 CYCLES          *
               *****************************************************

             **** ENERGY FILE WAS UPDATED (sp.en.tmp) ****

----------------
TOTAL SCF ENERGY
----------------

Total Energy       :       -307.08072718236099 Eh           -8356.09140 eV

Components:
Nuclear Repulsion  :        247.34942233143326 Eh            6730.71996 eV
Electronic Energy  :       -554.43014951379428 Eh          -15086.81137 eV
One Electron Energy:       -907.59221317928450 Eh          -24696.83968 eV
Two Electron Energy:        353.16206366549022 Eh            9610.02832 eV

Virial components:
Potential Energy   :       -611.83205305644651 Eh          -16648.79657 eV
Kinetic Energy     :        304.75132587408558 Eh            8292.70517 eV
Virial Ratio       :          2.00764361336770

DFT components:
N(Alpha)           :       23.999991985458 electrons
N(Beta)            :       23.999991985458 electrons
N(Total)           :       47.999983970915 electrons
E(X)               :      -39.888021069468 Eh       
E(C)               :       -1.596010488187 Eh       
E(XC)              :      -41.484031557655 Eh       

---------------
SCF CONVERGENCE
---------------

  Last Energy change         ...   -1.2704e-07  Tolerance :   1.0000e-05
  Last MAX-Density change    ...    1.6222e-04  Tolerance :   1.0000e-03
  Last RMS-Density change    ...    8.1249e-06  Tolerance :   1.0000e-04
  Last DIIS Error            ...    1.1441e-04  Tolerance :   5.0000e-04
  Last Orbital Gradient      ...    1.1598e-04  Tolerance :   1.0000e-04
  Last Orbital Rotation      ...    1.0112e-04  Tolerance :   1.0000e-04


----------------
ORBITAL ENERGIES
----------------

  NO   OCC          E(Eh)            E(eV) 
   0   2.0000     -18.799442      -511.5588 
   1   2.0000     -18.735752      -509.8257 
   2   2.0000     -10.002508      -272.1821 
   3   2.0000      -9.938963      -270.4529 
   4   2.0000      -9.897819      -269.3334 
   5   2.0000      -9.887781      -269.0602 
   6   2.0000      -1.005530       -27.3619 
   7   2.0000      -0.914441       -24.8832 
   8   2.0000      -0.715393       -19.4668 
   9   2.0000      -0.653957       -17.7951 
  10   2.0000      -0.573885       -15.6162 
  11   2.0000      -0.506323       -13.7777 
  12   2.0000      -0.449675       -12.2363 
  13   2.0000      -0.431392       -11.7388 
  14   2.0000      -0.423245       -11.5171 
  15   2.0000      -0.390135       -10.6161 
  16   2.0000      -0.381192       -10.3728 
  17   2.0000      -0.363666        -9.8959 
  18   2.0000      -0.334656        -9.1064 
  19   2.0000      -0.317668        -8.6442 
  20   2.0000      -0.314492        -8.5578 
  21   2.0000      -0.301020        -8.1912 
  22   2.0000      -0.258495        -7.0340 
  23   2.0000      -0.218939        -5.9576 
  24   0.0000      -0.019360        -0.5268 
  25   0.0000       0.045952         1.2504 
  26   0.0000       0.063991         1.7413 
  27   0.0000       0.090327         2.4579 
  28   0.0000       0.090867         2.4726 
  29   0.0000       0.096754         2.6328 
  30   0.0000       0.102847         2.7986 
  31   0.0000       0.115851         3.1525 
  32   0.0000       0.120421         3.2768 
  33   0.0000       0.134047         3.6476 
  34   0.0000       0.169688         4.6174 
*Only the first 10 virtual orbitals were printed.

                    ********************************
                    * MULLIKEN POPULATION ANALYSIS *
                    ********************************

-----------------------
MULLIKEN ATOMIC CHARGES
-----------------------
   0 C :   -0.304269
   1 C :   -0.134775
   2 C :    0.091224
   3 O :   -0.199264
   4 O :   -0.248529
   5 C :   -0.111729
   6 H :    0.116879
   7 H :    0.112147
   8 H :    0.117799
   9 H :    0.105604
  10 H :    0.101757
  11 H :    0.117756
  12 H :    0.119435
  13 H :    0.115966
Sum of atomic charges:   -0.0000000

--------------------------------
MULLIKEN REDUCED ORBITAL CHARGES
--------------------------------
  0 C s       :     3.113740  s :     3.113740
      pz      :     1.022058  p :     3.160957
      px      :     1.051297
      py      :     1.087601
      dz2     :     0.005309  d :     0.029573
      dxz     :     0.005688
      dyz     :     0.007895
      dx2y2   :     0.005927
      dxy     :     0.004754

  1 C s       :     3.021998  s :     3.021998
      pz      :     1.054436  p :     3.079242
      px      :     1.002771
      py      :     1.022035
      dz2     :     0.005846  d :     0.033535
      dxz     :     0.006683
      dyz     :     0.008245
      dx2y2   :     0.006762
      dxy     :     0.005998

  2 C s       :     3.059580  s :     3.059580
      pz      :     0.854449  p :     2.718505
      px      :     0.953166
      py      :     0.910889
      dz2     :     0.008426  d :     0.130691
      dxz     :     0.009638
      dyz     :     0.029715
      dx2y2   :     0.030924
      dxy     :     0.051987

  3 O s       :     3.738322  s :     3.738322
      pz      :     1.415336  p :     4.442768
      px      :     1.694039
      py      :     1.333392
      dz2     :     0.002006  d :     0.018174
      dxz     :     0.000241
      dyz     :     0.005434
      dx2y2   :     0.005958
      dxy     :     0.004536

  4 O s       :     3.735393  s :     3.735393
      pz      :     1.668704  p :     4.496696
      px      :     1.240579
      py      :     1.587414
      dz2     :     0.002192  d :     0.016439
      dxz     :     0.002269
      dyz     :     0.002682
      dx2y2   :     0.003299
      dxy     :     0.005997

  5 C s       :     3.122895  s :     3.122895
      pz      :     1.086052  p :     2.936433
      px      :     0.806051
      py      :     1.044330
      dz2     :     0.007342  d :     0.052402
      dxz     :     0.010697
      dyz     :     0.009625
      dx2y2   :     0.010659
      dxy     :     0.014079

  6 H s       :     0.883121  s :     0.883121

  7 H s       :     0.887853  s :     0.887853

  8 H s       :     0.882201  s :     0.882201

  9 H s       :     0.894396  s :     0.894396

 10 H s       :     0.898243  s :     0.898243

 11 H s       :     0.882244  s :     0.882244

 12 H s       :     0.880565  s :     0.880565

 13 H s       :     0.884034  s :     0.884034


------------------------
MULLIKEN OVERLAP CHARGES
------------------------
B(  0-C ,  1-C ) :   0.9170 B(  0-C ,  2-C ) :  -0.0688 B(  0-C ,  6-H ) :   0.7529 
B(  0-C ,  7-H ) :   0.7553 B(  0-C ,  8-H ) :   0.7551 B(  1-C ,  2-C ) :   0.7262 
B(  1-C ,  3-O ) :  -0.1646 B(  1-C ,  4-O ) :  -0.2429 B(  1-C ,  7-H ) :  -0.0653 
B(  1-C ,  8-H ) :  -0.0703 B(  1-C ,  9-H ) :   0.6552 B(  1-C , 10-H ) :   0.6185 
B(  2-C ,  3-O ) :   1.3668 B(  2-C ,  4-O ) :   0.7005 B(  2-C ,  5-C ) :  -0.0619 
B(  3-O ,  4-O ) :  -0.1760 B(  4-O ,  5-C ) :   0.5505 B(  4-O , 11-H ) :  -0.0599 
B(  4-O , 12-H ) :  -0.0527 B(  4-O , 13-H ) :  -0.0623 B(  5-C , 11-H ) :   0.7695 
B(  5-C , 12-H ) :   0.7576 B(  5-C , 13-H ) :   0.7665 B(  7-H ,  8-H ) :  -0.0503 
B( 11-H , 12-H ) :  -0.0506 B( 11-H , 13-H ) :  -0.0659 B( 12-H , 13-H ) :  -0.0512 



                     *******************************
                     * LOEWDIN POPULATION ANALYSIS *
                     *******************************

----------------------
LOEWDIN ATOMIC CHARGES
----------------------
   0 C :   -0.330627
   1 C :   -0.250232
   2 C :    0.035149
   3 O :   -0.156603
   4 O :   -0.081896
   5 C :   -0.207619
   6 H :    0.123935
   7 H :    0.122299
   8 H :    0.125469
   9 H :    0.134638
  10 H :    0.130704
  11 H :    0.118333
  12 H :    0.119162
  13 H :    0.117287

-------------------------------
LOEWDIN REDUCED ORBITAL CHARGES
-------------------------------
  0 C s       :     2.945951  s :     2.945951
      pz      :     1.080206  p :     3.313766
      px      :     1.099606
      py      :     1.133954
      dz2     :     0.012838  d :     0.070909
      dxz     :     0.015167
      dyz     :     0.017612
      dx2y2   :     0.014338
      dxy     :     0.010955

  1 C s       :     2.916297  s :     2.916297
      pz      :     1.088385  p :     3.250295
      px      :     1.061482
      py      :     1.100427
      dz2     :     0.014191  d :     0.083640
      dxz     :     0.018304
      dyz     :     0.018678
      dx2y2   :     0.017065
      dxy     :     0.015402

  2 C s       :     2.849405  s :     2.849405
      pz      :     0.840310  p :     2.818323
      px      :     0.967519
      py      :     1.010494
      dz2     :     0.019719  d :     0.297123
      dxz     :     0.017839
      dyz     :     0.060588
      dx2y2   :     0.073790
      dxy     :     0.125187

  3 O s       :     3.544276  s :     3.544276
      pz      :     1.413602  p :     4.580352
      px      :     1.694762
      py      :     1.471988
      dz2     :     0.004447  d :     0.031975
      dxz     :     0.000292
      dyz     :     0.007069
      dx2y2   :     0.012542
      dxy     :     0.007625

  4 O s       :     3.454443  s :     3.454443
      pz      :     1.659709  p :     4.594301
      px      :     1.303162
      py      :     1.631430
      dz2     :     0.004136  d :     0.033151
      dxz     :     0.005072
      dyz     :     0.003857
      dx2y2   :     0.007073
      dxy     :     0.013015

  5 C s       :     2.963308  s :     2.963308
      pz      :     1.134278  p :     3.128518
      px      :     0.878427
      py      :     1.115814
      dz2     :     0.015859  d :     0.115792
      dxz     :     0.022507
      dyz     :     0.023790
      dx2y2   :     0.021916
      dxy     :     0.031720

  6 H s       :     0.876065  s :     0.876065

  7 H s       :     0.877701  s :     0.877701

  8 H s       :     0.874531  s :     0.874531

  9 H s       :     0.865362  s :     0.865362

 10 H s       :     0.869296  s :     0.869296

 11 H s       :     0.881667  s :     0.881667

 12 H s       :     0.880838  s :     0.880838

 13 H s       :     0.882713  s :     0.882713


---------------------------------
LOEWDIN BOND ORDERS (THRESH 0.050000)
---------------------------------
B(  0-C ,  1-C ) :   1.1125 B(  0-C ,  2-C ) :   0.0697 B(  0-C ,  6-H ) :   0.9367 
B(  0-C ,  7-H ) :   0.9406 B(  0-C ,  8-H ) :   0.9393 B(  1-C ,  2-C ) :   1.0570 
B(  1-C ,  3-O ) :   0.0948 B(  1-C ,  4-O ) :   0.0709 B(  1-C ,  9-H ) :   0.8970 
B(  1-C , 10-H ) :   0.8976 B(  2-C ,  3-O ) :   2.2367 B(  2-C ,  4-O ) :   1.3761 
B(  2-C ,  5-C ) :   0.0788 B(  3-O ,  4-O ) :   0.2078 B(  4-O ,  5-C ) :   1.1219 
B(  5-C , 11-H ) :   0.9448 B(  5-C , 12-H ) :   0.9522 B(  5-C , 13-H ) :   0.9456 


------------------------------------------
LOEWDIN REDUCED ORBITAL POPULATIONS PER MO
-------------------------------------------
THRESHOLD FOR PRINTING IS 0.1%%
                      0         1         2         3         4         5   
                 -18.79944 -18.73575 -10.00251  -9.93896  -9.89782  -9.88778
                   2.00000   2.00000   2.00000   2.00000   2.00000   2.00000
                  --------  --------  --------  --------  --------  --------
 0 C  s               0.0       0.0       0.0       0.0       0.0      99.7
 1 C  s               0.0       0.0       0.0       0.0      99.6       0.0
 2 C  s               0.0       0.0      99.3       0.0       0.0       0.0
 3 O  s               0.0      99.9       0.0       0.0       0.0       0.0
 3 O  py              0.0       0.0       0.3       0.0       0.0       0.0
 4 O  s              99.9       0.0       0.0       0.0       0.0       0.0
 5 C  s               0.0       0.0       0.0      99.7       0.0       0.0

                      6         7         8         9        10        11   
                  -1.00553  -0.91444  -0.71539  -0.65396  -0.57388  -0.50632
                   2.00000   2.00000   2.00000   2.00000   2.00000   2.00000
                  --------  --------  --------  --------  --------  --------
 0 C  s               0.1       0.0      16.4      10.8      18.8       0.5
 0 C  pz              0.0       0.0       1.9       0.2       3.7       1.8
 0 C  px              0.1       0.0       1.1       0.0       1.8       0.0
 0 C  dxz             0.0       0.0       0.1       0.0       0.1       0.0
 1 C  s               1.0       0.2      26.4       2.7       9.8       2.2
 1 C  pz              0.1       0.0       1.4       0.7       5.9       2.1
 1 C  px              1.5       0.1       0.0       3.4       4.2       1.9
 1 C  py              0.2       0.4       0.0       0.0       0.3       0.0
 1 C  dz2             0.0       0.0       0.0       0.1       0.1       0.0
 1 C  dxz             0.0       0.0       0.0       0.1       0.2       0.0
 2 C  s              18.7       4.8       4.5       2.4       1.9       2.9
 2 C  pz              0.4       0.4       0.1       0.1       1.8       0.9
 2 C  px              4.5       0.6       6.8       1.5       6.3       1.6
 2 C  py              0.1      23.3       5.5       3.2       0.9       2.5
 2 C  dz2             0.5       0.1       0.0       0.0       0.0       0.0
 2 C  dx2y2           0.2       1.0       0.1       0.0       0.1       0.0
 2 C  dxy             0.2       0.8       0.0       0.3       0.1       0.0
 3 O  s              12.5      40.2       1.6       0.3       0.6       1.2
 3 O  pz              0.0       0.0       0.0       0.0       0.1       0.3
 3 O  px              0.0       0.3       0.2       0.0       0.5       0.6
 3 O  py              2.9       4.1       0.2       0.2       0.2       1.2
 3 O  dx2y2           0.1       0.1       0.0       0.0       0.0       0.0
 4 O  s              40.0      17.0       0.1       0.9       1.1       4.9
 4 O  pz              0.0       0.0       0.5       2.0       0.0       1.4
 4 O  px              0.0       0.4       6.6      18.7       0.0      15.6
 4 O  py              3.1       0.2       0.0       0.4       0.1       8.4
 4 O  dxy             0.0       0.0       0.1       0.2       0.0       0.1
 5 C  s               4.9       2.5       4.5      24.6       5.2       5.9
 5 C  pz              0.4       0.1       0.0       0.0       0.1       0.8
 5 C  px              5.0       1.4       0.2       0.4       1.8      10.9
 5 C  py              0.3       0.5       0.1       0.1       0.0       9.9
 5 C  dz2             0.1       0.0       0.0       0.0       0.0       0.2
 5 C  dxz             0.1       0.0       0.0       0.0       0.0       0.1
 5 C  dx2y2           0.2       0.1       0.0       0.0       0.1       0.2
 5 C  dxy             0.1       0.1       0.0       0.0       0.0       0.4
 6 H  s               0.0       0.0       2.9       2.6       7.0       0.1
 7 H  s               0.0       0.0       3.2       2.2       6.7       0.7
 8 H  s               0.0       0.0       3.0       2.5       6.5       0.4
 9 H  s               0.1       0.1       4.6       0.9       3.9       3.0
10 H  s               0.2       0.0       5.2       0.3       3.5       1.1
11 H  s               0.7       0.2       0.8       5.5       1.9       7.0
12 H  s               0.5       0.3       0.9       7.0       2.3       1.6
13 H  s               0.6       0.2       0.8       5.6       1.8       7.4

                     12        13        14        15        16        17   
                  -0.44967  -0.43139  -0.42325  -0.39014  -0.38119  -0.36367
                   2.00000   2.00000   2.00000   2.00000   2.00000   2.00000
                  --------  --------  --------  --------  --------  --------
 0 C  s               0.0       0.3       0.0       0.0       0.0       0.1
 0 C  pz              3.4       3.0       0.0       1.6       0.2      13.7
 0 C  px              2.9       0.5       0.7      13.4       8.4       0.6
 0 C  py              2.2       0.0       9.8       9.2       6.9       0.0
 0 C  dxz             0.0       0.0       0.0       0.0       0.1       0.1
 1 C  s               1.4       0.8       0.0       0.1       0.3       0.1
 1 C  pz              6.7       0.0       0.2       3.5       4.3       5.9
 1 C  px              8.1       3.4       0.6       4.6       0.0       7.6
 1 C  py              6.6       0.1      19.7       6.8       1.2       0.4
 1 C  dxy             0.2       0.0       0.0       0.1       0.0       0.0
 2 C  s               1.6       0.3       1.6       0.3       1.9       0.2
 2 C  pz              2.5      12.3       0.5       0.1       2.4      11.8
 2 C  px             13.6       0.2       0.2       0.6       1.1       1.3
 2 C  py              0.1       0.5       1.3       1.5       3.0       1.1
 2 C  dxz             0.0       0.2       0.0       0.0       0.0       0.0
 2 C  dx2y2           0.0       0.0       0.6       0.1       0.1       0.0
 2 C  dxy             0.0       0.0       0.0       0.3       0.0       0.0
 3 O  s               0.3       0.0       9.0       2.5       6.7       0.8
 3 O  pz              0.5       5.6       0.1       0.2       1.2       9.6
 3 O  px              7.0       0.2       0.9       0.2       0.4       0.0
 3 O  py              0.1       0.0      13.2       6.7      25.4       4.4
 3 O  dyz             0.0       0.1       0.0       0.0       0.0       0.1
 3 O  dx2y2           0.0       0.0       0.1       0.0       0.2       0.0
 3 O  dxy             0.1       0.0       0.0       0.0       0.0       0.0
 4 O  s               0.5       0.3       0.7       1.1       0.1       0.0
 4 O  pz              6.4      20.7       0.6       0.1       0.3       0.0
 4 O  px              0.3       0.3       4.7       8.1       0.0       0.8
 4 O  py              6.6       6.5       8.2       2.6       0.0       0.0
 5 C  s               0.0       0.1       0.1       0.1       0.0       0.0
 5 C  pz              5.0      14.9       3.6       5.0       9.7       5.6
 5 C  px              0.1       7.4       2.5       3.8       0.1       6.4
 5 C  py              6.5       5.2       1.8       0.8       5.9       8.7
 5 C  dyz             0.0       0.1       0.0       0.0       0.0       0.2
 5 C  dxy             0.0       0.0       0.0       0.1       0.1       0.1
 6 H  s               1.7       0.3       0.0       2.5       6.8       0.0
 7 H  s               0.5       0.7       1.7       7.2       0.2       3.1
 8 H  s               1.1       0.5       3.2       3.4       1.3       1.2
 9 H  s               2.7       0.8       2.9       6.0       0.0       0.2
10 H  s               5.5       0.2       7.1       2.1       0.8       0.1
11 H  s               2.6       3.9       0.5       0.6       6.0       0.7
12 H  s               2.7       2.9       3.0       3.1       4.1       6.3
13 H  s               0.1       7.1       0.4       0.9       0.4       8.0

                     18        19        20        21        22        23   
                  -0.33466  -0.31767  -0.31449  -0.30102  -0.25849  -0.21894
                   2.00000   2.00000   2.00000   2.00000   2.00000   2.00000
                  --------  --------  --------  --------  --------  --------
 0 C  s               0.0       0.4       0.0       0.0       0.0       0.0
 0 C  pz              5.7      16.1       2.6       0.0       0.0       0.0
 0 C  px             12.7       4.4       4.5       3.1       0.1       0.5
 0 C  py             10.8       0.5      16.4       0.3       0.3       0.1
 0 C  dz2             0.1       0.0       0.1       0.1       0.0       0.0
 0 C  dxz             0.0       0.1       0.2       0.0       0.0       0.0
 0 C  dyz             0.0       0.0       0.7       0.0       0.0       0.0
 0 C  dx2y2           0.4       0.1       0.0       0.1       0.0       0.1
 0 C  dxy             0.3       0.0       0.0       0.0       0.0       0.0
 1 C  s               0.2       0.1       0.0       0.1       0.0       0.7
 1 C  pz              1.5      19.3       2.6       0.1       0.0       0.1
 1 C  px              1.1       1.8       4.2       6.0       0.1       4.3
 1 C  py              1.3       1.0      13.8       0.1       0.2       3.1
 1 C  dz2             0.1       0.0       0.1       0.0       0.0       0.0
 1 C  dxz             0.0       0.3       0.2       0.0       0.0       0.0
 1 C  dyz             0.0       0.1       0.7       0.0       0.0       0.0
 1 C  dx2y2           0.1       0.2       0.0       0.1       0.0       0.1
 1 C  dxy             0.3       0.0       0.0       0.1       0.0       0.0
 2 C  s               0.3       0.0       0.0       1.1       0.0       0.5
 2 C  pz              0.4       7.5       0.2       0.1       0.3       0.0
 2 C  px              7.4       0.5       0.3       0.7       0.0       0.9
 2 C  py              0.0       0.2       0.5       6.0       0.0       0.6
 2 C  dz2             0.0       0.0       0.0       0.0       0.2       0.0
 2 C  dxz             0.0       0.3       0.1       0.1       0.1       0.0
 2 C  dyz             0.0       0.4       0.0       0.0       1.8       0.5
 2 C  dx2y2           0.0       0.1       0.1       0.9       0.0       0.4
 2 C  dxy             0.1       0.0       0.2       0.0       0.3       3.8
 3 O  s               0.0       0.0       0.1       1.4       0.0       0.0
 3 O  pz              0.5      18.0       0.0       0.2      27.3       7.1
 3 O  px              7.5       1.7       0.0       0.5       3.1      61.7
 3 O  py              0.8       0.0       1.1      10.6       0.4       1.9
 4 O  s               0.6       0.0       0.0       5.1       0.0       0.3
 4 O  pz              0.6       3.6       0.3       0.1      46.0       0.2
 4 O  px              0.1       0.3       1.0       3.4       3.9       0.7
 4 O  py              2.4       0.0       0.8      33.6       0.2       8.2
 5 C  s               0.0       0.0       0.0       0.3       0.0       0.1
 5 C  pz              2.4       5.0       0.1       0.1       3.9       0.1
 5 C  px              0.2       0.4       0.8       1.4       0.3       0.8
 5 C  py              5.8       0.0       0.4       9.7       0.0       0.1
 5 C  dz2             0.0       0.0       0.0       0.1       0.1       0.0
 5 C  dxz             0.1       0.1       0.0       0.1       0.5       0.0
 5 C  dyz             0.0       0.1       0.0       0.0       0.6       0.0
 5 C  dx2y2           0.0       0.0       0.0       0.1       0.1       0.1
 5 C  dxy             0.2       0.0       0.0       0.3       0.0       0.0
 6 H  s              15.7       0.2       0.3       2.7       0.0       0.8
 7 H  s               1.4       0.8      14.7       0.5       0.2       0.0
 8 H  s               7.6       3.6       8.8       0.1       0.1       0.3
 9 H  s               0.8       1.9      14.4       0.9       0.1       0.1
10 H  s               2.0       5.6       8.0       0.2       0.0       1.3
11 H  s               3.5       2.6       0.0       2.6       4.8       0.2
12 H  s               4.5       0.0       0.7       3.9       0.0       0.1
13 H  s               0.1       2.1       0.5       3.0       5.0       0.1

                     24        25        26        27        28        29   
                  -0.01936   0.04595   0.06399   0.09033   0.09087   0.09675
                   0.00000   0.00000   0.00000   0.00000   0.00000   0.00000
                  --------  --------  --------  --------  --------  --------
 0 C  s               2.9       7.6       3.8      11.5       2.4       0.1
 0 C  pz              1.9       3.2       0.7       1.8       0.3       0.9
 0 C  px              0.3       1.2       0.9       0.6       0.3       6.6
 0 C  py              0.0       0.1       0.0       0.9       2.4       2.5
 0 C  dz2             0.0       0.2       0.1       0.3       0.0       0.3
 0 C  dxz             0.0       0.2       0.0       0.1       0.0       0.0
 0 C  dyz             0.0       0.0       0.0       0.0       0.6       0.4
 0 C  dx2y2           0.1       0.0       0.0       0.0       0.0       0.0
 0 C  dxy             0.1       0.0       0.0       0.1       0.1       0.1
 1 C  s               0.1       6.9       2.7       8.9       0.4       0.3
 1 C  pz              0.4       1.2       1.3       1.3       0.1       1.0
 1 C  px              0.3       0.0       0.3       1.3       0.4       2.6
 1 C  py              0.0       0.1       0.0       2.4      11.6       0.7
 1 C  dz2             0.0       0.0       0.0       0.3       0.2       0.3
 1 C  dxz             1.6       0.0       0.0       0.1       0.2       0.0
 1 C  dyz             0.2       0.0       0.1       0.0       0.6       0.2
 1 C  dx2y2           0.3       0.0       0.0       0.1       0.5       0.2
 1 C  dxy             0.0       0.0       0.1       0.1       0.0       0.0
 2 C  s               0.0       2.1       0.1       0.2       1.3       0.2
 2 C  pz             41.4       1.4       0.6       0.5       0.5       0.2
 2 C  px              3.3       1.2       0.3       0.2       0.4       0.3
 2 C  py              0.4       0.5       0.3       0.1       1.3       0.7
 2 C  dz2             0.0       0.5       0.0       0.0       0.3       0.0
 2 C  dxz             0.3       0.2       0.0       0.0       0.3       0.0
 2 C  dyz             0.7       0.0       0.0       0.0       0.0       0.0
 2 C  dx2y2           0.1       0.0       0.1       0.0       1.0       0.3
 2 C  dxy             0.0       0.0       0.1       0.0       0.3       0.0
 3 O  s               0.0       0.9       0.1       0.0       0.1       0.0
 3 O  pz             23.8       0.4       0.5       0.1       0.1       0.3
 3 O  px              2.3       0.3       0.3       0.0       0.5       0.4
 3 O  py              0.2       0.1       0.0       0.0       0.0       0.1
 3 O  dyz             0.5       0.0       0.0       0.0       0.0       0.0
 4 O  s               0.0       2.4       0.5       0.2       3.9       6.1
 4 O  pz              8.8       0.1       0.0       0.0       0.1       0.6
 4 O  px              0.8       0.4       0.5       0.2       0.8       4.7
 4 O  py              0.1       0.2       0.1       0.0       1.6       1.0
 4 O  dz2             0.1       0.0       0.0       0.0       0.1       0.1
 4 O  dxz             0.2       0.0       0.1       0.0       0.1       0.0
 4 O  dyz             0.1       0.0       0.0       0.0       0.0       0.0
 4 O  dx2y2           0.0       0.0       0.1       0.0       0.3       0.2
 5 C  s               0.0       4.8      21.1       0.0       0.6       3.7
 5 C  pz              0.2       0.3       0.3       0.3       1.0       2.9
 5 C  px              0.0       6.2       1.5       1.5       6.7      19.3
 5 C  py              0.0       1.3       0.0       0.9       5.8       2.1
 5 C  dz2             0.0       0.1       0.0       0.0       0.7       0.5
 5 C  dxz             0.1       0.2       0.0       0.0       0.5       0.5
 5 C  dyz             0.2       0.0       0.0       0.1       0.0       0.0
 5 C  dx2y2           0.0       0.2       0.0       0.1       0.8       1.6
 5 C  dxy             0.0       0.1       0.0       0.1       0.1       1.2
 6 H  s               2.5       7.5       5.1       1.5       2.6       7.8
 7 H  s               0.3       9.0       1.9      10.5       7.9      13.4
 8 H  s               0.2       6.4       2.7      18.3       0.6       4.4
 9 H  s               1.6       6.3       6.4       7.6      17.0       7.0
10 H  s               1.6       7.8       2.2      21.8      15.5       0.3
11 H  s               0.8       6.8      12.8       0.1       0.7       2.8
12 H  s               0.0       5.0      16.4       2.5       3.7       0.4
13 H  s               0.9       6.3      15.8       2.8       2.9       0.3

                     30        31        32        33        34        35   
                   0.10285   0.11585   0.12042   0.13405   0.16969   0.21145
                   0.00000   0.00000   0.00000   0.00000   0.00000   0.00000
                  --------  --------  --------  --------  --------  --------
 0 C  s               0.5       0.7       0.1       0.1       2.1       0.7
 0 C  pz              0.0       1.0       2.3       0.8       9.8       9.9
 0 C  px              0.4       0.2       9.5       5.7       8.0       3.1
 0 C  py              2.1       0.0      10.5       8.6       0.9       0.0
 0 C  dz2             0.0       0.1       0.0       0.0       0.4       2.8
 0 C  dxz             0.2       0.1       0.1       0.0       3.3       0.7
 0 C  dyz             0.1       0.0       0.0       0.3       0.2       0.0
 0 C  dx2y2           0.0       0.0       0.9       0.4       0.1       0.0
 0 C  dxy             0.1       0.0       0.3       0.7       0.0       0.0
 1 C  s               0.6       1.2       1.1       0.0       3.7       0.1
 1 C  pz              0.9       0.2       1.3       2.6      16.7       4.9
 1 C  px              0.9       0.9       0.2       3.5       0.0      26.0
 1 C  py              1.5       0.1       1.1       3.7       1.6       3.2
 1 C  dz2             0.0       0.0       0.5       0.0       0.6       2.7
 1 C  dxz             0.1       0.3       0.0       0.0       0.4       2.5
 1 C  dyz             0.4       0.0       0.1       0.0       0.2       0.2
 1 C  dx2y2           0.0       0.0       0.2       0.0       1.3       1.0
 1 C  dxy             0.0       0.0       0.0       0.8       1.1       2.1
 2 C  s               1.6       0.0       0.1       1.8      13.8      14.3
 2 C  pz              0.1       0.7       0.9       0.1       1.9       1.9
 2 C  px              0.0       0.1       0.3       0.1       0.7       3.7
 2 C  py              0.0       0.1       0.9       1.5       0.2       2.1
 2 C  dz2             0.5       0.1       0.0       0.4       4.2       1.3
 2 C  dxz             0.1       0.1       0.0       0.0       0.2       1.1
 2 C  dyz             0.0       0.0       0.0       0.0       0.3       0.0
 2 C  dx2y2           0.0       0.0       0.1       0.1       0.1       0.0
 2 C  dxy             0.1       0.0       0.0       0.3       0.0       0.1
 3 O  s               0.0       0.0       0.2       0.4       0.9       0.4
 3 O  pz              0.0       0.1       0.1       0.2       0.5       0.5
 3 O  px              0.1       0.2       0.8       0.1       0.2       0.4
 3 O  py              0.2       0.0       0.0       0.2       0.9       0.8
 3 O  dxy             0.0       0.0       0.0       0.0       0.0       0.2
 4 O  s               0.0       0.3       0.3       0.5       0.0       0.1
 4 O  pz              0.0       1.8       0.0       0.1       0.1       1.1
 4 O  px              0.5       0.1       0.3       2.6       4.3       1.9
 4 O  py              0.1       0.2       0.2       0.6       1.0       0.4
 4 O  dxz             0.0       0.3       0.0       0.0       0.0       0.0
 4 O  dxy             0.3       0.0       0.0       0.0       0.3       0.2
 5 C  s               0.0       0.1       0.0       0.7       0.0       0.0
 5 C  pz              0.9      20.4       1.5       1.2       1.0       0.0
 5 C  px              4.1       6.0       0.7       3.7       2.0       1.0
 5 C  py             16.5       0.2       0.3       0.4       3.3       0.5
 5 C  dz2             0.4       0.2       0.0       0.1       0.3       0.1
 5 C  dxz             0.1       0.1       0.0       0.2       0.2       0.0
 5 C  dyz             0.1       1.2       0.0       0.0       0.0       0.0
 5 C  dx2y2           0.2       0.1       0.1       0.4       0.1       0.0
 5 C  dxy             0.6       0.0       0.1       0.4       0.2       0.3
 6 H  s               0.2       1.5      38.1       1.6       1.2       2.4
 7 H  s               0.5       0.0       0.4      21.3       1.7       0.4
 8 H  s               5.2       0.0      16.0      11.7       0.1       0.9
 9 H  s               2.9       1.3       0.8      15.8       1.6       1.3
10 H  s               4.1       1.1       6.1       4.7       2.5       1.0
11 H  s               7.7      31.7       1.8       1.1       0.4       0.7
12 H  s              38.3       0.0       0.9       0.1       0.9       0.5
13 H  s               6.7      27.1       0.6       0.2       4.5       0.1

                     36        37        38        39        40        41   
                   0.26224   0.29730   0.39046   0.39845   0.40685   0.41151
                   0.00000   0.00000   0.00000   0.00000   0.00000   0.00000
                  --------  --------  --------  --------  --------  --------
 0 C  s               0.1       0.0       0.3       0.1       0.0       0.3
 0 C  pz              5.7       0.1      17.3       0.1       0.4       5.7
 0 C  px              0.7       0.2       4.9       2.7       2.1       0.4
 0 C  py              0.1       0.3       0.6      24.2       5.3       0.3
 0 C  dz2             0.1       0.0       0.1       1.0       0.3       0.4
 0 C  dxz             1.7       0.0       0.7       0.8       0.1       0.4
 0 C  dyz             0.1       0.0       0.8       4.3       1.5       0.1
 0 C  dx2y2           0.8       0.0       2.4       2.1       0.5       0.0
 0 C  dxy             0.3       0.0       2.3       0.0       0.2       0.0
 1 C  s               4.4       0.2       0.3       0.6       1.0       1.0
 1 C  pz              4.0       0.0       8.7       2.5       0.1       5.7
 1 C  px              7.3       0.4       0.6       1.4       4.5       0.1
 1 C  py              2.9       1.7       1.5       1.9       0.4       0.2
 1 C  dz2             0.1       0.3       1.4       0.0       0.0       0.6
 1 C  dxz             0.0       0.2       0.0       0.6       0.2       0.4
 1 C  dyz             0.0       0.5       0.1       3.3       0.2       0.0
 1 C  dx2y2           1.6       1.6       0.4       0.0       0.1       0.4
 1 C  dxy             1.2       1.7       0.0       0.1       0.4       0.3
 2 C  s              13.2       3.0       9.2       0.2       1.3       1.3
 2 C  pz              0.9       2.0       6.8       0.8       2.0       8.6
 2 C  px             15.8      10.0       1.8       0.3       1.2       2.6
 2 C  py              3.9      25.1       4.3       1.3       0.8       2.2
 2 C  dz2             1.7       0.0       0.0       0.1       0.2       0.0
 2 C  dxz             0.4       0.3       0.1       0.0       0.2       0.2
 2 C  dyz             0.2       0.3       0.0       0.0       0.0       0.0
 2 C  dx2y2           2.6       0.8       1.0       0.0       0.8       0.0
 2 C  dxy             0.2       3.4       0.0       0.0       0.0       0.0
 3 O  s               5.2       4.6       1.3       0.5       0.1       0.4
 3 O  pz              0.1       0.6       0.1       0.1       0.0       0.4
 3 O  px              1.8       3.6       0.1       0.5       0.2       0.0
 3 O  py              1.9       0.2       1.0       0.0       0.2       0.0
 3 O  dz2             0.0       0.0       0.1       0.0       0.0       0.0
 3 O  dx2y2           0.1       0.1       0.2       0.0       0.1       0.0
 3 O  dxy             0.4       0.5       0.0       0.0       0.0       0.0
 4 O  s               1.2       4.8       0.2       0.3       0.3       0.3
 4 O  pz              0.6       1.3       1.3       0.0       0.9       2.4
 4 O  px              1.8       7.4       0.8       0.3       1.9       0.5
 4 O  py              2.4       0.9       2.0       0.4       1.8       2.2
 4 O  dz2             0.0       0.1       0.3       0.1       0.3       0.1
 4 O  dxz             0.1       0.1       0.0       0.0       0.1       0.6
 4 O  dyz             0.1       0.1       0.2       0.0       0.1       0.0
 4 O  dx2y2           0.8       0.0       0.1       0.0       0.5       0.0
 4 O  dxy             0.2       0.9       0.8       0.2       0.7       0.0
 5 C  s               0.6       0.1       0.4       0.8       6.0       1.0
 5 C  pz              0.3       0.2       3.7       0.5       2.1      25.8
 5 C  px              4.5       2.8       0.3       2.9      23.6       1.7
 5 C  py              0.7       0.7       0.1       5.0      15.6       5.5
 5 C  dz2             0.1       0.0       0.0       0.6       1.6       0.2
 5 C  dxz             0.1       0.0       0.0       0.4       0.8       0.0
 5 C  dyz             0.0       0.2       0.7       0.0       0.3       5.6
 5 C  dx2y2           0.0       0.1       0.2       0.0       0.0       0.0
 5 C  dxy             0.1       1.3       0.0       0.3       0.7       0.3
 6 H  s               0.7       0.0       4.4       0.2       0.1       0.7
 7 H  s               1.4       0.3       7.9       8.9       2.8       0.6
 8 H  s               2.1       1.0       1.5      15.8       4.2       0.1
 9 H  s               0.2       6.4       0.5       6.2       0.3       0.7
10 H  s               1.4       6.0       2.6       3.6       0.3       2.2
11 H  s               0.5       0.1       0.3       2.5       8.8       4.9
12 H  s               0.5       3.5       0.1       1.0       1.5       0.1
13 H  s               0.2       0.1       2.8       0.2       0.5      12.3

                     42        43        44        45        46        47   
                   0.42748   0.45564   0.48050   0.53952   0.58757   0.60523
                   0.00000   0.00000   0.00000   0.00000   0.00000   0.00000
                  --------  --------  --------  --------  --------  --------
 0 C  s               2.8       0.1       0.6       3.0       4.5       5.1
 0 C  pz             10.0       5.0       4.2       8.8       0.8       1.4
 0 C  px             11.0       1.2       0.2       9.3       1.9       0.2
 0 C  py              2.2       0.6       0.0       0.1       0.3       0.4
 0 C  dz2             0.8       0.1       0.1       0.2       0.0       0.0
 0 C  dxz             1.3       0.1       0.0       0.0       0.1       0.1
 0 C  dyz             0.0       0.1       0.0       0.0       0.0       0.0
 0 C  dx2y2           0.7       0.2       0.1       0.1       0.2       0.1
 0 C  dxy             0.5       1.3       0.3       0.0       0.4       0.1
 1 C  s               0.4       1.2       1.3       9.3       0.2       0.5
 1 C  pz              9.9       0.0       3.8       6.9       6.0       8.9
 1 C  px              2.2       3.4      11.5       5.3      10.0       6.9
 1 C  py              0.0       1.3       3.0       3.2       0.6       0.3
 1 C  dz2             0.9       0.1       0.4       0.0       0.0       0.1
 1 C  dxz             2.3       0.2       0.1       0.0       0.2       0.0
 1 C  dyz             0.0       0.1       0.3       0.2       0.0       0.0
 1 C  dx2y2           0.4       1.1       0.1       0.0       0.0       0.1
 1 C  dxy             0.7       0.0       0.6       0.3       0.0       0.0
 2 C  s               3.2       4.8       7.9       6.7       1.1       6.8
 2 C  pz             12.6       0.1      14.5       5.2       8.1       3.7
 2 C  px              0.0      15.9       6.0       6.6       2.6       0.1
 2 C  py              1.2       5.0       5.4       0.9       5.5      21.4
 2 C  dz2             0.1       0.2       0.6       0.3       0.2       0.7
 2 C  dxz             0.7       0.1       0.4       0.0       0.1       0.1
 2 C  dyz             0.2       0.1       0.0       0.0       0.0       0.0
 2 C  dx2y2           0.0       0.0       0.6       0.1       1.1       2.4
 2 C  dxy             0.0       0.4       0.5       0.7       0.0       0.4
 3 O  s               0.2       0.1       0.1       0.2       0.9       0.2
 3 O  pz              0.2       0.5       1.2       0.3       0.3       0.4
 3 O  px              0.1       4.3       2.7       0.5       0.1       0.4
 3 O  py              0.1       0.1       0.0       0.8       1.4       8.6
 3 O  dz2             0.0       0.0       0.1       0.2       0.1       1.2
 3 O  dyz             0.2       0.0       0.0       0.0       0.0       0.0
 3 O  dx2y2           0.0       0.1       0.1       0.0       0.6       2.9
 3 O  dxy             0.0       0.0       0.1       0.3       0.0       0.5
 4 O  s               0.0       0.2       0.3       0.0       2.0       0.1
 4 O  pz              0.7       0.1       0.1       0.1       0.8       0.2
 4 O  px              0.2       0.7       0.4       3.0       3.2       0.8
 4 O  py              1.2       0.5       3.9       0.8       0.1       0.4
 4 O  dz2             0.1       0.5       0.3       0.0       0.0       0.0
 4 O  dxz             0.2       0.3       0.0       0.0       0.1       0.0
 4 O  dx2y2           0.0       0.4       0.2       0.0       0.0       0.2
 4 O  dxy             0.2       0.3       0.4       0.0       0.3       0.1
 5 C  s               0.1       1.8       0.4       1.2       4.8       5.5
 5 C  pz             10.3       0.3       6.0       0.9       0.3       0.0
 5 C  px              0.7      12.2       0.5       4.8       6.9       5.6
 5 C  py              0.6       4.6       8.3       0.5       6.4       0.0
 5 C  dz2             0.0       1.4       1.2       0.2       0.2       0.0
 5 C  dxz             0.0       0.5       0.0       0.1       0.0       0.1
 5 C  dyz             2.1       1.6       0.4       0.0       0.1       0.0
 5 C  dx2y2           0.0       0.0       1.2       0.1       1.2       0.0
 5 C  dxy             0.2       1.7       0.9       0.3       0.0       0.4
 6 H  s               7.5       2.7       0.2       0.0       9.5       1.1
 7 H  s               0.2       2.2       0.2       1.4       2.2       1.5
 8 H  s               0.2       0.3       0.2       1.3       1.0       5.1
 9 H  s               2.5       0.1       1.0       9.0       0.2       0.1
10 H  s               1.1       3.5       0.2       3.4       0.0       0.1
11 H  s               3.8       0.1       1.1       0.1       5.2       0.7
12 H  s               0.0      12.5       4.7       3.0       4.0       2.9
13 H  s               2.7       3.4       1.0       0.3       3.9       0.6

                     48        49        50        51        52        53   
                   0.61458   0.62192   0.63007   0.63507   0.64468   0.65218
                   0.00000   0.00000   0.00000   0.00000   0.00000   0.00000
                  --------  --------  --------  --------  --------  --------
 0 C  s               0.8       0.1       2.4       1.7      16.0       0.2
 0 C  pz              6.4       0.9       2.6       0.6       3.7       0.1
 0 C  px              1.9       0.5       0.2       0.6       2.8       0.7
 0 C  py              1.3       3.0       1.3       0.6       0.5      23.0
 0 C  dz2             0.1       0.0       0.0       0.0       0.0       0.0
 0 C  dxz             0.8       0.0       0.1       0.0       0.0       0.3
 0 C  dyz             0.5       0.1       0.1       0.2       0.4       0.9
 0 C  dx2y2           0.2       0.2       0.1       0.5       0.8       0.2
 0 C  dxy             0.5       0.1       0.0       0.1       1.3       0.7
 1 C  s               6.8       1.0       3.0       2.0       7.4       1.6
 1 C  pz              0.5       0.1       2.1       8.3       1.8       0.0
 1 C  px             19.7       0.5       2.5       0.3       0.9       6.4
 1 C  py              7.2       2.1       0.0       0.2       0.5      21.9
 1 C  dxz             0.4       0.0       0.0       0.0       0.0       0.0
 1 C  dyz             0.1       0.1       0.0       0.1       0.2       0.0
 1 C  dx2y2           0.4       0.0       0.1       0.0       0.0       0.1
 1 C  dxy             0.0       0.0       0.1       0.1       0.2       0.0
 2 C  s               0.9       3.3       0.1       0.4       5.8       0.8
 2 C  pz             14.7       0.0       0.3       0.8       7.1       0.8
 2 C  px              0.4       0.0       0.1       0.3       0.5       0.0
 2 C  py              4.1       6.9       0.1       3.8       0.1       2.9
 2 C  dz2             0.0       0.1       0.0       0.0       0.1       0.0
 2 C  dxz             0.2       0.0       0.0       0.0       0.0       0.0
 2 C  dx2y2           0.7       0.4       0.0       0.4       0.0       0.3
 2 C  dxy             0.0       0.1       0.0       0.1       0.0       0.0
 3 O  s               0.0       0.5       0.0       0.5       0.2       0.1
 3 O  pz              2.4       0.0       0.3       0.0       1.0       0.0
 3 O  px              0.6       1.0       0.0       0.2       0.0       0.3
 3 O  py              1.2       3.2       0.0       0.6       0.2       1.0
 3 O  dz2             0.2       0.4       0.0       0.2       0.0       0.3
 3 O  dx2y2           0.4       1.4       0.0       0.1       0.2       0.4
 3 O  dxy             0.0       0.3       0.0       0.0       0.0       0.1
 4 O  s               0.0       0.4       0.1       0.2       0.0       0.1
 4 O  pz              0.3       0.0       0.4       0.1       0.2       0.5
 4 O  px              0.5       0.3       0.1       0.2       0.1       1.1
 4 O  py              0.4       0.1       0.4       1.5       0.3       0.5
 5 C  s               0.5      40.7       3.3       2.7       0.0       1.4
 5 C  pz              6.6       0.1      35.5       8.2       0.8       2.4
 5 C  px              0.1      13.4       1.2       0.4       2.9       0.3
 5 C  py              0.7       0.3       2.4      29.4      11.8       0.1
 5 C  dz2             0.1       0.0       0.0       0.1       0.3       0.0
 5 C  dxz             0.1       0.0       0.4       0.4       0.1       0.0
 5 C  dyz             0.1       0.1       1.9       0.2       0.8       0.0
 5 C  dx2y2           0.2       0.0       0.2       0.1       0.0       0.0
 5 C  dxy             0.0       0.2       0.1       0.9       0.3       0.0
 6 H  s               2.7       0.5       0.0       0.2       5.1       2.3
 7 H  s               0.1       0.5       2.7       3.3       5.7       4.1
 8 H  s               0.6       0.7       0.1       1.1       1.4      11.5
 9 H  s               3.1       0.1       3.0       1.4       2.2       2.8
10 H  s               8.1       0.0       1.0       2.1       0.1       8.4
11 H  s               0.0       5.1       9.3      18.8       0.0       0.6
12 H  s               0.4       9.2       0.0       5.6      10.2       0.0
13 H  s               1.7       1.4      22.1       0.8       6.1       0.2

                     54        55        56        57        58        59   
                   0.65817   0.67422   0.67854   0.68407   0.73018   0.77744
                   0.00000   0.00000   0.00000   0.00000   0.00000   0.00000
                  --------  --------  --------  --------  --------  --------
 0 C  s              28.1       0.8       0.3       4.6       0.5       0.8
 0 C  pz              4.4       5.2       3.5      16.1       0.4       0.4
 0 C  px             19.2       9.6       1.1      14.0       1.6       3.3
 0 C  py              0.5       5.7      28.8       0.4       4.8       1.2
 0 C  dz2             0.2       0.1       0.0       0.0       0.0       0.1
 0 C  dxz             0.0       0.0       0.0       0.4       0.3       0.2
 0 C  dyz             0.1       0.2       0.2       0.0       0.0       0.0
 0 C  dx2y2           0.1       0.0       0.1       0.1       2.4       0.7
 0 C  dxy             0.2       0.3       0.2       0.0       2.6       0.0
 1 C  s               3.7       0.5       1.2       9.1       0.5      12.2
 1 C  pz             11.5      11.6       3.6       1.5       0.4       0.7
 1 C  px              0.4       2.2       2.5       1.9       2.4       0.3
 1 C  py              0.0      11.8      13.4       0.6      18.6       2.1
 1 C  dz2             0.0       0.1       0.0       0.1       0.7       0.1
 1 C  dxz             0.1       0.1       0.0       0.0       1.4       0.0
[...]
11 H  s               0.3       0.0       0.0       0.0       0.0       0.0
12 H  s               0.5       0.0       0.0       0.3       0.1       0.0

                     90        91        92        93        94        95   
                   2.55929   2.63433   2.71490   2.84279   2.85475   3.05452
                   0.00000   0.00000   0.00000   0.00000   0.00000   0.00000
                  --------  --------  --------  --------  --------  --------
 0 C  s               0.3       0.1       0.1       0.0       0.0       0.0
 0 C  pz              0.3       0.1       0.0       0.0       0.0       0.0
 0 C  px              0.2       0.1       0.0       0.0       0.0       0.0
 0 C  dz2             1.2       0.1       0.1       0.4       0.1       0.0
 0 C  dxz             1.7       1.0       0.1       0.0       0.0       0.1
 0 C  dx2y2           0.1       0.1       0.0       0.0       0.0       0.0
 1 C  s               0.1       0.1       0.0       0.0       0.0       0.3
 1 C  pz              0.1       0.1       0.0       0.0       0.0       0.0
 1 C  px              0.2       0.5       0.0       0.0       0.0       0.2
 1 C  py              0.0       0.1       0.0       0.0       0.1       0.0
 1 C  dz2             0.9       2.3       0.0       0.1       0.3       0.2
 1 C  dxz             4.2       1.0       0.6       1.0       0.0       0.3
 1 C  dyz             0.1       0.1       0.1       0.6       0.2       0.0
 1 C  dx2y2           0.1       0.1       0.1       0.1       1.3       1.1
 1 C  dxy             0.0       0.6       0.0       0.1       2.0       0.0
 2 C  s               0.2       0.1       0.0       0.0       0.3       1.1
 2 C  pz              0.3       0.0       0.1       0.9       0.1       0.2
 2 C  px              0.2       0.5       0.0       0.1       0.2       1.1
 2 C  py              0.0       0.3       0.0       0.0       0.2       2.0
 2 C  dz2             0.2       2.7       0.4       3.1       0.2       2.0
 2 C  dxz             0.1       1.0       0.5       9.7       0.8       0.5
 2 C  dyz             0.3       0.1       0.1       0.2       0.1       0.0
 2 C  dx2y2           0.0       0.2       0.0       0.4       8.6       0.0
 2 C  dxy             0.2       0.1       0.0       0.1       3.3       3.0
 3 O  s               0.0       0.0       0.0       0.0       1.3       0.4
 3 O  pz              0.0       0.0       0.0       0.2       0.0       0.0
 3 O  px              0.0       0.0       0.0       0.1       0.3       0.5
 3 O  py              0.0       0.0       0.0       0.0       0.5       0.3
 3 O  dz2             8.8      38.8       0.5       3.0       5.0       0.1
 3 O  dxz            56.5      21.5       2.4       5.7       0.8       0.0
 3 O  dyz             0.3       1.2       3.8      11.8       1.2       1.3
 3 O  dx2y2           3.9      14.4       0.8       0.0       1.1       0.3
 3 O  dxy             0.1       1.7       0.2       2.8       7.7      22.0
 4 O  s               0.0       0.1       0.0       0.0       0.6       7.6
 4 O  pz              0.2       0.0       0.8       0.6       0.0       0.0
 4 O  px              0.0       0.0       0.1       0.1       1.5       0.1
 4 O  py              0.0       0.5       0.0       0.0       1.0       1.0
 4 O  dz2             0.9       4.2       5.8      12.5      20.8      27.0
 4 O  dxz             0.5       0.2      35.5      13.4       2.8      13.0
 4 O  dyz            15.3       0.6      28.2      29.3       0.3       1.4
 4 O  dx2y2           0.1       2.4       5.9       0.1      13.7       4.4
 4 O  dxy             1.6       0.5       1.1       2.0      15.5       4.1
 5 C  s               0.0       0.2       0.0       0.0       0.7       0.5
 5 C  pz              0.0       0.0       0.4       0.0       0.1       0.0
 5 C  px              0.0       0.2       0.0       0.0       0.7       0.6
 5 C  py              0.0       0.2       0.0       0.0       0.0       0.2
 5 C  dz2             0.1       0.1       2.2       0.0       0.6       0.5
 5 C  dxz             0.1       0.3       7.4       0.2       1.2       0.3
 5 C  dyz             0.0       0.1       1.1       0.6       0.1       0.1
 5 C  dx2y2           0.0       0.0       1.1       0.0       3.3       0.2
 5 C  dxy             0.1       0.8       0.0       0.2       0.7       1.5
12 H  s               0.0       0.1       0.0       0.0       0.0       0.0

                     96        97        98        99   
                   3.12109   3.31218   3.49013   3.55666
                   0.00000   0.00000   0.00000   0.00000
                  --------  --------  --------  --------
 0 C  dz2             0.1       0.0       0.0       0.0
 1 C  s               0.0       0.2       0.1       0.1
 1 C  px              0.0       0.1       0.4       0.0
 1 C  dz2             0.2       0.1       0.1       0.0
 1 C  dxz             0.6       0.0       0.2       0.0
 1 C  dx2y2           0.0       0.0       1.3       0.0
 1 C  dxy             0.0       0.6       0.0       0.4
 2 C  s               0.0       3.2       0.1       6.8
 2 C  pz              0.5       0.1       0.1       0.0
 2 C  px              0.0       1.4       0.3       0.4
 2 C  py              0.0       0.1       3.4       4.1
 2 C  dz2             0.5       0.1       0.0       1.6
 2 C  dxz             0.1       0.9       0.2       0.0
 2 C  dyz            18.7       0.1       1.6       0.5
 2 C  dx2y2           0.2       5.9       0.3       9.3
 2 C  dxy             1.4       0.3      18.4       0.9
 3 O  s               0.0       1.5       1.0       4.2
 3 O  pz              1.0       0.0       0.1       0.0
 3 O  px              0.1       0.1       0.4       0.6
 3 O  py              0.0       0.7       0.9       2.9
 3 O  dz2             0.0       3.1       2.0      11.9
 3 O  dxz             3.5       0.0       0.1       0.0
 3 O  dyz            53.9       1.5       2.0       0.0
 3 O  dx2y2           1.6       9.9      18.3      23.2
 3 O  dxy             3.1       3.0       8.7      19.2
 4 O  s               0.0       0.1       0.5       0.4
 4 O  pz              0.0       0.2       0.3       0.0
 4 O  px              0.0       2.1       2.7       0.2
 4 O  py              0.0       0.3       0.4       0.1
 4 O  dz2             2.6       0.2       0.9       0.6
 4 O  dxz             9.0       2.9       1.3       2.0
 4 O  dyz             0.9       2.8       3.2       0.1
 4 O  dx2y2           0.6      31.9       0.0       7.4
 4 O  dxy             0.5      17.6      28.8       2.0
 5 C  s               0.0       1.1       0.4       0.0
 5 C  pz              0.0       0.1       0.0       0.0
 5 C  px              0.0       1.5       0.4       0.0
 5 C  py              0.0       0.3       0.0       0.0
 5 C  dz2             0.1       0.8       0.0       0.1
 5 C  dxz             0.3       0.6       0.2       0.0
 5 C  dyz             0.3       0.2       0.0       0.0
 5 C  dx2y2           0.1       1.6       0.9       0.0
 5 C  dxy             0.0       2.5       0.0       0.4


                      *****************************
                      * MAYER POPULATION ANALYSIS *
                      *****************************

  NA   - Mulliken gross atomic population
  ZA   - Total nuclear charge
  QA   - Mulliken gross atomic charge
  VA   - Mayer's total valence
  BVA  - Mayer's bonded valence
  FA   - Mayer's free valence

  ATOM       NA         ZA         QA         VA         BVA        FA
  0 C      6.3043     6.0000    -0.3043     4.0409     4.0409     0.0000
  1 C      6.1348     6.0000    -0.1348     3.9886     3.9886     0.0000
  2 C      5.9088     6.0000     0.0912     4.4060     4.4060    -0.0000
  3 O      8.1993     8.0000    -0.1993     2.2897     2.2897    -0.0000
  4 O      8.2485     8.0000    -0.2485     2.2495     2.2495    -0.0000
  5 C      6.1117     6.0000    -0.1117     3.8915     3.8915    -0.0000
  6 H      0.8831     1.0000     0.1169     0.9462     0.9462     0.0000
  7 H      0.8879     1.0000     0.1121     0.9561     0.9561     0.0000
  8 H      0.8822     1.0000     0.1178     0.9542     0.9542    -0.0000
  9 H      0.8944     1.0000     0.1056     0.9609     0.9609    -0.0000
 10 H      0.8982     1.0000     0.1018     0.9594     0.9594    -0.0000
 11 H      0.8822     1.0000     0.1178     0.9651     0.9651    -0.0000
 12 H      0.8806     1.0000     0.1194     0.9552     0.9552    -0.0000
 13 H      0.8840     1.0000     0.1160     0.9630     0.9630    -0.0000

  Mayer bond orders larger than 0.100000
B(  0-C ,  1-C ) :   1.1424 B(  0-C ,  6-H ) :   0.9526 B(  0-C ,  7-H ) :   0.9541 
B(  0-C ,  8-H ) :   0.9531 B(  1-C ,  2-C ) :   1.0264 B(  1-C ,  9-H ) :   0.9107 
B(  1-C , 10-H ) :   0.9089 B(  2-C ,  3-O ) :   2.0733 B(  2-C ,  4-O ) :   1.1884 
B(  4-O ,  5-C ) :   0.9494 B(  5-C , 11-H ) :   0.9513 B(  5-C , 12-H ) :   0.9589 
B(  5-C , 13-H ) :   0.9522 

-------
TIMINGS
-------

Total SCF time: 0 days 0 hours 0 min 0 sec 

Total time                  ....       0.784 sec
Sum of individual times     ....       0.766 sec  ( 97.8%)

SCF preparation             ....       0.032 sec  (  4.0%)
Fock matrix formation       ....       0.669 sec  ( 85.4%)
  Startup                   ....       0.002 sec  (  0.3% of F)
  Split-RI-J                ....       0.278 sec  ( 41.5% of F)
  XC integration            ....       0.384 sec  ( 57.5% of F)
    Basis function eval.    ....       0.165 sec  ( 42.9% of XC)
    Density eval.           ....       0.081 sec  ( 21.1% of XC)
    XC-Functional eval.     ....       0.038 sec  (  9.8% of XC)
    XC-Potential eval.      ....       0.082 sec  ( 21.3% of XC)
Diagonalization             ....       0.000 sec  (  0.0%)
Density matrix formation    ....       0.004 sec  (  0.5%)
Total Energy calculation    ....       0.000 sec  (  0.0%)
Population analysis         ....       0.051 sec  (  6.6%)
Orbital Transformation      ....       0.004 sec  (  0.5%)
Orbital Orthonormalization  ....       0.000 sec  (  0.0%)
DIIS solution               ....       0.002 sec  (  0.2%)
  MO trafo                  ....       0.000 sec  (  0.1 % of DIIS)
  Orb grad                  ....       0.000 sec  (  0.0 % of DIIS)
  Energy W gradient         ....       0.000 sec  (  0.0 % of DIIS)
  DIIS error                ....       0.000 sec  ( 10.1 % of DIIS)
  DIIS work                 ....       0.001 sec  ( 87.5 % of DIIS)
  Form Q                    ....       0.000 sec  (  0.0 % of DIIS)
  Form QpQm                 ....       0.000 sec  (  0.0 % of DIIS)
  Exp/Cayley                ....       0.000 sec  (  0.0 % of DIIS)
  Orb update                ....       0.000 sec  (  0.0 % of DIIS)
  Wake-sleep                ....       0.000 sec  (  2.4 % of DIIS)
SOSCF solution              ....       0.005 sec  (  0.6%)
  MO trafo                  ....       0.003 sec  ( 67.0 % of SOSCF)
  Orb grad                  ....       0.000 sec  (  1.1 % of SOSCF)
  Rot update                ....       0.000 sec  (  3.2 % of SOSCF)
  Step                      ....       0.001 sec  ( 27.3 % of SOSCF)
Finished LeanSCF after   0.8 sec

Maximum memory used throughout the entire LEANSCF-calculation: 9.7 MB


-------------------------------------------------------------------------------
                          DFT DISPERSION CORRECTION                            
                                                                               
                                DFTD4 V3.4.0                                   
-------------------------------------------------------------------------------
The PBE functional is recognized
Active option DFTDOPT                   ...         5   

-------------------------   ----------------
Dispersion correction           -0.009177501
-------------------------   ----------------

------------------   -----------------
gCP correction             0.063340291
------------------   -----------------

-------------------------   --------------------
FINAL SINGLE POINT ENERGY      -307.026564392206
-------------------------   --------------------


------------------------------------------------------------------------------
                              ORCA PROPERTY CALCULATIONS
------------------------------------------------------------------------------

GBWName                                 ... sp.gbw
Number of atoms                         ...     14
Number of basis functions               ...    100
Max core memory                         ...   1024 MB

Electric properties:
Dipole moment                           ... YES
Quadrupole moment                       ...  NO
Static polarizability (Dipole/Dipole)   ...  NO
Static polarizability (Dipole/Quad.)    ...  NO
Static polarizability (Quad./Quad.)     ...  NO
Static polarizability (Velocity)        ...  NO

Atomic electric properties:
Dipole moment                           ...  NO
Quadrupole moment                       ...  NO
Static polarizability                   ...  NO

Choice of electric origin               ... Center of mass
Position of electric origin             ...    -0.000015     0.000013    -0.000007

General magnetic properties:
Magnetizability                         ...  NO

EPR properties:
g-Tensor (aka g-matrix)                 ...  NO
Zero-Field splitting spin-orbit         ...  NO
Zero-field splitting spin-spin          ...  NO
Hyperfine couplings                     ...  NO (   0 nuclei)
Quadrupole couplings                    ...  NO (   0 nuclei)
Contact density                         ...  NO (   0 nuclei)

NMR properties:
Chemical shifts                         ...  NO (   0 nuclei)
Spin-rotation constants                 ...  NO (   0 nuclei)
Spin-spin couplings                     ...  NO (   0 nuclei,    0 pairs)

Choice of magnetic origin               ... GIAO
Position of magnetic origin             ...     0.000000     0.000000     0.000000

Properties with geometric perturbations:
SCF Hessian                             ...  NO
IR spectrum                             ...  NO
VCD spectrum                            ...  NO
X-ray spectroscopy properties:
SCF XES/XAS/RIXS spectra                ...  NO


-------------
DIPOLE MOMENT
-------------

Method             : SCF
Type of density    : Electron Density
Multiplicity       :   1
Irrep              :   0
Energy             :  -307.0807271823609881 Eh
Relativity type    : 
Basis              : AO
                                X                 Y                 Z
Electronic contribution:      2.483262385      -1.981967076       1.873582617
Nuclear contribution   :     -2.386043241       2.631369923      -2.046257856
                        -----------------------------------------
Total Dipole Moment    :      0.097219143       0.649402846      -0.172675239
                        -----------------------------------------
Magnitude (a.u.)       :      0.678964179
Magnitude (Debye)      :      1.725789792



--------------------
Rotational spectrum 
--------------------
 
Rotational constants in cm-1:             0.228641             0.079871             0.068268 
Rotational constants in MHz :          6854.497230          2394.481422          2046.608712 

Dipole components along the rotational axes: 
x,y,z [a.u.] :     0.040242     0.673517     0.075816 
x,y,z [Debye]:     0.102286     1.711944     0.192710 

 

Dipole moment calculation done in   0.0 sec 

Maximum memory used throughout the entire PROP-calculation: 6.3 MB

--------------------------------
SUGGESTED CITATIONS FOR THIS RUN
--------------------------------

Below you find a list of papers that are relevant to this ORCA run
We neither can nor want to force you to cite these papers, but we appreciate if you do
You receive ORCA, which is the product of decades of hard work by many enthusiastic individuals, for free
The only thing we kindly ask in return is that you cite our papers,
We deeply appreciate it, if you show your appreciation for ORCA by not just citing the generic ORCA reference.

Please note that relegating all ORCA citations to the supporting information does *not* help us.
SI sections are not indexed - citations you put there will not count into any citation statistics
But we need these citations in order to attract the funding resources that allow us to do what we are doing

Therefore, if you are a happy ORCA user, please consider citing a few of the papers listed below in the main body of your paper

In addition to the list printed below, the program has created the file sp.bibtex that contains the list in bibtex format
You can import this file easily into all common literature databanks and citation aid programs


List of essential papers. We consider these as the minimum necessary citations

  1. Neese,F.
     Software update: the ORCA program system, version 5.0
     WIRES Comput. Molec. Sci., 2022 12(1)e1606
     doi.org/10.1002/wcms.1606

List of papers to cite with high priority. The work reported in these papers was absolutely
necessary for this run to complete.
Our perspective: the developers of density functionals and basis sets usually get cited in chemistry papers
Good! But without the algorithms to do something with them, the functionals or basis sets would not do anything.
Hence, in our opinion, the algorithm design and method developments papers are equally worthy of getting cited

  1. Neese,F.
     An improvement of the resolution of the identity approximation for the formation of the Coulomb matrix
     J. Comp. Chem., 2003 24(14)1740-1747
     doi.org/10.1002/jcc.10318
  2. Neese,F.
     The SHARK Integral Generation and Digestion System
     J. Comp. Chem., 2022  1-16
     doi.org/10.1002/jcc.26942
  3. Caldeweyher,E.; Bannwarth,C.; Grimme,S.
     Extension of the D3 dispersion coefficient model
     J. Chem. Phys., 2017 147 034112
     doi.org/10.1063/1.4993215
  4. Caldeweyher,E.; Ehlert,S.; Hansen,A.; Neugebauer,H.; Spicher,S.; Bannwarth,C.; Grimme,S.
     A generally applicable atomic-charge dependent London dispersion correction
     J. Chem. Phys., 2019 150 154122
     doi.org/10.1063/1.5090222
  5. Caldeweyher,E.; Mewes,J.; Ehlert,S.; Grimme,S.
     Extension and evaluation of the D4 London-dispersion model for periodic systems
     Phys. Chem. Chem. Phys., 2020 22(16)8499-8512
     doi.org/10.1039/D0CP00502A
  6. Wittmann,L.; Gordiy,I.; Friede,M.; Helmich-Paris,B.; Grimme,S.; Hansen,A.; Bursch,M.
     Extension of the D3 and D4 London Dispersion Corrections to the full Actinides Series
     Phys. Chem. Chem. Phys., 2024 26(32)21379-21394
     doi.org/https://doi.org/10.1039/D4CP01514B 

List of suggested additional citations. These are papers that are important in the 'surrounding' of 
of this run, or papers that preceded the highly important papers. If you like your results we are grateful for a citation.

  1. Neese,F.
     The ORCA program system
     WIRES Comput. Molec. Sci., 2012 2(1)73-78
     doi.org/10.1002/wcms.81
  2. Neese,F.
     Software update: the ORCA program system, version 4.0
     WIRES Comput. Molec. Sci., 2018 8(1)1-6
     doi.org/10.1002/wcms.1327
  3. Neese,F.; Wennmohs,F.; Becker,U.; Riplinger,C.
     The ORCA quantum chemistry program package
     J. Chem. Phys., 2020 152 Art. No. L224108
     doi.org/10.1063/5.0004608

List of optional additional citations

  1. Neese,F.
     Approximate second-order SCF convergence for spin unrestricted wavefunctions
     Chem. Phys. Lett., 2000 325(1-3)93-98
     doi.org/10.1016/s0009-2614(00)00662-x

Timings for individual modules:

Sum of individual times          ...        1.203 sec (=   0.020 min)
Startup calculation              ...        0.283 sec (=   0.005 min)  23.5 %
SCF iterations                   ...        0.869 sec (=   0.014 min)  72.2 %
Property calculations            ...        0.051 sec (=   0.001 min)   4.3 %
                             ****ORCA TERMINATED NORMALLY****
TOTAL RUN TIME: 0 days 0 hours 0 minutes 1 seconds 375 msec
