      -----------------------------------------------------------      
     |                   =====================                   |     
     |                           x T B                           |     
     |                   =====================                   |     
     |                         S. Grimme                         |     
     |          Mulliken Center for Theoretical Chemistry        |     
     |                    University of Bonn                     |     
      -----------------------------------------------------------      

   * xtb version 6.7.1 (41059b4) compiled by 'michael@archlinux' on 2025-03-24

   xtb is free software: you can redistribute it and/or modify it under
   the terms of the GNU Lesser General Public License as published by
   the Free Software Foundation, either version 3 of the License, or
   (at your option) any later version.
   
   xtb is distributed in the hope that it will be useful,
   but WITHOUT ANY WARRANTY; without even the implied warranty of
   MERCHANTABILITY or FITNESS FOR A PARTICULAR PURPOSE.  See the
   GNU Lesser General Public License for more details.
   
   Cite this work as:
   * C. Bannwarth, E. Caldeweyher, S. Ehlert, A. Hansen, P. Pracht,
     J. Seibert, S. Spicher, S. Grimme, WIREs Comput. Mol. Sci., 2020, 11,
     e01493. DOI: 10.1002/wcms.1493
   
   for GFN2-xTB:
   * C. Bannwarth, S. Ehlert and S. Grimme., J. Chem. Theory Comput., 2019,
     15, 1652-1671. DOI: 10.1021/acs.jctc.8b01176
   for GFN1-xTB:
   * S. Grimme, C. Bannwarth, P. Shushkov, J. Chem. Theory Comput., 2017,
     13, 1989-2009. DOI: 10.1021/acs.jctc.7b00118
   for GFN0-xTB:
   * P. Pracht, E. Caldeweyher, S. Ehlert, S. Grimme, ChemRxiv, 2019, preprint.
     DOI: 10.26434/chemrxiv.8326202.v1
   for GFN-FF:
   * S. Spicher and S. Grimme, Angew. Chem. Int. Ed., 2020, 59, 15665-15673.
     DOI: 10.1002/anie.202004239
   
   for ALPB and GBSA implicit solvation:
   * S. Ehlert, M. Stahn, S. Spicher, S. Grimme, J. Chem. Theory Comput.,
     2021, 17, 4250-4261. DOI: 10.1021/acs.jctc.1c00471
   
   for ddCOSMO and CPCM-X implicit solvation:
   * M. Stahn, S. Ehlert, S. Grimme, J. Phys. Chem. A,
     2023, XX, XXXX-XXXX. DOI: 10.1021/acs.jpca.3c04382
   
   for DFT-D4:
   * E. Caldeweyher, C. Bannwarth and S. Grimme, J. Chem. Phys., 2017,
     147, 034112. DOI: 10.1063/1.4993215
   * E. Caldeweyher, S. Ehlert, A. Hansen, H. Neugebauer, S. Spicher,
     C. Bannwarth and S. Grimme, J. Chem. Phys., 2019, 150, 154122.
     DOI: 10.1063/1.5090222
   * E. Caldeweyher, J.-M. Mewes, S. Ehlert and S. Grimme, Phys. Chem. Chem. Phys.
     2020, 22, 8499-8512. DOI: 10.1039/D0CP00502A
   
   for sTDA-xTB:
   * S. Grimme and C. Bannwarth, J. Chem. Phys., 2016, 145, 054103.
     DOI: 10.1063/1.4959605
   
   in the mass-spec context:
   * V. Asgeirsson, C. Bauer and S. Grimme, Chem. Sci., 2017, 8, 4879.
     DOI: 10.1039/c7sc00601b
   * J. Koopman and S. Grimme, ACS Omega 2019, 4, 12, 15120-15133.
     DOI: 10.1021/acsomega.9b02011
   
   for metadynamics refer to:
   * S. Grimme, J. Chem. Theory Comput., 2019, 155, 2847-2862
     DOI: 10.1021/acs.jctc.9b00143
   
   for SPH calculations refer to:
   * S. Spicher and S. Grimme, J. Chem. Theory Comput., 2021, 17, 1701-1714
     DOI: 10.1021/acs.jctc.0c01306
   
   for ONIOM refer to:
   * C. Plett, A. Katbashev, S. Ehlert, S. Grimme, M. Bursch,
     Phys. Chem. Chem. Phys., 2023, 25, 17860-17868. DOI: 10.1039/D3CP02178E
   
   for DIPRO refer to:
   * J. Kohn, N. Gildemeister, S. Grimme, D. Fazzi, A. Hansen,
     J. Chem. Phys., 2023, just accepted.
   
   for PTB refer to:
   * S. Grimme, M. Mueller, A. Hansen, J. Chem. Phys., 2023, 158, 124111.
     DOI: 10.1063/5.0137838
   
   with help from (in alphabetical order)
   P. Atkinson, C. Bannwarth, F. Bohle, G. Brandenburg, E. Caldeweyher
   M. Checinski, S. Dohm, S. Ehlert, S. Ehrlich, I. Gerasimov, C. Hölzer
   A. Katbashev, J. Kohn, J. Koopman, C. Lavigne, S. Lehtola, F. März, M. Müller,
   F. Musil, H. Neugebauer, J. Pisarek, C. Plett, P. Pracht, F. Pultar,
   J. Seibert, P. Shushkov, S. Spicher, M. Stahn, M. Steiner, T. Strunk,
   J. Stückrath, T. Rose, and J. Unsleber
   
 * started run on 2025/04/09 at 02:30:17.125     
   ID    Z sym.   atoms
    1    6 C      1, 2, 4, 6, 8
    2    1 H      3, 5, 7, 9, 15-20
    3    8 O      10-14

           -------------------------------------------------
          |                Calculation Setup                |
           -------------------------------------------------

          program call               : /usr/bin/xtb xtb_rrho.coord --gfn2 --bhess vtight --chrg 0 --enso --norestart -I rrho-xcontrol-inp --parallel 1
          coordinate file            : xtb_rrho.coord
          omp threads                :                     1


           -------------------------------------------------
          |                 G F N 2 - x T B                 |
           -------------------------------------------------

        Reference                      10.1021/acs.jctc.8b01176
      * Hamiltonian:
        H0-scaling (s, p, d)           1.850000    2.230000    2.230000
        zeta-weighting                 0.500000
      * Dispersion:
        s8                             2.700000
        a1                             0.520000
        a2                             5.000000
        s9                             5.000000
      * Repulsion:
        kExp                           1.500000    1.000000
        rExp                           1.000000
      * Coulomb:
        alpha                          2.000000
        third order                    shell-resolved
        anisotropic                    true
        a3                             3.000000
        a5                             4.000000
        cn-shift                       1.200000
        cn-exp                         4.000000
        max-rad                        5.000000


          ...................................................
          :                      SETUP                      :
          :.................................................:
          :  # basis functions                  50          :
          :  # atomic orbitals                  50          :
          :  # shells                           30          :
          :  # electrons                        60          :
          :  max. iterations                   250          :
          :  Hamiltonian                  GFN2-xTB          :
          :  restarted?                      false          :
          :  GBSA solvation                  false          :
          :  PC potential                    false          :
          :  electronic temp.          300.0000000     K    :
          :  accuracy                    1.0000000          :
          :  -> integral cutoff          0.2500000E+02      :
          :  -> integral neglect         0.1000000E-07      :
          :  -> SCF convergence          0.1000000E-05 Eh   :
          :  -> wf. convergence          0.1000000E-03 e    :
          :  Broyden damping             0.4000000          :
          :  net charge                          0          :
          :  unpaired electrons                  0          :
          ...................................................

 iter      E             dE          RMSdq      gap      omega  full diag
   1    -36.3471440 -0.363471E+02  0.464E+00   10.29       0.0  T
   2    -36.3807330 -0.335889E-01  0.253E+00   10.07       1.0  T
   3    -36.3816117 -0.878746E-03  0.770E-01   10.10       1.0  T
   4    -36.3825096 -0.897952E-03  0.139E-01   10.10       1.0  T
   5    -36.3825543 -0.446224E-04  0.534E-02   10.12       1.0  T
   6    -36.3825645 -0.102675E-04  0.182E-02   10.12       1.2  T
   7    -36.3825651 -0.606352E-06  0.647E-03   10.12       3.5  T
   8    -36.3825655 -0.310996E-06  0.163E-03   10.12      13.7  T
   9    -36.3825655 -0.239991E-08  0.616E-04   10.12      36.3  T
  10    -36.3825655 -0.144588E-08  0.277E-04   10.12      80.7  T

   *** convergence criteria satisfied after 10 iterations ***

         #    Occupation            Energy/Eh            Energy/eV
      -------------------------------------------------------------
         1        2.0000           -0.7233095             -19.6823
       ...           ...                  ...                  ...
        24        2.0000           -0.4767807             -12.9739
        25        2.0000           -0.4728175             -12.8660
        26        2.0000           -0.4643207             -12.6348
        27        2.0000           -0.4486740             -12.2090
        28        2.0000           -0.4367013             -11.8832
        29        2.0000           -0.4232993             -11.5186
        30        2.0000           -0.4184514             -11.3866 (HOMO)
        31                         -0.0465871              -1.2677 (LUMO)
        32                         -0.0044416              -0.1209
        33                          0.0016327               0.0444
        34                          0.0295284               0.8035
        35                          0.0431191               1.1733
       ...                                ...                  ...
        50                          0.2702342               7.3534
      -------------------------------------------------------------
                  HL-Gap            0.3718643 Eh           10.1189 eV
             Fermi-level           -0.2325192 Eh           -6.3272 eV

 SCC (total)                   0 d,  0 h,  0 min,  0.016 sec
 SCC setup                      ...        0 min,  0.000 sec (  0.670%)
 Dispersion                     ...        0 min,  0.000 sec (  0.892%)
 classical contributions        ...        0 min,  0.000 sec (  0.206%)
 integral evaluation            ...        0 min,  0.003 sec ( 16.368%)
 iterations                     ...        0 min,  0.007 sec ( 43.570%)
 molecular gradient             ...        0 min,  0.006 sec ( 37.540%)
 printout                       ...        0 min,  0.000 sec (  0.691%)

         :::::::::::::::::::::::::::::::::::::::::::::::::::::
         ::                     SUMMARY                     ::
         :::::::::::::::::::::::::::::::::::::::::::::::::::::
         :: total energy             -36.132263753145 Eh    ::
         :: gradient norm              0.040060183614 Eh/a0 ::
         :: HOMO-LUMO gap             10.118943062958 eV    ::
         ::.................................................::
         :: SCC energy               -36.382483021809 Eh    ::
         :: -> isotropic ES            0.114536341454 Eh    ::
         :: -> anisotropic ES         -0.002297046424 Eh    ::
         :: -> anisotropic XC         -0.006938078199 Eh    ::
         :: -> dispersion             -0.014874621192 Eh    ::
         :: repulsion energy           0.250219268664 Eh    ::
         :: add. restraining           0.000000000000 Eh    ::
         :: total charge               0.000000000000 e     ::
         :::::::::::::::::::::::::::::::::::::::::::::::::::::

metadynamics with 1 initial structures loaded
           -------------------------------------------------
          |           Optimal kpush determination           |
           -------------------------------------------------
      ----------------------------------------------------------- 
     |                   =====================                   |
     |                        A N C O P T                        |
     |                   =====================                   |
     |               Approximate Normal Coordinate               |
     |                Rational Function Optimizer                |
      ----------------------------------------------------------- 
target rmsd / Å         0.100000
unbiased initial rmsd   0.043310

iter. min.        max.        rmsd       kpush
final kpush: -0.000000
           -------------------------------------------------
          |            Biased Numerical Hessian             |
           -------------------------------------------------
kpush                :  -0.00000
alpha                :   1.00000
step length          :   0.00500
SCC accuracy         :   0.30000
Hessian scale factor :   1.00000
frozen atoms in %    :   0.00000    0
RMS gradient         :   0.00007
estimated CPU  time      0.02 min
estimated wall time      0.02 min

writing file <hessian>, containing the non-mass-weighted Hessian matrix in atomic units (Eₕ/Bohr²).

writing file <hessian_sph>.

 projected vibrational frequencies (cm⁻¹)
eigval :       -0.00    -0.00    -0.00     0.00     0.00     0.00
eigval :      -69.76    98.65   105.63   216.67   223.76   244.25
eigval :      260.97   342.80   350.42   371.92   383.28   419.86
eigval :      435.71   496.08   523.30   534.45   586.78   747.51
eigval :      894.25   912.47   972.68  1016.88  1058.24  1061.60
eigval :     1074.35  1089.30  1106.49  1113.42  1141.15  1163.03
eigval :     1182.14  1192.20  1225.86  1235.96  1250.46  1285.78
eigval :     1298.43  1308.17  1313.64  1330.62  1333.73  1340.00
eigval :     1352.84  1454.68  2864.18  2877.80  2900.51  2906.80
eigval :     2929.92  2994.68  3488.78  3494.14  3526.80  3544.06
           -------------------------------------------------
          |                Property Printout                |
           -------------------------------------------------

    * Orbital Energies and Occupations

         #    Occupation            Energy/Eh            Energy/eV
      -------------------------------------------------------------
         1        2.0000           -0.7258913             -19.7525
       ...           ...                  ...                  ...
        18        2.0000           -0.5438429             -14.7987
        19        2.0000           -0.5284024             -14.3786
        20        2.0000           -0.5235037             -14.2453
        21        2.0000           -0.5143077             -13.9950
        22        2.0000           -0.5049556             -13.7405
        23        2.0000           -0.4996204             -13.5954
        24        2.0000           -0.4774926             -12.9932
        25        2.0000           -0.4742460             -12.9049
        26        2.0000           -0.4628995             -12.5961
        27        2.0000           -0.4441235             -12.0852
        28        2.0000           -0.4338808             -11.8065
        29        2.0000           -0.4179948             -11.3742
        30        2.0000           -0.4141820             -11.2705 (HOMO)
        31                         -0.0228721              -0.6224 (LUMO)
        32                          0.0103744               0.2823
        33                          0.0187236               0.5095
        34                          0.0425612               1.1582
        35                          0.0535255               1.4565
        36                          0.0634823               1.7274
        37                          0.0747007               2.0327
        38                          0.0974909               2.6529
        39                          0.1098834               2.9901
        40                          0.1259806               3.4281
        41                          0.1463438               3.9822
       ...                                ...                  ...
        50                          0.2802256               7.6253
      -------------------------------------------------------------
                  HL-Gap            0.3913099 Eh           10.6481 eV
             Fermi-level           -0.2185271 Eh           -5.9464 eV

     #   Z          covCN         q      C6AA      α(0)
     1   6          3.707     0.056    19.774     6.356
     2   6          3.727     0.087    19.238     6.262
     3   1          0.924     0.051     2.310     2.377
     4   6          3.730     0.089    19.199     6.255
     5   1          0.923     0.052     2.294     2.368
     6   6          3.726     0.081    19.335     6.278
     7   1          0.923     0.023     2.694     2.567
     8   6          3.634     0.237    17.251     5.977
     9   1          0.923     0.045     2.388     2.416
    10   8          1.702    -0.308    19.134     5.906
    11   8          1.656    -0.450    21.840     6.309
    12   8          1.656    -0.450    21.841     6.309
    13   8          1.655    -0.446    21.763     6.298
    14   8          1.656    -0.432    21.487     6.258
    15   1          0.924     0.074     2.047     2.238
    16   1          0.923     0.051     2.309     2.376
    17   1          0.805     0.322     0.657     1.273
    18   1          0.805     0.319     0.668     1.284
    19   1          0.805     0.302     0.714     1.328
    20   1          0.805     0.298     0.726     1.338

 Mol. C6AA /au·bohr⁶  :       3264.174405
 Mol. C8AA /au·bohr⁸  :      69345.214528
 Mol. α(0) /au        :         81.772068


Wiberg/Mayer (AO) data.
largest (>0.10) Wiberg bond orders for each atom

 ---------------------------------------------------------------------------
     #   Z sym  total        # sym  WBO       # sym  WBO       # sym  WBO
 ---------------------------------------------------------------------------
     1   6      3.946 --    10      0.977     2      0.970    15      0.969
                            16      0.966
     2   6      3.960 --    14      1.004     1      0.970     4      0.969
                             3      0.958
     3   1      0.997 --     2      0.958
     4   6      3.958 --    13      0.994     2      0.969     6      0.963
                             5      0.955
     5   1      0.997 --     4      0.955
     6   6      3.960 --    12      0.999     4      0.963     7      0.958
                             8      0.950
     7   1      0.999 --     6      0.958
     8   6      3.939 --    10      0.998    11      0.993     6      0.950
                             9      0.948
     9   1      0.998 --     8      0.948
    10   8      2.102 --     8      0.998     1      0.977
    11   8      1.962 --     8      0.993    17      0.872
    12   8      1.960 --     6      0.999    18      0.878
    13   8      1.968 --     4      0.994    19      0.890
    14   8      1.977 --     2      1.004    20      0.893
    15   1      0.995 --     1      0.969
    16   1      0.997 --     1      0.966
    17   1      0.896 --    11      0.872
    18   1      0.899 --    12      0.878
    19   1      0.909 --    13      0.890
    20   1      0.911 --    14      0.893
 ---------------------------------------------------------------------------

Topologies differ in total number of bonds
Writing topology from bond orders to xtbtopo.mol

molecular dipole:
                 x           y           z       tot (Debye)
 q only:        0.348      -0.386       0.076
   full:        0.430      -0.603       0.024       1.883
molecular quadrupole (traceless):
                xx          xy          yy          xz          yz          zz
 q only:       -2.675       3.147      -1.090       0.297       1.898       3.765
  q+dip:       -5.293       3.040      -2.301       0.255       3.129       7.594
   full:       -4.721       3.311      -1.996       0.289       2.929       6.718

           -------------------------------------------------
          |                Geometry Summary                 |
           -------------------------------------------------

      molecular mass/u    :      150.1301116
   center of mass at/Å    :        0.0000906       0.0000515       0.0001075
  moments of inertia/u·Å² :        0.2941240E+03   0.3761363E+03   0.5791855E+03
rotational constants/cm⁻¹ :        0.5731472E-01   0.4481789E-01   0.2910576E-01

 * 19 selected distances

     #   Z          #   Z                                           value/Å
     1   6          2   6                                         1.5385082
     2   6          3   1                                         1.0977807
     2   6          4   6                                         1.5336377
     4   6          5   1                                         1.0995072
     4   6          6   6                                         1.5385598 (max)
     6   6          7   1                                         1.1014142
     8   6          9   1                                         1.1011604
     1   6         10   8                                         1.4143430
     8   6         10   8                                         1.3901391
     8   6         11   8                                         1.3997664
     6   6         12   8                                         1.4062009
     4   6         13   8                                         1.4099092
     2   6         14   8                                         1.4023065
     1   6         15   1                                         1.0906642
     1   6         16   1                                         1.0979880
    11   8         17   1                                         0.9668938
    12   8         18   1                                         0.9671687
    13   8         19   1                                         0.9636976 (min)
    14   8         20   1                                         0.9649059

 * 4 distinct bonds (by element types)

   Z      Z             #   av. dist./Å        max./Å        min./Å
   1 H    6 C           6     1.0980858     1.1014142     1.0906642
   6 C    6 C           3     1.5369019     1.5385598     1.5336377
   1 H    8 O           4     0.9656665     0.9671687     0.9636976
   6 C    8 O           6     1.4037775     1.4143430     1.3901391

           -------------------------------------------------
          |               Frequency Printout                |
           -------------------------------------------------
 projected vibrational frequencies (cm⁻¹)
eigval :       -0.00    -0.00    -0.00     0.00     0.00     0.00
eigval :      -69.76    98.65   105.63   216.67   223.76   244.25
eigval :      260.97   342.80   350.42   371.92   383.28   419.86
eigval :      435.71   496.08   523.30   534.45   586.78   747.51
eigval :      894.25   912.47   972.68  1016.88  1058.24  1061.60
eigval :     1074.35  1089.30  1106.49  1113.42  1141.15  1163.03
eigval :     1182.14  1192.20  1225.86  1235.96  1250.46  1285.78
eigval :     1298.43  1308.17  1313.64  1330.62  1333.73  1340.00
eigval :     1352.84  1454.68  2864.18  2877.80  2900.51  2906.80
eigval :     2929.92  2994.68  3488.78  3494.14  3526.80  3544.06
 reduced masses (amu)
    1:      6.04    2:      7.43    3:      7.15    4:      7.03    5:      7.41    6:      6.00
    7:      1.07    8:      6.96    9:      5.10   10:      4.64   11:      3.94   12:      3.35
   13:      3.43   14:      1.72   15:      1.63   16:      1.63   17:      3.64   18:      3.82
   19:      1.26   20:      4.03   21:      4.06   22:      3.86   23:      5.02   24:      4.07
   25:      2.44   26:      2.77   27:      2.84   28:      2.60   29:      3.19   30:      3.09
   31:      2.66   32:      5.38   33:      3.15   34:      2.97   35:      2.76   36:      1.71
   37:      1.28   38:      1.31   39:      1.27   40:      1.35   41:      1.26   42:      1.35
   43:      1.30   44:      1.24   45:      1.36   46:      1.43   47:      1.39   48:      1.36
   49:      1.36   50:      1.09   51:      1.07   52:      1.07   53:      1.07   54:      1.07
   55:      1.08   56:      1.07   57:      1.07   58:      1.07   59:      1.07   60:      1.07
 IR intensities (km·mol⁻¹)
    1:      0.35    2:      0.10    3:      0.05    4:      0.18    5:      0.02    6:      0.02
    7:    121.52    8:      1.24    9:      3.67   10:     24.99   11:     17.19   12:      1.82
   13:     16.10   14:     90.29   15:     93.91   16:     32.45   17:     27.97   18:     29.15
   19:    218.10   20:     16.42   21:      6.36   22:      9.57   23:      6.18   24:     34.40
   25:     29.30   26:      4.60   27:     56.80   28:     47.25   29:     31.85   30:      7.16
   31:     33.37   32:    274.98   33:     35.72   34:     52.79   35:     63.05   36:     67.01
   37:     16.46   38:     32.81   39:     40.79   40:    167.98   41:     22.75   42:     28.02
   43:     36.61   44:      9.04   45:     32.49   46:     18.42   47:      3.68   48:     98.06
   49:     70.14   50:      2.63   51:     42.23   52:     56.90   53:     16.38   54:     28.94
   55:     71.69   56:     15.23   57:     55.11   58:     33.54   59:     11.15   60:     22.58
 Raman intensities (Ä⁴*amu⁻¹)
    1:      0.00    2:      0.00    3:      0.00    4:      0.00    5:      0.00    6:      0.00
Molecule has no symmetry elements
It seems to be the C1 point group
    7:      0.00    8:      0.00    9:      0.00   10:      0.00   11:      0.00   12:      0.00
   13:      0.00   14:      0.00   15:      0.00   16:      0.00   17:      0.00   18:      0.00
   19:      0.00   20:      0.00   21:      0.00   22:      0.00   23:      0.00   24:      0.00
   25:      0.00   26:      0.00   27:      0.00   28:      0.00   29:      0.00   30:      0.00
   31:      0.00   32:      0.00   33:      0.00   34:      0.00   35:      0.00   36:      0.00
   37:      0.00   38:      0.00   39:      0.00   40:      0.00   41:      0.00   42:      0.00
   43:      0.00   44:      0.00   45:      0.00   46:      0.00   47:      0.00   48:      0.00
   49:      0.00   50:      0.00   51:      0.00   52:      0.00   53:      0.00   54:      0.00
   55:      0.00   56:      0.00   57:      0.00   58:      0.00   59:      0.00   60:      0.00
 output can be read by thermo (or use thermo option).
 writing <g98.out> molden fake output.
 recommended (thermochemical) frequency scaling factor: 1.0
           -------------------------------------------------
          |             Thermodynamic Functions             |
           -------------------------------------------------

c1  symmetry found (for desy threshold:  0.10E+00) used in thermo
 inverting freq            1   69.757488061117485     

          ...................................................
          :                      SETUP                      :
          :.................................................:
          :  # frequencies                          54      :
          :  # imaginary freq.                       0      :
          :  linear?                             false      :
          :  only rotor calc.                    false      :
          :  symmetry                               c1      :
          :  rotational number                       1      :
          :  scaling factor                  1.0000000      :
          :  rotor cutoff                    0.0000000 cm⁻¹ :
          :  imag. cutoff                 -100.0000000 cm⁻¹ :
          :.................................................:

    mode    ω/cm⁻¹     T·S(HO)/kcal·mol⁻¹    T·S(FR)/kcal·mol⁻¹   T·S(vib)
   ------------------------------------------------------------------------
       1     69.76    -1.24036 (100.00%)    -0.95773 (  0.00%)    -1.24036
       2     98.65    -1.03783 (100.00%)    -0.85513 (  0.00%)    -1.03783
       3    105.63    -0.99813 (100.00%)    -0.83488 (  0.00%)    -0.99813
       4    216.67    -0.59234 (100.00%)    -0.62210 (  0.00%)    -0.59234
       5    223.76    -0.57498 (100.00%)    -0.61257 (  0.00%)    -0.57498
       6    244.25    -0.52822 (100.00%)    -0.58661 (  0.00%)    -0.52822
       7    260.97    -0.49352 (100.00%)    -0.56700 (  0.00%)    -0.49352
   ------------------------------------------------------------------------

   temp. (K)  partition function   enthalpy   heat capacity  entropy
                                   cal/mol     cal/K/mol   cal/K/mol   J/K/mol
 298.15  VIB   487.                 4824.151     33.625     28.479
         ROT  0.611E+06              888.727      2.981     29.458
         INT  0.298E+09             5712.879     36.606     57.936
         TR   0.563E+26             1481.212      4.968     40.929
         TOT                        7194.0911    41.5742    98.8657   413.6539

       T/K    H(0)-H(T)+PV         H(T)/Eh          T*S/Eh         G(T)/Eh
   ------------------------------------------------------------------------
    298.15    0.114645E-01    0.167856E+00    0.469743E-01    0.120882E+00
   ------------------------------------------------------------------------

         :::::::::::::::::::::::::::::::::::::::::::::::::::::
         ::                  THERMODYNAMIC                  ::
         :::::::::::::::::::::::::::::::::::::::::::::::::::::
         :: total free energy         -36.013439380274 Eh   ::
         ::.................................................::
         :: total energy              -36.134320929224 Eh   ::
         :: zero point energy           0.156391295740 Eh   ::
         :: G(RRHO) w/o ZPVE           -0.035509746789 Eh   ::
         :: G(RRHO) contrib.            0.120881548951 Eh   ::
         :::::::::::::::::::::::::::::::::::::::::::::::::::::
imag cut-off (cm-1) :    5.00
 found            1  significant imaginary frequency
 writing imag mode distorted coords to xtbhess.coord
 for further optimization.

optimized geometry written to: xtbopt.coord


           -------------------------------------------------
          | TOTAL ENERGY              -36.134320929224 Eh   |
          | TOTAL ENTHALPY            -35.966465119562 Eh   |
          | TOTAL FREE ENERGY         -36.013439380274 Eh   |
          | GRADIENT NORM               0.000072944787 Eh/α |
          | HOMO-LUMO GAP              10.648083908872 eV   |
           -------------------------------------------------

------------------------------------------------------------------------
 * finished run on 2025/04/09 at 02:30:18.294     
------------------------------------------------------------------------
 total:
 * wall-time:     0 d,  0 h,  0 min,  1.169 sec
 *  cpu-time:     0 d,  0 h,  0 min,  1.162 sec
 * ratio c/w:     0.994 speedup
 SCF:
 * wall-time:     0 d,  0 h,  0 min,  0.016 sec
 *  cpu-time:     0 d,  0 h,  0 min,  0.016 sec
 * ratio c/w:     0.985 speedup
 analytical hessian:
 * wall-time:     0 d,  0 h,  0 min,  0.960 sec
 *  cpu-time:     0 d,  0 h,  0 min,  0.954 sec
 * ratio c/w:     0.994 speedup

