14
 energy: -20.782952277269 gnorm: 0.029346061365 xtb: 6.7.1 (41059b4)
C           -2.17909485422643        0.35870679183543        0.68593543620901
C           -1.32414828175340        0.47221678949564       -0.58459416344621
C            0.01964060616011       -0.17922188243242       -0.37354994581824
O            0.28337691709427       -1.33719911412418       -0.60903909968484
O            0.90179359670150        0.69650340230120        0.17074012602273
C            2.20465081267432        0.15311573063771        0.45496115059399
H           -3.16682342666725        0.79319942611434        0.51251112195503
H           -2.31070788403464       -0.68835327140555        0.96992959546641
H           -1.71320605870878        0.88935213966956        1.51961348744057
H           -1.18262851823773        1.52317850823767       -0.84925200730961
H           -1.81117180057420       -0.04592582547736       -1.41350685001216
H            2.76327033318805        0.01260014912136       -0.47388708434133
H            2.12049585087424       -0.80784962565682        0.96975914081006
H            2.70171814756346        0.88880008744668        1.08818872167555
14
 energy: -20.783687773176 gnorm: 0.009518498320 xtb: 6.7.1 (41059b4)
C           -2.17432519020357        0.35715050703591        0.68175799439303
C           -1.32322268443723        0.47099492353586       -0.58435127919909
C            0.01699748308121       -0.18387723613963       -0.35869291157955
O            0.28131417318335       -1.33052218997560       -0.60351825817925
O            0.90053303263215        0.68252962918365        0.17367225416691
C            2.19942786149353        0.15701358617026        0.45447271256439
H           -3.15618467055895        0.79426910390704        0.50880171972555
H           -2.30326058463654       -0.68742444945840        0.95966286080656
H           -1.70025370956775        0.88338090155362        1.50823369383329
H           -1.17406139506789        1.52113232674141       -0.83843188602866
H           -1.81857611687340       -0.04181724465191       -1.41041826128430
H            2.75123500006514        0.01359645918623       -0.47605696597811
H            2.11220510073812       -0.80067887369891        0.96958078593979
H            2.69533714020536        0.89337586237370        1.08309717038039
14
 energy: -20.783781330157 gnorm: 0.004505423710 xtb: 6.7.1 (41059b4)
C           -2.16842936050295        0.35697019186760        0.68225376180262
C           -1.32264826573222        0.47167631329113       -0.58665920287978
C            0.01922071982044       -0.18400015461008       -0.36736976670762
O            0.27945938386732       -1.33229681152293       -0.60175266023619
O            0.89707316745989        0.67608952543525        0.16949843529555
C            2.19117258974539        0.15913487713989        0.45651161940837
H           -3.14902303495135        0.79490967648405        0.51526194843574
H           -2.29630505720270       -0.68698090321695        0.95691873084401
H           -1.68903689404707        0.87962717796894        1.50600868512061
H           -1.17030522974940        1.52086166827829       -0.83824386639057
H           -1.82228536549806       -0.03936132447957       -1.41006002127145
H            2.74705086663448        0.01356676334166       -0.47106021956326
H            2.10677593159700       -0.79784986726825        0.97294791043432
H            2.68444598861278        0.89677617305421        1.08355427526863
14
 energy: -20.783801738367 gnorm: 0.001310343570 xtb: 6.7.1 (41059b4)
C           -2.16566794606255        0.35636413777644        0.68247068841676
C           -1.32294378957543        0.47273399731496       -0.58884134752871
C            0.01763550522752       -0.18628188458275       -0.36631828189973
O            0.27749744059763       -1.33533555229529       -0.60313282770436
O            0.89446713362114        0.67384178473690        0.16755938436114
C            2.18735720682525        0.16060555204690        0.45686519351495
H           -3.14588401876756        0.79631350204538        0.51926653755967
H           -2.29409143716009       -0.68815674420859        0.95498889590930
H           -1.68292930768140        0.87626128940286        1.50613798834441
H           -1.16790431957496        1.52195289855996       -0.83846934929009
H           -1.82310751682544       -0.03613729365422       -1.41293720563389
H            2.74653081364164        0.01148070106223       -0.46875615216559
H            2.10643758631006       -0.79523319499049        0.97724965381843
H            2.67976808947775        0.90071411254894        1.08172645185869
14
 energy: -20.783807398428 gnorm: 0.001389380166 xtb: 6.7.1 (41059b4)
C           -2.16281964923437        0.35552386149501        0.68293256375428
C           -1.32375179608470        0.47317858053602       -0.59125714851220
C            0.01709975333496       -0.18718162325506       -0.37056706899190
O            0.27472621294661       -1.33792374273485       -0.60636241355499
O            0.89298440654041        0.67327328115740        0.16332077243302
C            2.18465247947541        0.16175619316274        0.45847220508251
H           -3.14317252102148        0.79850648609591        0.52559042536494
H           -2.29239236325076       -0.68997021084403        0.95301890802197
H           -1.67509463584484        0.87202544713938        1.50641898483157
H           -1.16771570362196        1.52263808629615       -0.83957353810298
H           -1.82633334460615       -0.03337827108807       -1.41520519491778
H            2.74816815305782        0.00725757890286       -0.46439561796114
H            2.10497139615372       -0.79198548805483        0.98433439567529
H            2.67584305220888        0.90540312695460        1.08108235643838
14
 energy: -20.783809466876 gnorm: 0.000502329675 xtb: 6.7.1 (41059b4)
C           -2.16181411698988        0.35491163658433        0.68301200428524
C           -1.32396439519181        0.47323740968938       -0.59174203400144
C            0.01701396323418       -0.18695891183587       -0.37186446101994
O            0.27432168640235       -1.33734363017313       -0.60765322499924
O            0.89316448811038        0.67383950449095        0.16186580501280
C            2.18449717219149        0.16182335413466        0.45901873668884
H           -3.14171529680765        0.79928890803599        0.52722601870647
H           -2.29260264115904       -0.69066496872255        0.95203121525524
H           -1.67281275201487        0.86979827069786        1.50667516056510
H           -1.16850454371509        1.52289889073066       -0.83975525025835
H           -1.82727413040875       -0.03299134290226       -1.41545415827810
H            2.74826008561442        0.00461369161917       -0.46308105199074
H            2.10300505116264       -0.79018810011032        0.98744246101427
H            2.67559086962519        0.90685859352436        1.08008840858083
14
 energy: -20.783811194892 gnorm: 0.000350130198 xtb: 6.7.1 (41059b4)
C           -2.16020179254801        0.35394007012294        0.68313466832623
C           -1.32424264112387        0.47351854227992       -0.59256076948726
C            0.01697477761149       -0.18643641837432       -0.37387396418930
O            0.27462195680219       -1.33644093094839       -0.60960401184434
O            0.89297469501457        0.67479392342866        0.15993965736975
C            2.18360869065221        0.16205322309563        0.45994417438206
H           -3.13921037993053        0.80105120848542        0.53026406590931
H           -2.29294805113954       -0.69192527583403        0.94967715213602
H           -1.66845552871771        0.86544358743144        1.50714932774476
H           -1.16966252958749        1.52343587771518       -0.83997388678141
H           -1.82837219877113       -0.03241668027495       -1.41591428565196
H            2.74728409228654       -0.00043162480077       -0.46101143223800
H            2.09963332402279       -0.78691147131739        0.99303015414189
H            2.67516102548203        0.90944927475390        1.07760877974322
14
 energy: -20.783812103537 gnorm: 0.000395405105 xtb: 6.7.1 (41059b4)
C           -2.15917199376245        0.35315104930512        0.68324434186394
C           -1.32449597144843        0.47370777156316       -0.59326577368686
C            0.01697495547944       -0.18577393762741       -0.37521581732370
O            0.27535755473502       -1.33548680659855       -0.61143214063747
O            0.89260570994384        0.67551060954485        0.15931956936002
C            2.18282496021550        0.16226778740532        0.46072414466226
H           -3.13745903510551        0.80247725065130        0.53252780137637
H           -2.29360304526060       -0.69296566282738        0.94793892316429
H           -1.66542124150539        0.86209942104231        1.50763582109119
H           -1.17032256601288        1.52376603822652       -0.84024996721431
H           -1.82906121420069       -0.03199904042800       -1.41651152914863
H            2.74582940473569       -0.00476536925461       -0.45978504026500
H            2.09763688642523       -0.78439824907244        0.99765739765708
H            2.67547103581478        0.91153244383305        1.07522189866180
14
 energy: -20.783813138408 gnorm: 0.000250543058 xtb: 6.7.1 (41059b4)
C           -2.15849915481137        0.35245075478308        0.68325886000678
C           -1.32464092524284        0.47387189633520       -0.59373308517696
C            0.01715463994915       -0.18496978230602       -0.37633914979599
O            0.27677727461456       -1.33417426264825       -0.61404866315603
O            0.89204104728429        0.67602299224861        0.15990355886648
C            2.18200960939680        0.16239940089031        0.46156936653914
H           -3.13607364130784        0.80391555503322        0.53440562427804
H           -2.29450426133382       -0.69393891531825        0.94601986583459
H           -1.66287747166306        0.85886932616161        1.50808014546994
H           -1.17107564384893        1.52411071675008       -0.84025999666763
H           -1.82942944806430       -0.03169365553779       -1.41690851357939
H            2.74336403006094       -0.00978304669636       -0.45899994134116
H            2.09635570117539       -0.78171361712989        1.00294355374166
H            2.67656368384459        0.91375594319769        1.07191800454149
14
 energy: -20.783814839855 gnorm: 0.000244709466 xtb: 6.7.1 (41059b4)
C           -2.15783341605517        0.35134418384100        0.68330313249369
C           -1.32479741467694        0.47420011839506       -0.59421638355895
C            0.01754674038835       -0.18359932149133       -0.37784399484220
O            0.27940317333977       -1.33160856292618       -0.61948659179384
O            0.89095446404056        0.67644129017488        0.16236997556981
C            2.18091295521995        0.16244408034561        0.46298054565685
H           -3.13435886030295        0.80570194485000        0.53654053555686
H           -2.29625038598469       -0.69540052560606        0.94341405095363
H           -1.66019035789406        0.85431980646615        1.50901108957265
H           -1.17201368836939        1.52472149116827       -0.84005233473308
H           -1.82954995622309       -0.03112745287001       -1.41755754960185
H            2.73839468693688       -0.01852303339000       -0.45834673319433
H            2.09553845763515       -0.77728644103687        1.01214604294846
H            2.67940904199917        0.91749572784274        1.06554784453329
14
 energy: -20.783817168861 gnorm: 0.000585734468 xtb: 6.7.1 (41059b4)
C           -2.15732628970009        0.34974149138145        0.68322760253549
C           -1.32491347921133        0.47481462347043       -0.59450509432815
C            0.01839550821957       -0.18150349673615       -0.38010559454797
O            0.28380246725892       -1.32717477869779       -0.62959200896996
O            0.88918521523642        0.67652281012850        0.16758832241092
C            2.17951667256509        0.16222371506975        0.46530719376476
H           -3.13264995822441        0.80753898870285        0.53899329534283
H           -2.29850437385151       -0.69756688785382        0.93958534901324
H           -1.65735008722313        0.84822873001965        1.51025861067507
H           -1.17343565830753        1.52586410275504       -0.83894826672516
H           -1.82957591138846       -0.02988077580389       -1.41828412429832
H            2.72966917594094       -0.03329409596219       -0.45768410619324
H            2.09547260564482       -0.76998488914053        1.02771730746014
H            2.68487955309428        0.92359376842995        1.05425114342132
14
 energy: -20.783819237599 gnorm: 0.000864423967 xtb: 6.7.1 (41059b4)
C           -2.15690581576443        0.34786988051304        0.68319944208591
C           -1.32498117246412        0.47587194220573       -0.59461812128522
C            0.01938254241224       -0.17909892028454       -0.38266774722186
O            0.28859722081411       -1.32172709731729       -0.64228301998339
O            0.88705270722730        0.67606494199214        0.17443647761960
C            2.17811888732848        0.16164660865328        0.46801389808699
H           -3.13142433294444        0.80788544382522        0.54079256898243
H           -2.30003534704920       -0.69997601019845        0.93624162364553
H           -1.65583637467437        0.84276034256261        1.51168598392318
H           -1.17464614888125        1.52754304687930       -0.83725130770714
H           -1.82927253808170       -0.02779841519534       -1.41924762174092
H            2.71899352275223       -0.05098037835512       -0.45688908709255
H            2.09642373176477       -0.76131444871294        1.04613596171281
H            2.69169855761395        0.93037636919559        1.04026057853560
14
 energy: -20.783821062192 gnorm: 0.000646218091 xtb: 6.7.1 (41059b4)
C           -2.15697377988819        0.34675420171773        0.68309139749944
C           -1.32493214757435        0.47690172771801       -0.59434849244881
C            0.02009962882630       -0.17753649575694       -0.38428977512415
O            0.29150634473929       -1.31779720997566       -0.65162409420340
O            0.88572031918629        0.67517330081323        0.17961600049331
C            2.17753005346285        0.16084373274166        0.46982786747685
H           -3.13192398188676        0.80599046429518        0.54092346913570
H           -2.29924153861409       -0.70148274300882        0.93494794406648
H           -1.65655419197516        0.84119753676548        1.51221454736629
H           -1.17523719036780        1.52906367107103       -0.83534528603969
H           -1.82898555396057       -0.02566790995531       -1.41980480507242
H            2.71147462773392       -0.06335141906886       -0.45618164990670
H            2.09805307648800       -0.75536154412311        1.05865535433315
H            2.69662977388383        0.93439599252963        1.03012715198493
14
 energy: -20.783822767585 gnorm: 0.000177365751 xtb: 6.7.1 (41059b4)
C           -2.15685163739056        0.34569292914358        0.68305851336921
C           -1.32482585645139        0.47840880696543       -0.59400340214513
C            0.02063504033545       -0.17609592646720       -0.38596174687526
O            0.29334427796226       -1.31415461350204       -0.66043274276616
O            0.88474252813811        0.67409135545378        0.18387546258496
C            2.17721347894241        0.15963134985878        0.47145605502360
H           -3.13337274411350        0.80138891938964        0.54009743807986
H           -2.29575805269756       -0.70292017274489        0.93527109141334
H           -1.65875520436925        0.84223766906755        1.51231617114831
H           -1.17555315711601        1.53110940628955       -0.83305604312326
H           -1.82869511403728       -0.02268560845470       -1.42046694770794
H            2.70492604132771       -0.07502221231986       -0.45528926427540
H            2.09928067400030       -0.75018563075241        1.07001294233912
H            2.70083516552286        0.93762703383604        1.02093210249574
14
 energy: -20.783823421584 gnorm: 0.000176721220 xtb: 6.7.1 (41059b4)
C           -2.15630052607615        0.34478791114840        0.68305296427126
C           -1.32487789726371        0.47960012513096       -0.59409029818615
C            0.02090973093094       -0.17489487315164       -0.38768832370451
O            0.29449236413282       -1.31157137990285       -0.66668849649240
O            0.88405158903770        0.67369889541858        0.18600688547955
C            2.17665665592093        0.15880923211473        0.47278921571739
H           -3.13418583405775        0.79771421316659        0.54022573908883
H           -2.29223150175607       -0.70419532145390        0.93544293027900
H           -1.65939356691150        0.84284369170659        1.51217229628548
H           -1.17599794815758        1.53273644480216       -0.83147729350800
H           -1.82899331884333       -0.02023446972797       -1.42117126058685
H            2.70057107875557       -0.08405234563019       -0.45408351414388
H            2.09895108193356       -0.74622619666841        1.07870399958402
H            2.70351353240814        0.94010737881020        1.01461478547725
14
 energy: -20.783823662135 gnorm: 0.000379734504 xtb: 6.7.1 (41059b4)
C           -2.15573312236071        0.34454867394843        0.68312389351366
C           -1.32493869692199        0.48030110087006       -0.59432461547213
C            0.02077187716668       -0.17450323989573       -0.38844233804265
O            0.29390298064793       -1.31118127323577       -0.66739964312651
O            0.88413842792836        0.67378532147495        0.18519812893864
C            2.17635588546847        0.15840614585070        0.47302105501180
H           -3.13489297339354        0.79463804228321        0.54009825268252
H           -2.28877414843677       -0.70454528527388        0.93664527797058
H           -1.65998557667942        0.84480382217827        1.51162759465442
H           -1.17604130736097        1.53355951011999       -0.83106543323568
H           -1.82937903901730       -0.01896540678200       -1.42153132417593
H            2.70046216133411       -0.08577764439788       -0.45301386913454
H            2.09792079657863       -0.74564143026803        1.07978271305328
H            2.70335817510009        0.93969496889093        1.01408993692350
14
 energy: -20.783823866138 gnorm: 0.000118105586 xtb: 6.7.1 (41059b4)
C           -2.15527055228472        0.34396261805380        0.68316153054123
C           -1.32497384449971        0.48093825267265       -0.59451819856797
C            0.02091764540874       -0.17361788937338       -0.38933961050051
O            0.29472071522714       -1.30980431081518       -0.67001951171733
O            0.88389750179275        0.67412083712566        0.18587618504705
C            2.17585887619355        0.15808124685076        0.47367578837284
H           -3.13485711959004        0.79317675066896        0.54059382893427
H           -2.28729533866340       -0.70533209697136        0.93637655737042
H           -1.65974638037086        0.84438592598567        1.51166306673677
H           -1.17654780045562        1.53441313687568       -0.83061485019655
H           -1.82944534372202       -0.01798055181038       -1.42190314809792
H            2.69822360925159       -0.09051171413627       -0.45239346890262
H            2.09691357829892       -0.74361068550517        1.08418994835060
H            2.70476989346726        0.94090178614180        1.01106151219070
14
 energy: -20.783823912663 gnorm: 0.000057826926 xtb: 6.7.1 (41059b4)
C           -2.15511946079687        0.34384726679453        0.68315557361504
C           -1.32500636690344        0.48113357642949       -0.59462884502775
C            0.02091330372790       -0.17328045163936       -0.38947671217246
O            0.29470524313093       -1.30957729006245       -0.66981973248898
O            0.88403231881686        0.67448037141319        0.18552956889890
C            2.17571719279405        0.15802566098240        0.47371781176748
H           -3.13495238067480        0.79260192902795        0.54075081721661
H           -2.28653412763392       -0.70554557516922        0.93629078566193
H           -1.65963371829126        0.84443744099626        1.51159535578997
H           -1.17680779358664        1.53466428349664       -0.83058217506743
H           -1.82949127019971       -0.01779695972437       -1.42200950955330
H            2.69809734790914       -0.09126979372056       -0.45217251541883
H            2.09626742121273       -0.74339741771509        1.08459993060814
H            2.70497773054860        0.94080026465383        1.01085927573165
