
                                 *****************
                                 * O   R   C   A *
                                 *****************

                                            #,                                       
                                            ###                                      
                                            ####                                     
                                            #####                                    
                                            ######                                   
                                           ########,                                 
                                     ,,################,,,,,                         
                               ,,#################################,,                 
                          ,,##########################################,,             
                       ,#########################################, ''#####,          
                    ,#############################################,,   '####,        
                  ,##################################################,,,,####,       
                ,###########''''           ''''###############################       
              ,#####''   ,,,,##########,,,,          '''####'''          '####       
            ,##' ,,,,###########################,,,                        '##       
           ' ,,###''''                  '''############,,,                           
         ,,##''                                '''############,,,,        ,,,,,,###''
      ,#''                                            '''#######################'''  
     '                                                          ''''####''''         
             ,#######,   #######,   ,#######,      ##                                
            ,#'     '#,  ##    ##  ,#'     '#,    #''#        ,####,   ,####,        
            ##       ##  ##   ,#'  ##            #'  '#       #'       #'  '#        
            ##       ##  #######   ##           ,######,      #####,   #    #        
            '#,     ,#'  ##    ##  '#,     ,#' ,#      #,     #,   #   #,  ,#        
             '#######'   ##     ##  '#######'  #'      '#     '####' # '####'        



                #########################################################
                #                        -***-                          #
                #          Department of theory and spectroscopy        #
                #                                                       #
                #                      Frank Neese                      #
                #                                                       #
                #     Directorship, Architecture, Infrastructure        #
                #                    SHARK, DRIVERS                     #
                #        Core code/Algorithms in most modules           #
                #                                                       #
                #        Max Planck Institute fuer Kohlenforschung      #
                #                Kaiser Wilhelm Platz 1                 #
                #                 D-45470 Muelheim/Ruhr                 #
                #                      Germany                          #
                #                                                       #
                #                  All rights reserved                  #
                #                        -***-                          #
                #########################################################


                         Program Version 6.0.1  -  RELEASE   -


 With contributions from (in alphabetic order):
[Max-Planck-Institut fuer Kohlenforschung]                               
  Daniel Aravena         : Magnetic Suceptibility                        
  Michael Atanasov       : Ab Initio Ligand Field Theory (pilot matlab implementation)
  Alexander A. Auer      : GIAO ZORA, VPT2 properties, NMR spectrum      
  Ute Becker             : All parallelization in ORCA, NUMFREQ, NUMCALC 
  Giovanni Bistoni       : ED, misc. LED, open-shell LED, HFLD           
  Martin Brehm           : Molecular dynamics                            
  Dmytro Bykov           : pre 5.0 version of the SCF Hessian            
  Marcos Casanova-Páez   : Triplet and SCS-CIS(D). UHF-(DLPNO)-IP/EA/STEOM-CCSD. UHF-CVS-IP/STEOM-CCSD   
  Vijay G. Chilkuri      : MRCI spin determinant printing, contributions to CSF-ICE 
  Pauline Colinet        : FMM embedding                                 
  Dipayan Datta          : RHF DLPNO-CCSD density                        
  Achintya Kumar Dutta   : EOM-CC, STEOM-CC                              
  Nicolas Foglia         : Exact transition moments, OPA infrastructure, MCD improvements    
  Dmitry Ganyushin       : Spin-Orbit,Spin-Spin,Magnetic field MRCI      
  Miquel Garcia-Rates    : C-PCM and meta-GGA Hessian, CCSD/C-PCM, Gaussian charge scheme 
  Tiago L. C. Gouveia    : GS-ROHF, GS-ROCIS                             
  Yang Guo               : DLPNO-NEVPT2, F12-NEVPT2, CIM, IAO-localization        
  Andreas Hansen         : Spin unrestricted coupled pair/coupled cluster methods 
  Ingolf Harden          : AUTO-CI MPn and infrastructure                
  Benjamin Helmich-Paris : MC-RPA, TRAH-(SCF,CASSCF), AVAS, COSX integrals, SCF dyn. polar. 
  Lee Huntington         : MR-EOM, pCC                                   
  Robert Izsak           : Overlap fitted RIJCOSX, COSX-SCS-MP3, EOM     
  Riya Kayal             : Wick's Theorem for AUTO-CI, AUTO-CI UHF-CCSDT 
  Emily Kempfer          : AUTO-CI, RHF CISDT and CCSDT                  
  Christian Kollmar      : KDIIS, OOCD, Brueckner-CCSD(T), CCSD density, CASPT2, CASPT2-K, improved NEVPT2 
  Axel Koslowski         : Symmetry handling                             
  Simone Kossmann        : meta-GGA functionals, TD-DFT gradient, OOMP2, (MP2 Hessian; deprecated post 5.0) 
  Lucas Lang             : DCDCAS                                        
  Marvin Lechner         : AUTO-CI (C++ implementation), FIC-MRCC        
  Spencer Leger          : CASSCF response                               
  Dagmar Lenk            : GEPOL surface, SMD, ORCA-2-JSON               
  Dimitrios Liakos       : Extrapolation schemes; Compound Job, initial MDCI parallelization 
  Dimitrios Manganas     : Further ROCIS development; embedding schemes. LFT, Crystal Embedding 
  Dimitrios Pantazis     : SARC Basis sets                               
  Anastasios Papadopoulos: AUTO-CI, single reference methods and gradients 
  Taras Petrenko         : pre 6.0 DFT Hessian and TD-DFT gradient, (ASA, deprecated), ECA, 1-Electron XAS/XES, NRVS 
  Peter Pinski           : DLPNO-MP2, DLPNO-MP2 Gradient                 
  Christoph Reimann      : Effective Core Potentials                     
  Marius Retegan         : Local ZFS, SOC                                
  Christoph Riplinger    : Optimizer, TS searches, QM/MM, DLPNO-CCSD(T), (RO)-DLPNO pert. Triples 
  Michael Roemelt        : Original ROCIS implementation                 
  Masaaki Saitow         : Open-shell DLPNO-CCSD energy and density      
  Barbara Sandhoefer     : DKH picture change effects                    
  Kantharuban Sivalingam : CASSCF convergence/infrastructure, NEVPT2 and variants, FIC-MRCI 
  Bernardo de Souza      : ESD, SOC TD-DFT                               
  Georgi L. Stoychev     : AutoAux, RI-MP2 NMR, DLPNO-MP2 response, X2C  
  Van Anh Tran           : RI-MP2 g-tensors                              
  Willem Van den Heuvel  : Paramagnetic NMR                              
  Zikuan Wang            : NOTCH, Electric field optimization            
  Frank Wennmohs         : Technical directorship and infrastructure     
  Hang Xu                : AUTO-CI-Response properties                   
                                                                         
[FACCTs GmbH]                                                            
  Markus Bursch, Miquel Garcia-Rates, Christoph Riplinger, Bernardo de Souza, Georgi L. Stoychev 
                                                                 
  APM, Basis sets (HGBS, AHGBS, def-TZVP (Ac-Lr), def2-XVPD (La-Lu)), CI-OPT, improved COSX, DLPNO-Multilevel,           
  DOCKER, DRACO, updates on ESD, GOAT, IRC, LR-CPCM, MBIS, meta-GGA TD-DFT gradient, ML-optimized integration grids, 
  MM, NACMEs, nearIR, NEB, NEB-TS, NL-DFT gradient (VV10), 2- and 3-layer-ONIOM, interface openCOSMO-RS, QMMM,   
  Crystal-QMMM, SF, symmetry and pop. for TD-DFT, r2SCAN hybrids, SOLVATOR                                   
                                                                         
[Other institutions]                                                     
  V. Asgeirsson          : NEB                                           
  Christoph Bannwarth    : sTDA-DFT, sTD-DFT, PBEh-3c, B97-3c, D3        
  Sebastian Ehlert       : rSCAN, r2SCAN, r2SCAN-3c, D4, dhf basis sets  
  Marvin Friede          : D4 for Fr, Ra, Ac-Lr                          
  Lars Goerigk           : TD-DFT with DH, B97 family of functionals     
  Stefan Grimme          : VdW corrections, initial TS optimization, DFT functionals, gCP, sTDA/sTD-DF 
  Waldemar Hujo          : DFT-NL                                        
  H. Jonsson             : NEB                                           
  Holger Kruse           : gCP                                           
  Marcel Mueller         : wB97X-3c, vDZP basis set                      
  Hagen Neugebauer       : wr2SCAN                                       
  Tobias Risthaus        : range-separated hybrid DFT                    
  Lukas Wittmann         : regularized MP2, r2SCAN double-hybrids, wr2SCAN        
                                                                         
We gratefully acknowledge several colleagues who have allowed us to      
interface, adapt or use parts of their codes:                            
  Ed Valeev, F. Pavosevic, A. Kumar             : LibInt (2-el integral package), F12 methods 
  Garnet Chan, S. Sharma, J. Yang, R. Olivares  : DMRG                   
  Ulf Ekstrom                                   : XCFun DFT Library      
  Mihaly Kallay                                 : mrcc  (arbitrary order and MRCC methods)
  Frank Weinhold                                : gennbo (NPA and NBO analysis)           
  Simon Mueller                                 : openCOSMO-RS                            
  Christopher J. Cramer and Donald G. Truhlar   : smd solvation model                     
  S Lehtola, MJT Oliveira, MAL Marques          : LibXC Library                           
  Liviu Ungur et al                             : ANISO software                          


 Your calculation uses the libint2 library for the computation of 2-el integrals
 For citations please refer to: http://libint.valeyev.net

 Your ORCA version has been built with support for libXC version: 6.2.2
 For citations please refer to: https://libxc.gitlab.io

 This ORCA versions uses:
   CBLAS   interface :  Fast vector & matrix operations
   LAPACKE interface :  Fast linear algebra routines
   SCALAPACK package :  Parallel linear algebra routines
   Shared memory     :  Shared parallel matrices
   BLAS/LAPACK       :  OpenBLAS 0.3.27  USE64BITINT DYNAMIC_ARCH NO_AFFINITY Zen SINGLE_THREADED
        Core in use  :  Zen
   Copyright (c) 2011-2014, The OpenBLAS Project


Your calculation utilizes the geometrical counterpoise correction gCP
Please cite in your paper:
H.Kruse, S. Grimme J.Chem.Phys., 136, (2012), 154101 
   

Your calculation utilizes the atom-pairwise dispersion correction
based on EEQ partial charges (D4)


================================================================================

----- Orbital basis set information -----
Your calculation utilizes the basis: def2-mTZVPP
   Stefan Grimme, Andreas Hansen, Sebastian Ehlert, and Jan-Michael Mewes 
   J. Chem. Phys. 154, 064103 (2021). DOI: 10.1063/5.0040021

----- AuxJ basis set information -----
Your calculation utilizes the auxiliary basis: def2/J
   F. Weigend, Phys. Chem. Chem. Phys. 8, 1057 (2006).

================================================================================
                                        WARNINGS
                       Please study these warnings very carefully!
================================================================================



WARNING: SCAN, rSCAN, or r2SCAN functional requested.
  ===> : libXC variant has now been activated.



================================================================================
                                       INPUT FILE
================================================================================
NAME = sp.inp
|  1> ! r2scan-3c def2/J RI DEFGRID2 scfconv6 printgap
|  2> %output
|  3>     printlevel normal
|  4> end
|  5> * xyz 0 1
|  6> C -1.2606543542 0.2720974537 -2.3678e-06
|  7> C -3.1064e-06 -0.5837301644 1.8079e-06
|  8> C 1.2606558635 0.2720908044 1.5832e-06
|  9> H -1.2881116261 0.9089607501 0.8817140064
| 10> H -1.2884082218 0.908639811 -0.8819468615
| 11> H -2.1505326694 -0.3533161995 0.0002557192
| 12> H -9.7556e-06 -1.2286423167 0.8816809747
| 13> H -3.95085e-05 -1.2286768084 -0.8816542278
| 14> H 1.2883436954 0.9086884816 -0.881859305
| 15> H 2.1505237015 -0.3533350967 7.19679e-05
| 16> H 1.2882534168 0.9088966141 0.8817255309
| 17> *
| 18> 
| 19>                          ****END OF INPUT****
================================================================================

                       ****************************
                       * Single Point Calculation *
                       ****************************

---------------------------------
CARTESIAN COORDINATES (ANGSTROEM)
---------------------------------
  C     -1.260654    0.272097   -0.000002
  C     -0.000003   -0.583730    0.000002
  C      1.260656    0.272091    0.000002
  H     -1.288112    0.908961    0.881714
  H     -1.288408    0.908640   -0.881947
  H     -2.150533   -0.353316    0.000256
  H     -0.000010   -1.228642    0.881681
  H     -0.000040   -1.228677   -0.881654
  H      1.288344    0.908688   -0.881859
  H      2.150524   -0.353335    0.000072
  H      1.288253    0.908897    0.881726

----------------------------
CARTESIAN COORDINATES (A.U.)
----------------------------
  NO LB      ZA    FRAG     MASS         X           Y           Z
   0 C     6.0000    0    12.011   -2.382291    0.514190   -0.000004
   1 C     6.0000    0    12.011   -0.000006   -1.103090    0.000003
   2 C     6.0000    0    12.011    2.382294    0.514177    0.000003
   3 H     1.0000    0     1.008   -2.434178    1.717687    1.666198
   4 H     1.0000    0     1.008   -2.434739    1.717080   -1.666638
   5 H     1.0000    0     1.008   -4.063918   -0.667671    0.000483
   6 H     1.0000    0     1.008   -0.000018   -2.321797    1.666136
   7 H     1.0000    0     1.008   -0.000075   -2.321863   -1.666085
   8 H     1.0000    0     1.008    2.434617    1.717172   -1.666473
   9 H     1.0000    0     1.008    4.063901   -0.667707    0.000136
  10 H     1.0000    0     1.008    2.434446    1.717566    1.666220

--------------------------------
INTERNAL COORDINATES (ANGSTROEM)
--------------------------------
 C      0   0   0     0.000000000000     0.00000000     0.00000000
 C      1   0   0     1.523706822358     0.00000000     0.00000000
 C      2   1   0     1.523709476582   111.65697839     0.00000000
 H      1   2   3     1.088013108659   110.46595502   300.11832348
 H      1   2   3     1.088017711148   110.46979701    59.90891929
 H      1   2   3     1.087669858036   110.72844586   180.01452433
 H      2   1   3     1.092368910853   109.36582010   121.18170432
 H      2   1   3     1.092370605710   109.36522869   238.81567766
 H      3   2   1     1.087980627028   110.46888739   300.09765948
 H      3   2   1     1.087668300461   110.72797121   179.99620480
 H      3   2   1     1.087989147080   110.47107790    59.88798742

---------------------------
INTERNAL COORDINATES (A.U.)
---------------------------
 C      0   0   0     0.000000000000     0.00000000     0.00000000
 C      1   0   0     2.879388602644     0.00000000     0.00000000
 C      2   1   0     2.879393618401   111.65697839     0.00000000
 H      1   2   3     2.056046805482   110.46595502   300.11832348
 H      1   2   3     2.056055502925   110.46979701    59.90891929
 H      1   2   3     2.055398155810   110.72844586   180.01452433
 H      2   1   3     2.064278078721   109.36582010   121.18170432
 H      2   1   3     2.064281281537   109.36522869   238.81567766
 H      3   2   1     2.055985424095   110.46888739   300.09765948
 H      3   2   1     2.055395212419   110.72797121   179.99620480
 H      3   2   1     2.056001524659   110.47107790    59.88798742

---------------------
BASIS SET INFORMATION
---------------------
There are 2 groups of distinct atoms

 Group   1 Type C   : 11s6p1d contracted to 5s3p1d pattern {62111/411/1}
 Group   2 Type H   : 4s1p contracted to 2s1p pattern {31/1}

Atom   0C    basis set group =>   1
Atom   1C    basis set group =>   1
Atom   2C    basis set group =>   1
Atom   3H    basis set group =>   2
Atom   4H    basis set group =>   2
Atom   5H    basis set group =>   2
Atom   6H    basis set group =>   2
Atom   7H    basis set group =>   2
Atom   8H    basis set group =>   2
Atom   9H    basis set group =>   2
Atom  10H    basis set group =>   2
---------------------------------
AUXILIARY/J BASIS SET INFORMATION
---------------------------------
There are 2 groups of distinct atoms

 Group   1 Type C   : 12s5p4d2f1g contracted to 6s4p3d1f1g pattern {711111/2111/211/2/1}
 Group   2 Type H   : 5s2p1d contracted to 3s1p1d pattern {311/2/1}

Atom   0C    basis set group =>   1
Atom   1C    basis set group =>   1
Atom   2C    basis set group =>   1
Atom   3H    basis set group =>   2
Atom   4H    basis set group =>   2
Atom   5H    basis set group =>   2
Atom   6H    basis set group =>   2
Atom   7H    basis set group =>   2
Atom   8H    basis set group =>   2
Atom   9H    basis set group =>   2
Atom  10H    basis set group =>   2

Checking for AutoStart:
The File: sp.gbw exists
Trying to determine its content:
     ... Fine, the file contains calculation information
     ... Fine, the calculation information was read
     ... Fine, the file contains a basis set
     ... Fine, the basis set was read
     ... Fine, the file contains a geometry
     ... Fine, the geometry was read
     ... Fine, the file contains a set of orbitals
     ... Fine, the orbitals can be read
     => possible old guess file was deleted
     => GBW file was renamed to GES file
     => GES file is set as startup file
     => Guess is set to MORead
     ... now leaving AutoStart

------------------------------------------------------------------------------
                             ORCA STARTUP CALCULATIONS
                           -- RI-GTO INTEGRALS CHOSEN --
------------------------------------------------------------------------------
------------------------------------------------------------------------------
                   ___                                                        
                  /   \      - P O W E R E D   B Y -                         
                 /     \                                                     
                 |  |  |   _    _      __       _____    __    __             
                 |  |  |  | |  | |    /  \     |  _  \  |  |  /  |          
                  \  \/   | |  | |   /    \    | | | |  |  | /  /          
                 / \  \   | |__| |  /  /\  \   | |_| |  |  |/  /          
                |  |  |   |  __  | /  /__\  \  |    /   |      \           
                |  |  |   | |  | | |   __   |  |    \   |  |\   \          
                \     /   | |  | | |  |  |  |  | |\  \  |  | \   \       
                 \___/    |_|  |_| |__|  |__|  |_| \__\ |__|  \__/        
                                                                              
                      - O R C A' S   B I G   F R I E N D -                    
                                      &                                       
                       - I N T E G R A L  F E E D E R -                       
                                                                              
 v1 FN, 2020, v2 2021, v3 2022-2024                                           
------------------------------------------------------------------------------


----------------------
SHARK INTEGRAL PACKAGE
----------------------

Number of atoms                             ...     11
Number of basis functions                   ...     97
Number of shells                            ...     51
Maximum angular momentum                    ...      2
Integral batch strategy                     ... SHARK/LIBINT Hybrid
RI-J (if used) integral strategy            ... SPLIT-RIJ (Revised 2003 algorithm where possible)
Printlevel                                  ...      1
Contraction scheme used                     ... SEGMENTED contraction
Prescreening option                         ... SCHWARTZ
   Thresh                                   ... 1.000e-10
   Tcut                                     ... 1.000e-11
   Tpresel                                  ... 1.000e-11 
Coulomb Range Separation                    ... NOT USED
Exchange Range Separation                   ... NOT USED
Multipole approximations                    ... NOT USED
Finite Nucleus Model                        ... NOT USED
CABS basis                                  ... NOT available
Auxiliary Coulomb fitting basis             ... AVAILABLE
   # of basis functions in Aux-J            ...    235
   # of shells in Aux-J                     ...     85
   Maximum angular momentum in Aux-J        ...      4
Auxiliary J/K fitting basis                 ... NOT available
Auxiliary Correlation fitting basis         ... NOT available
Auxiliary 'external' fitting basis          ... NOT available

Checking pre-screening integrals            ... done (  0.0 sec) Dimension = 51
Check shell pair data                       ... done (  0.0 sec)
Shell pair information
Shell pair cut-off parameter TPreSel        ...   1.0e-11
Total number of shell pairs                 ...      1326
Shell pairs after pre-screening             ...      1313
Total number of primitive shell pairs       ...      4555
Primitive shell pairs kept                  ...      3689
          la=0 lb=0:    488 shell pairs
          la=1 lb=0:    523 shell pairs
          la=1 lb=1:    152 shell pairs
          la=2 lb=0:     93 shell pairs
          la=2 lb=1:     51 shell pairs
          la=2 lb=2:      6 shell pairs

Calculating one electron integrals          ... done (  0.0 sec)
Calculating RI/J V-Matrix + Cholesky decomp.... done (  0.0 sec)
Calculating Nuclear repulsion               ... done (  0.0 sec) ENN=     82.952343508438 Eh

Diagonalization of the overlap matrix:
Smallest eigenvalue                        ... 5.288e-04
Time for diagonalization                   ...    0.001 sec
Threshold for overlap eigenvalues          ... 1.000e-07
Number of eigenvalues below threshold      ... 0
Time for construction of square roots      ...    0.000 sec
Total time needed                          ...    0.002 sec

-------------------
DFT GRID GENERATION
-------------------

General Integration Accuracy     IntAcc      ... 4.388
Radial Grid Type                 RadialGrid  ... OptM3 with GC (2021)
Angular Grid (max. ang.)         AngularGrid ... 4 (Lebedev-302)
Angular grid pruning method      GridPruning ... 4 (adaptive)
Weight generation scheme         WeightScheme... mBecke (2022)
Basis function cutoff            BFCut       ... 1.0000e-10
Integration weight cutoff        WCut        ... 1.0000e-14
Partially contracted basis set               ... off
Rotationally invariant grid construction     ... off
Angular grids for H and He will be reduced by one unit

Total number of grid points                  ...    43998
Total number of batches                      ...      693
Average number of points per batch           ...       63
Average number of grid points per atom       ...     4000
Initializing property integral containers    ... done (  0.0 sec)

SHARK setup successfully completed in   0.2 seconds

Maximum memory used throughout the entire STARTUP-calculation: 18.4 MB
-------------------------------------------------------------------------------
                                 ORCA GUESS
                   Start orbitals & Density for SCF / CASSCF
-------------------------------------------------------------------------------

------------
SCF SETTINGS
------------
Hamiltonian:
 Density Functional     Method          .... DFT(GTOs)
  Functional kind                       .... Exchange
  Functional name                       .... Re-regularized SCAN exchange by Furness et al
  Functional family                     .... MGGA
  Functional refs                              
    [ 0] J. W. Furness, A. D. Kaplan, J. Ning, J. P. Perdew, and J. Sun.,  J. Phys. Chem. Lett. 11, 8208-8215 (2020), doi: 10.1021/acs.jpclett.0c02405
    [ 1] J. W. Furness, A. D. Kaplan, J. Ning, J. P. Perdew, and J. Sun.,  J. Phys. Chem. Lett. 11, 9248-9248 (2020), doi: 10.1021/acs.jpclett.0c03077
  Functional external parameters        .... 6
    Parameter  0 _c1        =  6.670000e-01 : c1 parameter        
    Parameter  1 _c2        =  8.000000e-01 : c2 parameter        
    Parameter  2 _d         =  1.240000e+00 : d parameter         
    Parameter  3 _k1        =  6.500000e-02 : k1 parameter        
    Parameter  4 _eta       =  1.000000e-03 : eta parameter       
    Parameter  5 _dp2       =  3.610000e-01 : dp2 parameter       
  Functional kind                       .... Correlation
  Functional name                       .... Re-regularized SCAN correlation by Furness et al
  Functional family                     .... MGGA
  Functional refs                              
    [ 0] J. W. Furness, A. D. Kaplan, J. Ning, J. P. Perdew, and J. Sun.,  J. Phys. Chem. Lett. 11, 8208-8215 (2020), doi: 10.1021/acs.jpclett.0c02405
    [ 1] J. W. Furness, A. D. Kaplan, J. Ning, J. P. Perdew, and J. Sun.,  J. Phys. Chem. Lett. 11, 9248-9248 (2020), doi: 10.1021/acs.jpclett.0c03077
  Functional external parameters        .... 1
    Parameter  0 _eta       =  1.000000e-03 : Regularization parameter
 Gradients option       PostSCFGGA      .... off
 RI-approximation to the Coulomb term is turned on
   Number of AuxJ basis functions       .... 235


General Settings:
 Integral files         IntName         .... sp
 Hartree-Fock type      HFTyp           .... RHF
 Total Charge           Charge          ....    0
 Multiplicity           Mult            ....    1
 Number of Electrons    NEL             ....   26
 Basis Dimension        Dim             ....   97
 Nuclear Repulsion      ENuc            ....     82.9523435084 Eh

Convergence Acceleration:
 AO-DIIS                CNVDIIS         .... on
   Start iteration      DIISMaxIt       ....    12
   Startup error        DIISStart       ....  0.200000
   # of expansion vecs  DIISMaxEq       ....     5
   Bias factor          DIISBfac        ....   1.050
   Max. coefficient     DIISMaxC        ....  10.000
 MO-DIIS                CNVKDIIS        .... off
 Trust-Rad. Augm. Hess. CNVTRAH         .... auto
   Auto Start mean grad. ratio tolernc. ....  1.125000
   Auto Start start iteration           ....     1
   Auto Start num. interpolation iter.  ....    10
   Max. Number of Micro iterations      ....    24
   Max. Number of Macro iterations      .... Maxiter - #DIIS iter
   Number of Davidson start vectors     ....     2
   Converg. threshold    (grad. norm)   ....   3.330e-04
   Grad. Scal. Fac. for Micro threshold ....   0.100
   Minimum threshold for Micro iter.    ....   1.000e-02
   NR start threshold (gradient norm)   ....   1.000e-04
   Initial trust radius                 ....   0.400
   Minimum AH scaling param. (alpha)    ....   1.000
   Maximum AH scaling param. (alpha)    .... 1000.000
   Quad. conv. algorithm                .... NR
   White noise on init. David. guess    .... on
   Maximum white noise                  ....   0.010
   Pseudo random numbers                .... off
   Inactive MOs                         .... canonical
   Orbital update algorithm             .... Taylor
   Preconditioner                       .... Diag
   Full preconditioner red. dimension   ....   250
   COSX micro iterations for RIJONX calc.... off
 SOSCF                  CNVSOSCF        .... on
   Start iteration      SOSCFMaxIt      ....   150
   Startup grad/error   SOSCFStart      ....  0.003300
   Hessian update       SOSCFHessUp     .... L-BFGS
 Level Shifting         CNVShift        .... on
   Level shift para.    LevelShift      ....    0.2500
   Turn off err/grad.   ShiftErr        ....    0.0010
 Zerner damping         CNVZerner       .... off
 Static damping         CNVDamp         .... on
   Fraction old density DampFac         ....    0.7000
   Max. Damping (<1)    DampMax         ....    0.9800
   Min. Damping (>=0)   DampMin         ....    0.0000
   Turn off err/grad.   DampErr         ....    0.1000

SCF Procedure:
 Maximum # iterations   MaxIter         ....   125
 SCF integral mode      SCFMode         .... Direct
   Integral package                     .... SHARK and LIBINT hybrid scheme
 Reset frequency        DirectResetFreq ....    20
 Integral Threshold     Thresh          ....  1.000e-10 Eh
 Primitive CutOff       TCut            ....  1.000e-11 Eh

Convergence Tolerance:
 Convergence Check Mode ConvCheckMode   .... Total+1el-Energy
 Convergence forced     ConvForced      .... 0
 Energy Change          TolE            ....  1.000e-06 Eh
 1-El. energy change                    ....  1.000e-03 Eh
 Orbital Gradient       TolG            ....  3.330e-04
 Orbital Rotation angle TolX            ....  3.330e-04
 DIIS Error             TolErr          ....  1.000e-06

---------------------
INITIAL GUESS: MOREAD
---------------------
Guess MOs are being read from file: sp.ges
Input Geometry matches current geometry (good)
Atom 0: N(Shells)= 9 and 6 - projection required
Input basis set needs projection
NBasis(read)= 58
NBasis(calc)= 97
Basis set overlap was calculated
Using GuessMode=FMatrix for the initial guess
C*T matrix was formed
Effective Fockian was calculated
Effective Fockian was diagonalized
Initial density was built
                      ------------------
                      INITIAL GUESS DONE (   0.0 sec)
                      ------------------
             **** ENERGY FILE WAS UPDATED (sp.en.tmp) ****
Finished Guess after   0.0 sec
Maximum memory used throughout the entire GUESS-calculation: 7.8 MB

-------------------------------------------------------------------------------------------
                                      ORCA LEAN-SCF
                              memory conserving SCF solver
-------------------------------------------------------------------------------------------

----------------------------------------D-I-I-S--------------------------------------------
Iteration    Energy (Eh)           Delta-E    RMSDP     MaxDP     DIISErr   Damp  Time(sec)
-------------------------------------------------------------------------------------------
               ***  Starting incremental Fock matrix formation  ***
    1    -119.0287705729388819     0.00e+00  3.71e-03  7.62e-02  2.79e-01  0.700   0.3
    2    -119.0478919238624798    -1.91e-02  3.14e-03  6.47e-02  1.96e-01  0.700   0.3
                               ***Turning on AO-DIIS***
    3    -119.0614499088097915    -1.36e-02  2.37e-03  4.82e-02  1.37e-01  0.700   0.3
    4    -119.0709756951153366    -9.53e-03  1.71e-03  3.45e-02  9.62e-02  0.700   0.3
    5    -119.0776603150135742    -6.68e-03  4.07e-03  8.14e-02  6.73e-02  0.000   0.3
                              *** Initializing SOSCF ***
---------------------------------------S-O-S-C-F--------------------------------------
Iteration    Energy (Eh)           Delta-E    RMSDP     MaxDP     MaxGrad    Time(sec)
--------------------------------------------------------------------------------------
    6    -119.0933200338294995    -1.57e-02  5.82e-05  8.40e-04  1.60e-04     0.3
               *** Restarting incremental Fock matrix formation ***
    7    -119.0933204196289665    -3.86e-07  2.23e-05  2.66e-04  3.82e-05     0.3
                  *** Gradient check signals convergence ***

               *****************************************************
               *                     SUCCESS                       *
               *           SCF CONVERGED AFTER   7 CYCLES          *
               *****************************************************

             **** ENERGY FILE WAS UPDATED (sp.en.tmp) ****

----------------
TOTAL SCF ENERGY
----------------

Total Energy       :       -119.09332041962897 Eh           -3240.69400 eV

Components:
Nuclear Repulsion  :         82.95234350843789 Eh            2257.24802 eV
Electronic Energy  :       -202.04566392806686 Eh           -5497.94203 eV
One Electron Energy:       -322.62147516425574 Eh           -8778.97665 eV
Two Electron Energy:        120.57581123618890 Eh            3281.03463 eV

Virial components:
Potential Energy   :       -237.60520429403965 Eh           -6465.56631 eV
Kinetic Energy     :        118.51188387441067 Eh            3224.87231 eV
Virial Ratio       :          2.00490614549537

DFT components:
N(Alpha)           :       13.000025588574 electrons
N(Beta)            :       13.000025588574 electrons
N(Total)           :       26.000051177148 electrons
E(X)               :      -18.449235709817 Eh       
E(C)               :       -0.778737614115 Eh       
E(XC)              :      -19.227973323932 Eh       

---------------
SCF CONVERGENCE
---------------

  Last Energy change         ...    3.8580e-07  Tolerance :   1.0000e-06
  Last MAX-Density change    ...    2.6558e-04  Tolerance :   1.0000e-05
  Last RMS-Density change    ...    2.2318e-05  Tolerance :   1.0000e-06
  Last DIIS Error            ...    1.6003e-04  Tolerance :   1.0000e-06
  Last Orbital Gradient      ...    3.8216e-05  Tolerance :   3.3300e-04
  Last Orbital Rotation      ...    8.2959e-05  Tolerance :   3.3300e-04


----------------
ORBITAL ENERGIES
----------------

  NO   OCC          E(Eh)            E(eV) 
   0   2.0000     -10.022974      -272.7390 
   1   2.0000     -10.013196      -272.4729 
   2   2.0000     -10.013187      -272.4727 
   3   2.0000      -0.746891       -20.3239 
   4   2.0000      -0.645664       -17.5694 
   5   2.0000      -0.548603       -14.9282 
   6   2.0000      -0.426159       -11.5964 
   7   2.0000      -0.404141       -10.9972 
   8   2.0000      -0.365988        -9.9591 
   9   2.0000      -0.348411        -9.4808 
  10   2.0000      -0.304111        -8.2753 
  11   2.0000      -0.303213        -8.2508 
  12   2.0000      -0.295375        -8.0376 
  13   0.0000       0.100949         2.7470 
  14   0.0000       0.130506         3.5513 
  15   0.0000       0.138709         3.7745 
  16   0.0000       0.156497         4.2585 
  17   0.0000       0.160623         4.3708 
  18   0.0000       0.173930         4.7329 
  19   0.0000       0.192692         5.2434 
  20   0.0000       0.200359         5.4521 
  21   0.0000       0.225126         6.1260 
  22   0.0000       0.231460         6.2983 
  23   0.0000       0.237340         6.4583 
*Only the first 10 virtual orbitals were printed.

                    ********************************
                    * MULLIKEN POPULATION ANALYSIS *
                    ********************************

-----------------------
MULLIKEN ATOMIC CHARGES
-----------------------
   0 C :   -0.440013
   1 C :   -0.212161
   2 C :   -0.440014
   3 H :    0.136626
   4 H :    0.136636
   5 H :    0.142440
   6 H :    0.130389
   7 H :    0.130392
   8 H :    0.136634
   9 H :    0.142438
  10 H :    0.136633
Sum of atomic charges:    0.0000000

--------------------------------
MULLIKEN REDUCED ORBITAL CHARGES
--------------------------------
  0 C s       :     3.296605  s :     3.296605
      pz      :     1.074006  p :     3.116324
      px      :     1.002968
      py      :     1.039350
      dz2     :     0.004828  d :     0.027085
      dxz     :     0.001776
      dyz     :     0.008238
      dx2y2   :     0.004650
      dxy     :     0.007593

  1 C s       :     3.191447  s :     3.191447
      pz      :     1.094270  p :     2.983414
      px      :     0.902629
      py      :     0.986515
      dz2     :     0.005572  d :     0.037301
      dxz     :     0.003843
      dyz     :     0.010385
      dx2y2   :     0.007594
      dxy     :     0.009907

  2 C s       :     3.296585  s :     3.296585
      pz      :     1.074016  p :     3.116344
      px      :     1.002971
      py      :     1.039356
      dz2     :     0.004827  d :     0.027085
      dxz     :     0.001776
      dyz     :     0.008238
      dx2y2   :     0.004651
      dxy     :     0.007593

  3 H s       :     0.845093  s :     0.845093
      pz      :     0.008387  p :     0.018281
      px      :     0.003598
      py      :     0.006296

  4 H s       :     0.845083  s :     0.845083
      pz      :     0.008389  p :     0.018280
      px      :     0.003598
      py      :     0.006293

  5 H s       :     0.839233  s :     0.839233
      pz      :     0.003754  p :     0.018327
      px      :     0.008645
      py      :     0.005928

  6 H s       :     0.851731  s :     0.851731
      pz      :     0.008295  p :     0.017880
      px      :     0.003430
      py      :     0.006156

  7 H s       :     0.851729  s :     0.851729
      pz      :     0.008294  p :     0.017880
      px      :     0.003429
      py      :     0.006156

  8 H s       :     0.845084  s :     0.845084
      pz      :     0.008389  p :     0.018282
      px      :     0.003598
      py      :     0.006295

  9 H s       :     0.839235  s :     0.839235
      pz      :     0.003754  p :     0.018327
      px      :     0.008645
      py      :     0.005928

 10 H s       :     0.845085  s :     0.845085
      pz      :     0.008388  p :     0.018282
      px      :     0.003598
      py      :     0.006296


------------------------
MULLIKEN OVERLAP CHARGES
------------------------
B(  0-C ,  1-C ) :   0.5356 B(  0-C ,  2-C ) :  -0.2232 B(  0-C ,  3-H ) :   0.8400 
B(  0-C ,  4-H ) :   0.8399 B(  0-C ,  5-H ) :   0.7972 B(  0-C ,  6-H ) :  -0.0722 
B(  0-C ,  7-H ) :  -0.0722 B(  1-C ,  2-C ) :   0.5356 B(  1-C ,  3-H ) :  -0.0893 
B(  1-C ,  4-H ) :  -0.0893 B(  1-C ,  5-H ) :  -0.0678 B(  1-C ,  6-H ) :   0.8335 
B(  1-C ,  7-H ) :   0.8335 B(  1-C ,  8-H ) :  -0.0893 B(  1-C ,  9-H ) :  -0.0678 
B(  1-C , 10-H ) :  -0.0893 B(  2-C ,  6-H ) :  -0.0722 B(  2-C ,  7-H ) :  -0.0722 
B(  2-C ,  8-H ) :   0.8400 B(  2-C ,  9-H ) :   0.7972 B(  2-C , 10-H ) :   0.8400 
B(  3-H ,  4-H ) :  -0.0526 B(  6-H ,  7-H ) :  -0.0500 B(  8-H , 10-H ) :  -0.0526 



                     *******************************
                     * LOEWDIN POPULATION ANALYSIS *
                     *******************************

----------------------
LOEWDIN ATOMIC CHARGES
----------------------
   0 C :   -0.429719
   1 C :   -0.327525
   2 C :   -0.429715
   3 H :    0.148383
   4 H :    0.148384
   5 H :    0.149570
   6 H :    0.147145
   7 H :    0.147147
   8 H :    0.148379
   9 H :    0.149570
  10 H :    0.148381

-------------------------------
LOEWDIN REDUCED ORBITAL CHARGES
-------------------------------
  0 C s       :     2.976412  s :     2.976412
      pz      :     1.156237  p :     3.389818
      px      :     1.101423
      py      :     1.132159
      dz2     :     0.012255  d :     0.063489
      dxz     :     0.002927
      dyz     :     0.020346
      dx2y2   :     0.009674
      dxy     :     0.018286

  1 C s       :     2.943136  s :     2.943136
      pz      :     1.145067  p :     3.303779
      px      :     1.055593
      py      :     1.103120
      dz2     :     0.013344  d :     0.080609
      dxz     :     0.006254
      dyz     :     0.024221
      dx2y2   :     0.014820
      dxy     :     0.021971

  2 C s       :     2.976396  s :     2.976396
      pz      :     1.156247  p :     3.389829
      px      :     1.101421
      py      :     1.132161
      dz2     :     0.012254  d :     0.063490
      dxz     :     0.002927
      dyz     :     0.020348
      dx2y2   :     0.009674
      dxy     :     0.018287

  3 H s       :     0.808350  s :     0.808350
      pz      :     0.020507  p :     0.043267
      px      :     0.008006
      py      :     0.014754

  4 H s       :     0.808349  s :     0.808349
      pz      :     0.020514  p :     0.043267
      px      :     0.008006
      py      :     0.014747

  5 H s       :     0.807109  s :     0.807109
      pz      :     0.008052  p :     0.043321
      px      :     0.020994
      py      :     0.014275

  6 H s       :     0.810104  s :     0.810104
      pz      :     0.020208  p :     0.042750
      px      :     0.007979
      py      :     0.014563

  7 H s       :     0.810103  s :     0.810103
      pz      :     0.020207  p :     0.042750
      px      :     0.007979
      py      :     0.014564

  8 H s       :     0.808349  s :     0.808349
      pz      :     0.020514  p :     0.043272
      px      :     0.008008
      py      :     0.014750

  9 H s       :     0.807108  s :     0.807108
      pz      :     0.008053  p :     0.043321
      px      :     0.020994
      py      :     0.014275

 10 H s       :     0.808349  s :     0.808349
      pz      :     0.020509  p :     0.043270
      px      :     0.008007
      py      :     0.014754


---------------------------------
LOEWDIN BOND ORDERS (THRESH 0.050000)
---------------------------------
B(  0-C ,  1-C ) :   1.1499 B(  0-C ,  2-C ) :   0.0703 B(  0-C ,  3-H ) :   0.9318 
B(  0-C ,  4-H ) :   0.9318 B(  0-C ,  5-H ) :   0.9325 B(  1-C ,  2-C ) :   1.1498 
B(  1-C ,  6-H ) :   0.9028 B(  1-C ,  7-H ) :   0.9028 B(  2-C ,  8-H ) :   0.9318 
B(  2-C ,  9-H ) :   0.9325 B(  2-C , 10-H ) :   0.9318 

------------------------------------------
LOEWDIN REDUCED ORBITAL POPULATIONS PER MO
-------------------------------------------
THRESHOLD FOR PRINTING IS 0.1%%
                      0         1         2         3         4         5   
                 -10.02297 -10.01320 -10.01319  -0.74689  -0.64566  -0.54860
                   2.00000   2.00000   2.00000   2.00000   2.00000   2.00000
                  --------  --------  --------  --------  --------  --------
 0 C  s               0.0      80.0      19.7      17.7      23.2       6.8
 0 C  px              0.1       0.0       0.0       2.7       1.0       4.0
 0 C  py              0.0       0.0       0.0       0.8       0.0       5.7
 0 C  dxy             0.0       0.0       0.0       0.1       0.0       0.2
 1 C  s              99.7       0.0       0.0      30.0       0.0      16.3
 1 C  px              0.0       0.1       0.0       0.0      15.2       0.0
 1 C  py              0.0       0.0       0.0       1.8       0.0       9.8
 1 C  dz2             0.0       0.0       0.0       0.1       0.0       0.1
 1 C  dxy             0.0       0.0       0.0       0.0       0.4       0.0
 2 C  s               0.0      19.7      80.1      17.7      23.2       6.8
 2 C  px              0.1       0.0       0.0       2.7       1.0       4.0
 2 C  py              0.0       0.0       0.0       0.8       0.0       5.7
 2 C  dxy             0.0       0.0       0.0       0.1       0.0       0.2
 3 H  s               0.0       0.0       0.0       2.5       5.3       4.0
 3 H  pz              0.0       0.0       0.0       0.1       0.3       0.2
 3 H  py              0.0       0.0       0.0       0.1       0.2       0.0
 4 H  s               0.0       0.0       0.0       2.5       5.3       4.0
 4 H  pz              0.0       0.0       0.0       0.1       0.3       0.2
 4 H  py              0.0       0.0       0.0       0.1       0.2       0.0
 5 H  s               0.0       0.0       0.0       2.5       6.0       2.6
 5 H  px              0.0       0.0       0.0       0.1       0.3       0.1
 5 H  py              0.0       0.0       0.0       0.1       0.2       0.1
 6 H  s               0.0       0.0       0.0       4.2       0.0       8.3
 6 H  pz              0.0       0.0       0.0       0.2       0.0       0.5
 6 H  py              0.0       0.0       0.0       0.1       0.0       0.1
 7 H  s               0.0       0.0       0.0       4.2       0.0       8.3
 7 H  pz              0.0       0.0       0.0       0.2       0.0       0.5
 7 H  py              0.0       0.0       0.0       0.1       0.0       0.1
 8 H  s               0.0       0.0       0.0       2.5       5.3       4.0
 8 H  pz              0.0       0.0       0.0       0.1       0.3       0.2
 8 H  py              0.0       0.0       0.0       0.1       0.2       0.0
 9 H  s               0.0       0.0       0.0       2.5       6.0       2.6
 9 H  px              0.0       0.0       0.0       0.1       0.3       0.1
 9 H  py              0.0       0.0       0.0       0.1       0.2       0.1
10 H  s               0.0       0.0       0.0       2.5       5.3       4.0
10 H  pz              0.0       0.0       0.0       0.1       0.3       0.2
10 H  py              0.0       0.0       0.0       0.1       0.2       0.0

                      6         7         8         9        10        11   
                  -0.42616  -0.40414  -0.36599  -0.34841  -0.30411  -0.30321
                   2.00000   2.00000   2.00000   2.00000   2.00000   2.00000
                  --------  --------  --------  --------  --------  --------
 0 C  s               0.0       0.3       0.1       0.0       0.6       0.5
 0 C  pz             18.3       0.0       0.0      29.4       0.0       0.0
 0 C  px              0.0      20.6       0.0       0.0       1.1      25.6
 0 C  py              0.0       5.9      27.3       0.0      16.9       0.1
 0 C  dz2             0.0       0.0       0.3       0.0       0.2       0.0
 0 C  dyz             0.0       0.0       0.0       0.4       0.0       0.0
 0 C  dx2y2           0.0       0.0       0.0       0.0       0.3       0.1
 0 C  dxy             0.0       0.2       0.0       0.0       0.0       0.5
 1 C  s               0.0       0.5       0.0       0.0       0.6       0.0
 1 C  pz             32.3       0.0       0.0       0.0       0.0       0.0
 1 C  px              0.0       0.0      15.2       0.0       0.0      22.2
 1 C  py              0.0      17.0       0.0       0.0      26.5       0.0
 1 C  dz2             0.0       0.1       0.0       0.0       0.4       0.0
 1 C  dxz             0.0       0.0       0.0       0.3       0.0       0.0
 1 C  dx2y2           0.0       0.1       0.0       0.0       0.6       0.0
 1 C  dxy             0.0       0.0       0.0       0.0       0.0       0.7
 2 C  s               0.0       0.3       0.1       0.0       0.6       0.5
 2 C  pz             18.3       0.0       0.0      29.4       0.0       0.0
 2 C  px              0.0      20.6       0.0       0.0       1.1      25.5
 2 C  py              0.0       5.9      27.3       0.0      16.9       0.1
 2 C  dz2             0.0       0.0       0.3       0.0       0.2       0.0
 2 C  dyz             0.0       0.0       0.0       0.4       0.0       0.0
 2 C  dx2y2           0.0       0.0       0.0       0.0       0.3       0.1
 2 C  dxy             0.0       0.2       0.0       0.0       0.0       0.5
 3 H  s               4.0       0.2       5.0       9.7       3.4       0.1
 3 H  pz              0.0       0.0       0.2       0.0       0.1       0.0
 3 H  px              0.0       0.1       0.0       0.0       0.0       0.2
 3 H  py              0.1       0.0       0.0       0.2       0.1       0.0
 4 H  s               4.0       0.2       5.0       9.7       3.4       0.1
 4 H  pz              0.0       0.0       0.2       0.0       0.1       0.0
 4 H  px              0.0       0.1       0.0       0.0       0.0       0.2
 4 H  py              0.1       0.0       0.0       0.2       0.1       0.0
 5 H  s               0.0      11.7       3.9       0.0       2.9      10.7
 5 H  pz              0.1       0.0       0.0       0.2       0.0       0.0
 5 H  px              0.0       0.2       0.2       0.0       0.1       0.0
 5 H  py              0.0       0.1       0.0       0.0       0.0       0.2
 6 H  s               6.7       1.3       0.0       0.0       6.5       0.0
 6 H  pz              0.0       0.1       0.0       0.0       0.2       0.0
 6 H  px              0.0       0.0       0.2       0.0       0.0       0.2
 6 H  py              0.2       0.0       0.0       0.0       0.1       0.0
 7 H  s               6.7       1.3       0.0       0.0       6.5       0.0
 7 H  pz              0.0       0.1       0.0       0.0       0.2       0.0
 7 H  px              0.0       0.0       0.2       0.0       0.0       0.2
 7 H  py              0.2       0.0       0.0       0.0       0.1       0.0
 8 H  s               4.0       0.2       5.0       9.7       3.4       0.1
 8 H  pz              0.0       0.0       0.2       0.0       0.1       0.0
 8 H  px              0.0       0.1       0.0       0.0       0.0       0.2
 8 H  py              0.1       0.0       0.0       0.2       0.1       0.0
 9 H  s               0.0      11.7       3.9       0.0       2.9      10.7
 9 H  pz              0.1       0.0       0.0       0.2       0.0       0.0
 9 H  px              0.0       0.2       0.2       0.0       0.1       0.0
 9 H  py              0.0       0.1       0.0       0.0       0.0       0.2
10 H  s               4.0       0.2       5.0       9.7       3.4       0.1
10 H  pz              0.0       0.0       0.2       0.0       0.1       0.0
10 H  px              0.0       0.1       0.0       0.0       0.0       0.2
10 H  py              0.1       0.0       0.0       0.2       0.1       0.0

                     12        13        14        15        16        17   
                  -0.29537   0.10095   0.13051   0.13871   0.15650   0.16062
                   2.00000   0.00000   0.00000   0.00000   0.00000   0.00000
                  --------  --------  --------  --------  --------  --------
 0 C  s               0.0      16.3      17.2       9.1       0.5       0.0
 0 C  pz             10.1       0.0       0.0       0.0       0.0      18.8
 0 C  px              0.0       3.6      11.2      14.5       2.3       0.0
 0 C  py              0.0       0.9       0.4       5.3      12.2       0.0
 0 C  dz2             0.0       0.1       0.0       0.1       2.4       0.0
 0 C  dxz             0.1       0.0       0.0       0.0       0.0       0.4
 0 C  dyz             0.6       0.0       0.0       0.0       0.0       0.8
 0 C  dx2y2           0.0       0.0       0.1       0.3       0.2       0.0
 0 C  dxy             0.0       1.1       0.3       0.7       0.4       0.0
 1 C  s               0.0      19.2       0.0      10.9       3.6       0.0
 1 C  pz             24.9       0.0       0.0       0.0       0.0      19.7
 1 C  px              0.0       0.0      20.0       0.0       0.0       0.0
 1 C  py              0.0       3.0       0.0      16.5      13.9       0.0
 1 C  dz2             0.0       0.1       0.0       0.9       1.2       0.0
 1 C  dyz             1.2       0.0       0.0       0.0       0.0       3.2
 1 C  dx2y2           0.0       0.1       0.0       0.0       0.5       0.0
 1 C  dxy             0.0       0.0       1.9       0.0       0.0       0.0
 2 C  s               0.0      16.3      17.2       9.1       0.5       0.0
 2 C  pz             10.1       0.0       0.0       0.0       0.0      18.7
 2 C  px              0.0       3.6      11.2      14.5       2.3       0.0
 2 C  py              0.0       0.9       0.4       5.3      12.2       0.0
 2 C  dz2             0.0       0.1       0.0       0.1       2.4       0.0
 2 C  dxz             0.1       0.0       0.0       0.0       0.0       0.4
 2 C  dyz             0.6       0.0       0.0       0.0       0.0       0.8
 2 C  dx2y2           0.0       0.0       0.1       0.3       0.2       0.0
 2 C  dxy             0.0       1.1       0.3       0.7       0.4       0.0
 3 H  s               6.1       2.2       1.8       0.9       2.2       2.6
 3 H  pz              0.0       0.9       0.8       0.4       1.0       0.6
 3 H  px              0.0       0.4       0.1       0.2       0.1       0.0
 3 H  py              0.0       0.2       0.5       0.2       0.3       0.7
 4 H  s               6.2       2.2       1.8       0.9       2.2       2.6
 4 H  pz              0.0       0.9       0.8       0.4       1.0       0.6
 4 H  px              0.0       0.4       0.1       0.2       0.1       0.0
 4 H  py              0.0       0.2       0.5       0.2       0.3       0.7
 5 H  s               0.0       4.0       1.3       0.2      10.7       0.0
 5 H  px              0.0       0.3       0.6       0.9       1.0       0.0
 5 H  py              0.0       1.4       0.4       0.1       0.3       0.0
 6 H  s              13.5       2.2       0.0       0.2       1.5       8.1
 6 H  pz              0.0       1.4       0.0       0.0       1.3       1.0
 6 H  px              0.0       0.0       1.0       0.0       0.0       0.0
 6 H  py              0.1       0.3       0.0       1.1       0.2       1.6
 7 H  s              13.5       2.2       0.0       0.2       1.6       8.1
 7 H  pz              0.0       1.4       0.0       0.0       1.3       1.0
 7 H  px              0.0       0.0       1.0       0.0       0.0       0.0
 7 H  py              0.1       0.3       0.0       1.1       0.2       1.6
 8 H  s               6.1       2.2       1.8       0.9       2.2       2.6
 8 H  pz              0.0       0.9       0.8       0.4       1.0       0.6
 8 H  px              0.0       0.4       0.1       0.2       0.1       0.0
 8 H  py              0.0       0.2       0.5       0.2       0.3       0.7
 9 H  s               0.0       4.0       1.3       0.2      10.7       0.0
 9 H  px              0.0       0.3       0.6       0.9       1.0       0.0
 9 H  py              0.0       1.4       0.4       0.1       0.3       0.0
10 H  s               6.1       2.2       1.8       0.9       2.2       2.6
10 H  pz              0.0       0.9       0.8       0.4       1.0       0.6
10 H  px              0.0       0.4       0.1       0.2       0.1       0.0
10 H  py              0.0       0.2       0.5       0.2       0.3       0.7

                     18        19        20        21        22        23   
                   0.17393   0.19269   0.20036   0.22513   0.23146   0.23734
                   0.00000   0.00000   0.00000   0.00000   0.00000   0.00000
                  --------  --------  --------  --------  --------  --------
 0 C  s               0.3       0.0       0.6       0.0       0.5       1.3
 0 C  pz              0.0      20.0       0.0      12.7       0.0       0.0
 0 C  px              6.7       0.0       7.6       0.0      19.2       5.0
 0 C  py             14.4       0.0      23.1       0.0       5.1       6.6
 0 C  dz2             0.2       0.0       0.4       0.0       1.3       0.0
 0 C  dxz             0.0       0.0       0.0       0.5       0.0       0.0
 0 C  dyz             0.0       3.8       0.0       2.1       0.0       0.0
 0 C  dx2y2           0.9       0.0       0.0       0.0       0.6       0.1
 0 C  dxy             0.0       0.0       1.7       0.0       0.0       1.1
 1 C  s               4.2       0.0       0.0       0.0       0.0       4.6
 1 C  pz              0.0       0.0       0.0      11.5       0.0       0.0
 1 C  px              0.0       0.0      12.3       0.0       9.3       0.0
 1 C  py             16.0       0.0       0.0       0.0       0.0      39.6
 1 C  dz2             1.1       0.0       0.0       0.0       0.0       1.1
 1 C  dxz             0.0       1.5       0.0       0.0       0.0       0.0
 1 C  dx2y2           1.5       0.0       0.0       0.0       0.0       0.7
 1 C  dxy             0.0       0.0       0.5       0.0       1.6       0.0
 2 C  s               0.3       0.0       0.6       0.0       0.5       1.3
 2 C  pz              0.0      20.0       0.0      12.7       0.0       0.0
 2 C  px              6.7       0.0       7.6       0.0      19.2       5.0
 2 C  py             14.4       0.0      23.1       0.0       5.1       6.6
 2 C  dz2             0.2       0.0       0.4       0.0       1.3       0.0
 2 C  dxz             0.0       0.0       0.0       0.5       0.0       0.0
 2 C  dyz             0.0       3.8       0.0       2.1       0.0       0.0
 2 C  dx2y2           0.9       0.0       0.0       0.0       0.6       0.1
 2 C  dxy             0.0       0.0       1.7       0.0       0.0       1.1
 3 H  s               2.0       9.9       0.5       9.7       3.3       0.5
 3 H  pz              0.7       0.2       0.1       0.3       1.1       0.0
 3 H  px              0.1       0.0       0.6       0.1       0.0       0.4
 3 H  py              0.2       1.3       0.1       1.6       0.0       0.0
 4 H  s               2.0       9.9       0.5       9.7       3.3       0.5
 4 H  pz              0.7       0.2       0.1       0.3       1.1       0.0
 4 H  px              0.1       0.0       0.6       0.1       0.0       0.4
 4 H  py              0.2       1.3       0.1       1.6       0.0       0.0
 5 H  s               0.3       0.0       4.9       0.0       6.1       6.7
 5 H  pz              0.0       1.7       0.0       2.2       0.0       0.0
 5 H  px              1.0       0.0       1.0       0.0       2.5       1.4
 5 H  py              0.1       0.0       1.8       0.0       0.0       0.3
 6 H  s               6.3       0.0       0.0       2.5       0.0       1.9
 6 H  pz              2.2       0.0       0.0       0.4       0.0       0.0
 6 H  px              0.0       0.8       0.1       0.0       0.3       0.0
 6 H  py              0.1       0.0       0.0       0.3       0.0       0.6
 7 H  s               6.3       0.0       0.0       2.5       0.0       1.9
 7 H  pz              2.2       0.0       0.0       0.4       0.0       0.0
 7 H  px              0.0       0.8       0.1       0.0       0.3       0.0
 7 H  py              0.1       0.0       0.0       0.3       0.0       0.6
 8 H  s               2.0       9.9       0.5       9.7       3.3       0.5
 8 H  pz              0.7       0.2       0.1       0.3       1.1       0.0
 8 H  px              0.1       0.0       0.6       0.1       0.0       0.4
 8 H  py              0.2       1.3       0.1       1.6       0.0       0.0
 9 H  s               0.3       0.0       4.9       0.0       6.1       6.7
 9 H  pz              0.0       1.7       0.0       2.2       0.0       0.0
 9 H  px              1.0       0.0       1.0       0.0       2.5       1.4
 9 H  py              0.1       0.0       1.8       0.0       0.0       0.3
10 H  s               2.0       9.9       0.5       9.7       3.3       0.5
10 H  pz              0.7       0.2       0.1       0.3       1.1       0.0
10 H  px              0.1       0.0       0.6       0.1       0.0       0.4
10 H  py              0.2       1.3       0.1       1.6       0.0       0.0

                     24        25        26        27        28        29   
                   0.24196   0.24565   0.25469   0.26913   0.28595   0.31501
                   0.00000   0.00000   0.00000   0.00000   0.00000   0.00000
                  --------  --------  --------  --------  --------  --------
 0 C  s               4.9       0.0       0.0       0.5       0.0       1.9
 0 C  pz              0.0      37.5      23.8       0.0       3.0       0.0
 0 C  px              3.0       0.0       0.0      12.1       0.0      11.4
 0 C  py             11.5       0.0       0.0      14.1       0.0      14.9
 0 C  dz2             1.0       0.0       0.0       0.4       0.0       0.3
 0 C  dxz             0.0       0.1       0.3       0.0       1.1       0.0
 0 C  dyz             0.0       0.3       0.5       0.0       0.0       0.0
 0 C  dx2y2           0.0       0.0       0.0       0.5       0.0       0.2
 0 C  dxy             0.0       0.0       0.0       0.0       0.0       1.7
 1 C  s               0.0       0.0       0.0       1.3       0.0       0.0
 1 C  pz              0.0       0.0       9.1       0.0      73.1       0.0
 1 C  px             31.6       0.0       0.0       0.0       0.0       3.3
 1 C  py              0.0       0.0       0.0       7.0       0.0       0.0
 1 C  dz2             0.0       0.0       0.0       1.7       0.0       0.0
 1 C  dxz             0.0       0.5       0.0       0.0       0.0       0.0
 1 C  dyz             0.0       0.0       2.5       0.0       2.6       0.0
 1 C  dx2y2           0.0       0.0       0.0       0.2       0.0       0.0
 1 C  dxy             3.0       0.0       0.0       0.0       0.0       0.0
 2 C  s               4.9       0.0       0.0       0.5       0.0       1.9
 2 C  pz              0.0      37.5      23.8       0.0       3.0       0.0
 2 C  px              3.0       0.0       0.0      12.1       0.0      11.4
 2 C  py             11.5       0.0       0.0      14.1       0.0      14.9
 2 C  dz2             1.0       0.0       0.0       0.4       0.0       0.3
 2 C  dxz             0.0       0.1       0.3       0.0       1.1       0.0
 2 C  dyz             0.0       0.3       0.5       0.0       0.0       0.0
 2 C  dx2y2           0.0       0.0       0.0       0.5       0.0       0.2
 2 C  dxy             0.0       0.0       0.0       0.0       0.0       1.7
 3 H  s               3.4       3.7       1.7       1.3       0.0       0.4
 3 H  pz              1.7       1.2       0.3       0.1       0.0       0.0
 3 H  px              0.0       0.1       0.0       0.0       1.1       0.6
 3 H  py              0.0       0.9       0.0       0.0       0.0       1.4
 4 H  s               3.5       3.6       1.7       1.3       0.0       0.4
 4 H  pz              1.7       1.2       0.3       0.1       0.0       0.0
 4 H  px              0.0       0.1       0.0       0.0       1.1       0.6
 4 H  py              0.0       0.9       0.0       0.0       0.0       1.4
 5 H  s               0.4       0.0       0.0       2.8       0.0      10.7
 5 H  pz              0.0       0.0       0.0       0.0       1.0       0.0
 5 H  px              0.1       0.0       0.0       0.2       0.0       0.3
 5 H  py              0.1       0.0       0.0       1.0       0.0       1.8
 6 H  s               0.0       0.0      11.9       7.7       4.2       0.0
 6 H  pz              0.0       0.0       0.8       2.5       0.4       0.0
 6 H  px              1.4       0.1       0.0       0.0       0.0       0.1
 6 H  py              0.0       0.0       2.7       0.1       0.2       0.0
 7 H  s               0.0       0.0      11.9       7.7       4.2       0.0
 7 H  pz              0.0       0.0       0.8       2.5       0.4       0.0
 7 H  px              1.4       0.1       0.0       0.0       0.0       0.1
 7 H  py              0.0       0.0       2.7       0.1       0.2       0.0
 8 H  s               3.5       3.6       1.7       1.3       0.0       0.4
 8 H  pz              1.7       1.2       0.3       0.1       0.0       0.0
 8 H  px              0.0       0.1       0.0       0.0       1.1       0.6
 8 H  py              0.0       0.9       0.0       0.0       0.0       1.4
 9 H  s               0.4       0.0       0.0       2.8       0.0      10.7
 9 H  pz              0.0       0.0       0.0       0.0       1.0       0.0
 9 H  px              0.1       0.0       0.0       0.2       0.0       0.3
 9 H  py              0.1       0.0       0.0       1.0       0.0       1.8
10 H  s               3.4       3.7       1.7       1.3       0.0       0.4
10 H  pz              1.6       1.2       0.3       0.1       0.0       0.0
10 H  px              0.0       0.1       0.0       0.0       1.1       0.6
10 H  py              0.0       0.9       0.0       0.0       0.0       1.4

                     30        31        32        33        34        35   
                   0.40529   0.44044   0.46987   0.51971   0.52168   0.98911
                   0.00000   0.00000   0.00000   0.00000   0.00000   0.00000
                  --------  --------  --------  --------  --------  --------
 0 C  s              10.7       4.0      16.9       2.0      30.4       0.0
 0 C  pz              0.0       0.0       0.0       0.0       0.0       5.6
 0 C  px              8.1       3.1       7.8       2.6       6.4       0.0
 0 C  py              2.0       3.5       3.2       1.0       3.1       0.0
 0 C  dz2             0.1       0.2       0.2       0.1       0.4       0.0
 0 C  dxz             0.0       0.0       0.0       0.0       0.0       0.6
 0 C  dyz             0.0       0.0       0.0       0.0       0.0       6.6
 0 C  dx2y2           0.5       0.0       0.0       0.0       0.0       0.0
 0 C  dxy             0.6       0.7       0.8       0.0       0.0       0.0
 1 C  s              10.7       0.0      19.6      47.5       0.0       0.0
 1 C  pz              0.0       0.0       0.0       0.0       0.0       5.4
 1 C  px              0.0      51.0       0.0       0.0       2.8       0.0
 1 C  py             17.3       0.0       6.2       5.7       0.0       0.0
 1 C  dz2             0.7       0.0       0.5       0.0       0.0       0.0
 1 C  dyz             0.0       0.0       0.0       0.0       0.0       1.5
 1 C  dx2y2           0.6       0.0       0.0       0.0       0.0       0.0
 1 C  dxy             0.0       2.2       0.0       0.0       0.5       0.0
 2 C  s              10.7       4.0      16.9       2.0      30.4       0.0
 2 C  pz              0.0       0.0       0.0       0.0       0.0       5.6
 2 C  px              8.1       3.1       7.8       2.6       6.4       0.0
 2 C  py              2.0       3.5       3.2       1.0       3.1       0.0
 2 C  dz2             0.1       0.2       0.2       0.1       0.4       0.0
 2 C  dxz             0.0       0.0       0.0       0.0       0.0       0.6
 2 C  dyz             0.0       0.0       0.0       0.0       0.0       6.6
 2 C  dx2y2           0.5       0.0       0.0       0.0       0.0       0.0
 2 C  dxy             0.6       0.7       0.8       0.0       0.0       0.0
 3 H  s               3.1       2.5       0.7       2.1       2.3      15.7
 3 H  pz              0.7       0.4       0.4       0.3       1.3       0.0
 3 H  px              0.1       0.1       0.3       0.3       0.2       0.1
 3 H  py              0.3       0.2       0.0       0.3       0.0       0.0
 4 H  s               3.1       2.5       0.7       2.1       2.3      15.7
 4 H  pz              0.7       0.4       0.4       0.3       1.3       0.0
 4 H  px              0.1       0.1       0.3       0.3       0.2       0.1
 4 H  py              0.3       0.2       0.0       0.3       0.0       0.0
 5 H  s               1.8       3.8       2.6       1.0       0.0       0.0
 5 H  px              0.5       1.7       1.1       0.1       0.1       0.0
 5 H  py              0.0       0.0       0.3       0.2       0.0       0.0
 6 H  s               2.1       0.0       0.6       7.3       0.0       1.0
 6 H  pz              0.3       0.0       0.0       1.8       0.0       0.3
 6 H  px              0.0       0.1       0.0       0.0       0.3       0.0
 6 H  py              0.1       0.0       0.2       1.2       0.0       0.9
 7 H  s               2.1       0.0       0.6       7.3       0.0       1.0
 7 H  pz              0.3       0.0       0.0       1.8       0.0       0.3
 7 H  px              0.0       0.1       0.0       0.0       0.3       0.0
 7 H  py              0.1       0.0       0.2       1.2       0.0       0.9
 8 H  s               3.1       2.5       0.7       2.1       2.3      15.7
 8 H  pz              0.7       0.4       0.4       0.3       1.3       0.0
 8 H  px              0.1       0.1       0.3       0.3       0.2       0.1
 8 H  py              0.3       0.2       0.0       0.3       0.0       0.0
 9 H  s               1.8       3.8       2.6       1.0       0.0       0.0
 9 H  px              0.5       1.7       1.1       0.1       0.1       0.0
 9 H  py              0.0       0.0       0.3       0.2       0.0       0.0
10 H  s               3.1       2.5       0.7       2.1       2.3      15.7
10 H  pz              0.7       0.4       0.4       0.3       1.3       0.0
10 H  px              0.1       0.1       0.3       0.3       0.2       0.1
10 H  py              0.3       0.2       0.0       0.3       0.0       0.0

                     36        37        38        39        40        41   
                   1.04162   1.04617   1.04731   1.06684   1.07603   1.10698
                   0.00000   0.00000   0.00000   0.00000   0.00000   0.00000
                  --------  --------  --------  --------  --------  --------
 0 C  s               1.8       0.0       0.0       0.8       2.0      19.4
 0 C  pz              0.0       2.1       5.4       0.0       0.0       0.0
 0 C  px              2.2       0.0       0.0       1.8       3.3       0.4
 0 C  py              2.2       0.0       0.0       4.0       2.9       0.3
 0 C  dz2             1.4       0.0       0.0       3.1       0.8       0.0
 0 C  dxz             0.0       0.0       0.1       0.0       0.0       0.0
 0 C  dyz             0.0       0.2       8.4       0.0       0.0       0.0
 0 C  dx2y2           3.7       0.0       0.0       4.7       0.2       0.1
 0 C  dxy             2.5       0.0       0.0       1.5       0.8       3.3
 1 C  s               0.9       0.0       0.0       0.0      19.7       3.1
 1 C  pz              0.0      16.5       0.0       0.0       0.0       0.0
 1 C  px              0.0       0.0       0.0       3.1       0.0       0.0
 1 C  py              1.7       0.0       0.0       0.0       3.9       0.4
 1 C  dz2             0.0       0.0       0.0       0.0       3.9       0.1
 1 C  dxz             0.0       0.0       1.4       0.0       0.0       0.0
 1 C  dyz             0.0      11.3       0.0       0.0       0.0       0.0
 1 C  dx2y2           6.4       0.0       0.0       0.0       5.7       0.2
 1 C  dxy             0.0       0.0       0.0       0.8       0.0       0.0
 2 C  s               1.8       0.0       0.0       0.8       2.0      19.3
 2 C  pz              0.0       2.0       5.4       0.0       0.0       0.0
 2 C  px              2.2       0.0       0.0       1.8       3.3       0.4
 2 C  py              2.2       0.0       0.0       4.0       2.9       0.3
 2 C  dz2             1.4       0.0       0.0       3.1       0.8       0.0
 2 C  dxz             0.0       0.0       0.1       0.0       0.0       0.0
 2 C  dyz             0.0       0.2       8.4       0.0       0.0       0.0
 2 C  dx2y2           3.6       0.0       0.0       4.7       0.2       0.1
 2 C  dxy             2.5       0.0       0.0       1.5       0.8       3.3
 3 H  s               6.8       0.1      17.4       5.2       0.8       4.1
 3 H  pz              0.0       0.1       0.2       0.2       0.1       0.1
 3 H  px              0.0       0.7       0.0       0.0       0.0       0.0
 3 H  py              0.1       0.4       0.0       0.0       0.0       0.1
 4 H  s               6.8       0.1      17.4       5.2       0.8       4.1
 4 H  pz              0.0       0.1       0.2       0.2       0.1       0.1
 4 H  px              0.0       0.7       0.0       0.0       0.0       0.0
 4 H  py              0.1       0.4       0.0       0.0       0.0       0.1
 5 H  s              14.3       0.0       0.0      20.8       0.5      13.9
 5 H  pz              0.0       0.1       0.0       0.0       0.0       0.0
 5 H  px              0.1       0.0       0.0       0.1       0.9       0.2
 5 H  py              0.1       0.0       0.0       0.5       0.0       0.1
 6 H  s               2.9      31.1       0.0       0.0      20.0       1.6
 6 H  pz              0.4       0.0       0.0       0.0       0.0       0.1
 6 H  px              0.0       0.0       0.2       0.1       0.0       0.0
 6 H  py              0.1       0.0       0.0       0.0       0.0       0.0
 7 H  s               2.7      31.2       0.0       0.0      20.1       1.6
 7 H  pz              0.4       0.0       0.0       0.0       0.0       0.1
 7 H  px              0.0       0.0       0.2       0.1       0.0       0.0
 7 H  py              0.1       0.0       0.0       0.0       0.0       0.0
 8 H  s               6.8       0.1      17.4       5.2       0.8       4.1
 8 H  pz              0.0       0.1       0.2       0.2       0.1       0.1
 8 H  px              0.0       0.7       0.0       0.0       0.0       0.0
 8 H  py              0.1       0.4       0.0       0.0       0.0       0.1
 9 H  s              14.3       0.0       0.0      20.8       0.5      13.9
 9 H  pz              0.0       0.1       0.0       0.0       0.0       0.0
 9 H  px              0.1       0.0       0.0       0.1       0.9       0.2
 9 H  py              0.1       0.0       0.0       0.5       0.0       0.1
10 H  s               6.8       0.1      17.4       5.2       0.8       4.1
10 H  pz              0.0       0.1       0.2       0.2       0.1       0.1
10 H  px              0.0       0.7       0.0       0.0       0.0       0.0
10 H  py              0.1       0.4       0.0       0.0       0.0       0.2

                     42        43        44        45        46        47   
                   1.13128   1.19163   1.19546   1.28715   1.29819   1.32546
                   0.00000   0.00000   0.00000   0.00000   0.00000   0.00000
                  --------  --------  --------  --------  --------  --------
 0 C  s              15.5       0.1       0.0       8.3       0.0       7.9
 0 C  pz              0.0       0.0      10.1       0.0      22.8       0.0
 0 C  px              2.1       5.1       0.0       0.8       0.0      18.5
 0 C  py              0.6      10.0       0.0       3.4       0.0       5.1
 0 C  dz2             1.5       0.5       0.0       4.9       0.0       0.6
 0 C  dxz             0.0       0.0      11.8       0.0       1.1       0.0
 0 C  dyz             0.0       0.0       1.2       0.0       1.3       0.0
 0 C  dx2y2           0.2       6.4       0.0       0.2       0.0       1.2
 0 C  dxy             2.0       0.2       0.0       0.8       0.0       5.4
 1 C  s               0.0       6.8       0.0      13.1       0.0       0.0
 1 C  pz              0.0       0.0       0.0       0.0      35.9       0.0
 1 C  px              1.2       0.0       0.0       0.0       0.0       2.5
 1 C  py              0.0       6.0       0.0      13.2       0.0       0.0
 1 C  dz2             0.0       6.1       0.0       9.2       0.0       0.0
 1 C  dxz             0.0       0.0      28.6       0.0       0.0       0.0
 1 C  dyz             0.0       0.0       0.0       0.0       3.6       0.0
 1 C  dx2y2           0.0      11.9       0.0       0.0       0.0       0.0
 1 C  dxy             1.4       0.0       0.0       0.0       0.0       3.8
 2 C  s              15.5       0.1       0.0       8.4       0.0       7.9
 2 C  pz              0.0       0.0      10.1       0.0      22.8       0.0
 2 C  px              2.1       5.0       0.0       0.8       0.0      18.5
 2 C  py              0.6      10.0       0.0       3.4       0.0       5.1
 2 C  dz2             1.5       0.5       0.0       4.9       0.0       0.6
 2 C  dxz             0.0       0.0      11.8       0.0       1.1       0.0
 2 C  dyz             0.0       0.0       1.2       0.0       1.3       0.0
 2 C  dx2y2           0.2       6.4       0.0       0.2       0.0       1.2
 2 C  dxy             2.0       0.2       0.0       0.8       0.0       5.4
 3 H  s               7.6       0.0       0.1       2.5       0.2       0.3
 3 H  pz              0.1       0.7       0.7       0.1       1.0       0.0
 3 H  px              0.1       0.0       2.3       0.4       0.0       2.0
 3 H  py              0.2       0.2       0.1       1.3       0.0       0.3
 4 H  s               7.6       0.0       0.1       2.5       0.2       0.3
 4 H  pz              0.1       0.7       0.7       0.1       1.0       0.0
 4 H  px              0.1       0.0       2.3       0.4       0.0       2.0
 4 H  py              0.2       0.2       0.1       1.3       0.0       0.3
 5 H  s              10.2       1.7       0.0       0.6       0.0       0.8
 5 H  pz              0.0       0.0       1.2       0.0       0.5       0.0
 5 H  px              0.1       0.0       0.0       0.0       0.0       1.7
 5 H  py              0.1       3.0       0.0       0.1       0.0       0.5
 6 H  s               0.0       2.1       0.0       0.9       0.2       0.0
 6 H  pz              0.0       1.5       0.0       0.1       1.6       0.0
 6 H  px              0.4       0.0       5.1       0.0       0.0       0.0
 6 H  py              0.0       2.1       0.0       3.4       0.1       0.0
 7 H  s               0.0       2.1       0.0       0.9       0.2       0.0
 7 H  pz              0.0       1.5       0.0       0.1       1.6       0.0
 7 H  px              0.4       0.0       5.1       0.0       0.0       0.0
 7 H  py              0.0       2.1       0.0       3.4       0.1       0.0
 8 H  s               7.6       0.0       0.1       2.5       0.2       0.3
 8 H  pz              0.1       0.7       0.7       0.1       1.0       0.0
 8 H  px              0.1       0.0       2.3       0.4       0.0       2.0
 8 H  py              0.2       0.2       0.1       1.3       0.0       0.3
 9 H  s              10.2       1.7       0.0       0.6       0.0       0.8
 9 H  pz              0.0       0.0       1.2       0.0       0.5       0.0
 9 H  px              0.1       0.0       0.0       0.0       0.0       1.7
 9 H  py              0.1       3.0       0.0       0.1       0.0       0.5
10 H  s               7.6       0.0       0.1       2.5       0.2       0.3
10 H  pz              0.1       0.7       0.7       0.1       1.0       0.0
10 H  px              0.1       0.0       2.3       0.4       0.0       2.0
10 H  py              0.2       0.2       0.1       1.3       0.0       0.3

                     48        49        50        51        52        53   
                   1.34852   1.35996   1.36885   1.37179   1.38245   1.40064
                   0.00000   0.00000   0.00000   0.00000   0.00000   0.00000
                  --------  --------  --------  --------  --------  --------
 0 C  s               5.6       0.0       0.1       0.7       0.0       0.2
 0 C  pz              0.0      21.1       0.0       0.0       7.1       0.0
 0 C  px             16.2       0.0       1.5       3.8       0.0       2.1
 0 C  py              0.5       0.0      15.5      20.3       0.0       1.1
 0 C  dz2             4.3       0.0       3.8       5.7       0.0       5.0
 0 C  dxz             0.0      10.7       0.0       0.0      15.3       0.0
 0 C  dyz             0.0       3.5       0.0       0.0       3.6       0.0
 0 C  dx2y2           5.8       0.0       0.4       0.1       0.0      10.4
 0 C  dxy             2.0       0.0       0.2       0.5       0.0       0.7
 1 C  s               2.9       0.0       1.3       0.0       0.0       0.0
 1 C  pz              0.0       0.0       0.0       0.0       9.2       0.0
 1 C  px              0.0       0.0       0.0       8.8       0.0      29.3
 1 C  py              4.8       0.0      21.0       0.0       0.0       0.0
 1 C  dz2             0.5       0.0       6.5       0.0       0.0       0.0
 1 C  dyz             0.0       0.0       0.0       0.0       5.7       0.0
[...]
 4 H  py              3.5       3.3       1.9       3.2       0.0       0.5
 5 H  s               0.1       0.8       0.6       0.0       4.3       0.3
 5 H  pz              0.0       0.0       0.0       0.9       0.0       0.0
 5 H  px              3.8       6.8       3.4       0.0       6.3       0.4
 5 H  py              1.0       2.5       1.4       0.0       5.5       1.3
 6 H  s               0.1       0.0       1.8       2.8       1.3       0.0
 6 H  pz              0.0       0.0       7.3       3.3       5.2       0.0
 6 H  px              0.0       0.3       0.0       0.0       0.0       0.8
 6 H  py              4.6       0.0       3.2       3.0       0.1       0.0
 7 H  s               0.1       0.0       1.8       2.8       1.3       0.0
 7 H  pz              0.0       0.0       7.3       3.3       5.2       0.0
 7 H  px              0.0       0.3       0.0       0.0       0.0       0.8
 7 H  py              4.6       0.0       3.2       3.0       0.1       0.0
 8 H  s               0.0       0.6       1.2       2.9       0.1       1.0
 8 H  pz              1.6       4.8       5.5       3.7       0.1       3.4
 8 H  px              0.4       0.1       0.0       0.1       0.1       0.2
 8 H  py              3.5       3.3       1.9       3.2       0.0       0.5
 9 H  s               0.1       0.8       0.6       0.0       4.3       0.3
 9 H  pz              0.0       0.0       0.0       0.9       0.0       0.0
 9 H  px              3.8       6.8       3.4       0.0       6.3       0.4
 9 H  py              1.0       2.5       1.4       0.0       5.6       1.3
10 H  s               0.0       0.6       1.2       2.9       0.1       1.0
10 H  pz              1.6       4.8       5.5       3.7       0.1       3.4
10 H  px              0.4       0.1       0.0       0.1       0.1       0.2
10 H  py              3.5       3.3       1.9       3.2       0.0       0.5

                     90        91        92        93        94        95   
                   3.56829   3.57342   3.60455   3.63660  21.84049  21.96071
                   0.00000   0.00000   0.00000   0.00000   0.00000   0.00000
                  --------  --------  --------  --------  --------  --------
 0 C  s               0.1       0.0       0.4       0.0      42.3      49.9
 0 C  pz              0.0       6.3       0.0       1.8       0.0       0.0
 0 C  px              3.8       0.0       0.2       0.0       0.0       0.0
 0 C  py              4.0       0.0       4.6       0.0       0.0       0.0
 0 C  dz2             4.3       0.0       7.9       0.0       0.0       0.0
 0 C  dxz             0.0       0.2       0.0       0.1       0.0       0.0
 0 C  dyz             0.0      15.3       0.0       5.8       0.0       0.0
 0 C  dx2y2           1.8       0.0       3.2       0.0       0.0       0.0
 0 C  dxy             6.2       0.0       0.1       0.0       0.0       0.0
 1 C  s               0.0       0.0       2.1       0.0      15.0       0.0
 1 C  pz              0.0       0.0       0.0       7.9       0.0       0.0
 1 C  px              0.2       0.0       0.0       0.0       0.0       0.0
 1 C  py              0.0       0.0       5.6       0.0       0.0       0.0
 1 C  dz2             0.0       0.0      10.7       0.0       0.0       0.0
 1 C  dxz             0.0       0.4       0.0       0.0       0.0       0.0
 1 C  dyz             0.0       0.0       0.0      21.3       0.0       0.0
 1 C  dx2y2           0.0       0.0       2.6       0.0       0.0       0.0
 1 C  dxy             1.1       0.0       0.0       0.0       0.0       0.0
 2 C  s               0.1       0.0       0.4       0.0      42.2      49.8
 2 C  pz              0.0       6.3       0.0       1.8       0.0       0.0
 2 C  px              3.8       0.0       0.2       0.0       0.0       0.0
 2 C  py              4.0       0.0       4.6       0.0       0.0       0.0
 2 C  dz2             4.3       0.0       7.9       0.0       0.0       0.0
 2 C  dxz             0.0       0.2       0.0       0.1       0.0       0.0
 2 C  dyz             0.0      15.3       0.0       5.8       0.0       0.0
 2 C  dx2y2           1.8       0.0       3.2       0.0       0.0       0.0
 2 C  dxy             6.2       0.0       0.1       0.0       0.0       0.0
 3 H  s               1.2       4.0       1.3       1.3       0.0       0.0
 3 H  pz              2.8       5.7       2.8       2.0       0.0       0.0
 3 H  px              0.3       0.0       0.0       0.1       0.0       0.0
 3 H  py              0.4       4.0       0.9       1.3       0.0       0.0
 4 H  s               1.2       4.0       1.3       1.3       0.0       0.0
 4 H  pz              2.8       5.7       2.8       2.0       0.0       0.0
 4 H  px              0.3       0.0       0.0       0.1       0.0       0.0
 4 H  py              0.4       4.0       0.9       1.3       0.0       0.0
 5 H  s               5.8       0.0       1.7       0.0       0.0       0.0
 5 H  pz              0.0       0.2       0.0       0.0       0.0       0.0
 5 H  px              9.5       0.0       3.5       0.0       0.0       0.0
 5 H  py              4.4       0.0       0.6       0.0       0.0       0.0
 6 H  s               0.0       0.0       1.7       5.4       0.0       0.0
 6 H  pz              0.0       0.0       3.9       7.2       0.0       0.0
 6 H  px              0.0       0.3       0.0       0.0       0.0       0.0
 6 H  py              0.0       0.0       1.8       5.6       0.0       0.0
 7 H  s               0.0       0.0       1.7       5.4       0.0       0.0
 7 H  pz              0.0       0.0       3.9       7.2       0.0       0.0
 7 H  px              0.0       0.3       0.0       0.0       0.0       0.0
 7 H  py              0.0       0.0       1.8       5.6       0.0       0.0
 8 H  s               1.2       4.0       1.3       1.3       0.0       0.0
 8 H  pz              2.8       5.7       2.8       2.0       0.0       0.0
 8 H  px              0.3       0.0       0.0       0.1       0.0       0.0
 8 H  py              0.4       4.0       0.9       1.3       0.0       0.0
 9 H  s               5.8       0.0       1.7       0.0       0.0       0.0
 9 H  pz              0.0       0.2       0.0       0.0       0.0       0.0
 9 H  px              9.5       0.0       3.5       0.0       0.0       0.0
 9 H  py              4.4       0.0       0.6       0.0       0.0       0.0
10 H  s               1.2       4.1       1.3       1.3       0.0       0.0
10 H  pz              2.8       5.7       2.8       2.0       0.0       0.0
10 H  px              0.3       0.0       0.0       0.1       0.0       0.0
10 H  py              0.4       4.0       0.9       1.3       0.0       0.0

                     96   
                  21.96885
                   0.00000
                  --------
 0 C  s               7.6
 1 C  s              84.6
 2 C  s               7.6


                      *****************************
                      * MAYER POPULATION ANALYSIS *
                      *****************************

  NA   - Mulliken gross atomic population
  ZA   - Total nuclear charge
  QA   - Mulliken gross atomic charge
  VA   - Mayer's total valence
  BVA  - Mayer's bonded valence
  FA   - Mayer's free valence

  ATOM       NA         ZA         QA         VA         BVA        FA
  0 C      6.4400     6.0000    -0.4400     3.7833     3.7833     0.0000
  1 C      6.2122     6.0000    -0.2122     3.6740     3.6740     0.0000
  2 C      6.4400     6.0000    -0.4400     3.7833     3.7833     0.0000
  3 H      0.8634     1.0000     0.1366     0.9664     0.9664     0.0000
  4 H      0.8634     1.0000     0.1366     0.9664     0.9664     0.0000
  5 H      0.8576     1.0000     0.1424     0.9637     0.9637     0.0000
  6 H      0.8696     1.0000     0.1304     0.9612     0.9612    -0.0000
  7 H      0.8696     1.0000     0.1304     0.9612     0.9612     0.0000
  8 H      0.8634     1.0000     0.1366     0.9664     0.9664     0.0000
  9 H      0.8576     1.0000     0.1424     0.9637     0.9637     0.0000
 10 H      0.8634     1.0000     0.1366     0.9664     0.9664     0.0000

  Mayer bond orders larger than 0.100000
B(  0-C ,  1-C ) :   0.9196 B(  0-C ,  3-H ) :   0.9790 B(  0-C ,  4-H ) :   0.9790 
B(  0-C ,  5-H ) :   0.9721 B(  1-C ,  2-C ) :   0.9196 B(  1-C ,  6-H ) :   0.9680 
B(  1-C ,  7-H ) :   0.9680 B(  2-C ,  8-H ) :   0.9790 B(  2-C ,  9-H ) :   0.9721 
B(  2-C , 10-H ) :   0.9790 

-------
TIMINGS
-------

Total SCF time: 0 days 0 hours 0 min 2 sec 

Total time                  ....       2.047 sec
Sum of individual times     ....       2.034 sec  ( 99.3%)

SCF preparation             ....       0.024 sec  (  1.2%)
Fock matrix formation       ....       1.941 sec  ( 94.8%)
  Startup                   ....       0.001 sec  (  0.0% of F)
  Split-RI-J                ....       0.220 sec  ( 11.4% of F)
  XC integration            ....       1.711 sec  ( 88.1% of F)
    Basis function eval.    ....       0.366 sec  ( 21.4% of XC)
    Density eval.           ....       0.468 sec  ( 27.3% of XC)
    XC-Functional eval.     ....       0.347 sec  ( 20.3% of XC)
    XC-Potential eval.      ....       0.482 sec  ( 28.2% of XC)
Diagonalization             ....       0.000 sec  (  0.0%)
Density matrix formation    ....       0.018 sec  (  0.9%)
Total Energy calculation    ....       0.000 sec  (  0.0%)
Population analysis         ....       0.026 sec  (  1.3%)
Orbital Transformation      ....       0.007 sec  (  0.3%)
Orbital Orthonormalization  ....       0.000 sec  (  0.0%)
DIIS solution               ....       0.009 sec  (  0.4%)
  MO trafo                  ....       0.000 sec  (  0.0 % of DIIS)
  Orb grad                  ....       0.000 sec  (  0.0 % of DIIS)
  Energy W gradient         ....       0.000 sec  (  0.0 % of DIIS)
  DIIS error                ....       0.001 sec  (  7.0 % of DIIS)
  DIIS work                 ....       0.007 sec  ( 79.2 % of DIIS)
  Form Q                    ....       0.000 sec  (  0.0 % of DIIS)
  Form QpQm                 ....       0.000 sec  (  0.0 % of DIIS)
  Exp/Cayley                ....       0.000 sec  (  0.0 % of DIIS)
  Orb update                ....       0.000 sec  (  0.0 % of DIIS)
  Wake-sleep                ....       0.000 sec  (  2.0 % of DIIS)
SOSCF solution              ....       0.008 sec  (  0.4%)
  MO trafo                  ....       0.007 sec  ( 95.2 % of SOSCF)
  Orb grad                  ....       0.000 sec  (  0.2 % of SOSCF)
  Rot update                ....       0.000 sec  (  0.1 % of SOSCF)
  Step                      ....       0.000 sec  (  4.2 % of SOSCF)
Finished LeanSCF after   2.0 sec

Maximum memory used throughout the entire LEANSCF-calculation: 10.8 MB


-------------------------------------------------------------------------------
                          DFT DISPERSION CORRECTION                            
                                                                               
                                DFTD4 V3.4.0                                   
-------------------------------------------------------------------------------
The R2SCAN3C composite method is recognized
Using three-body term ABC
Active option DFTDOPT                   ...         5   

-------------------------   ----------------
Dispersion correction           -0.001708773
-------------------------   ----------------

------------------   -----------------
gCP correction             0.005291418
------------------   -----------------

-------------------------   --------------------
FINAL SINGLE POINT ENERGY      -119.089737774587
-------------------------   --------------------


------------------------------------------------------------------------------
                              ORCA PROPERTY CALCULATIONS
------------------------------------------------------------------------------

GBWName                                 ... sp.gbw
Number of atoms                         ...     11
Number of basis functions               ...     97
Max core memory                         ...   1024 MB

Electric properties:
Dipole moment                           ... YES
Quadrupole moment                       ...  NO
Static polarizability (Dipole/Dipole)   ...  NO
Static polarizability (Dipole/Quad.)    ...  NO
Static polarizability (Quad./Quad.)     ...  NO
Static polarizability (Velocity)        ...  NO

Atomic electric properties:
Dipole moment                           ...  NO
Quadrupole moment                       ...  NO
Static polarizability                   ...  NO

Choice of electric origin               ... Center of mass
Position of electric origin             ...     0.000000     0.000002    -0.000000

General magnetic properties:
Magnetizability                         ...  NO

EPR properties:
g-Tensor (aka g-matrix)                 ...  NO
Zero-Field splitting spin-orbit         ...  NO
Zero-field splitting spin-spin          ...  NO
Hyperfine couplings                     ...  NO (   0 nuclei)
Quadrupole couplings                    ...  NO (   0 nuclei)
Contact density                         ...  NO (   0 nuclei)

NMR properties:
Chemical shifts                         ...  NO (   0 nuclei)
Spin-rotation constants                 ...  NO (   0 nuclei)
Spin-spin couplings                     ...  NO (   0 nuclei,    0 pairs)

Choice of magnetic origin               ... GIAO
Position of magnetic origin             ...     0.000000     0.000000     0.000000

Properties with geometric perturbations:
SCF Hessian                             ...  NO
IR spectrum                             ...  NO
VCD spectrum                            ...  NO
X-ray spectroscopy properties:
SCF XES/XAS/RIXS spectra                ...  NO


-------------
DIPOLE MOMENT
-------------

Method             : SCF
Type of density    : Electron Density
Multiplicity       :   1
Irrep              :   0
Energy             :  -119.0933204196289665 Eh
Relativity type    : 
Basis              : AO
                                X                 Y                 Z
Electronic contribution:     -0.000008178      -0.471238540       0.000003757
Nuclear contribution   :      0.000017855       0.442075001      -0.000011441
                        -----------------------------------------
Total Dipole Moment    :      0.000009678      -0.029163539      -0.000007684
                        -----------------------------------------
Magnitude (a.u.)       :      0.029163542
Magnitude (Debye)      :      0.074127833



--------------------
Rotational spectrum 
--------------------
 
Rotational constants in cm-1:             0.980176             0.286234             0.252782 
Rotational constants in MHz :         29384.945074          8581.074965          7578.207989 

Dipole components along the rotational axes: 
x,y,z [a.u.] :    -0.000010    -0.029164    -0.000008 
x,y,z [Debye]:    -0.000025    -0.074128    -0.000020 

 

Dipole moment calculation done in   0.0 sec 

Maximum memory used throughout the entire PROP-calculation: 5.9 MB

--------------------------------
SUGGESTED CITATIONS FOR THIS RUN
--------------------------------

Below you find a list of papers that are relevant to this ORCA run
We neither can nor want to force you to cite these papers, but we appreciate if you do
You receive ORCA, which is the product of decades of hard work by many enthusiastic individuals, for free
The only thing we kindly ask in return is that you cite our papers,
We deeply appreciate it, if you show your appreciation for ORCA by not just citing the generic ORCA reference.

Please note that relegating all ORCA citations to the supporting information does *not* help us.
SI sections are not indexed - citations you put there will not count into any citation statistics
But we need these citations in order to attract the funding resources that allow us to do what we are doing

Therefore, if you are a happy ORCA user, please consider citing a few of the papers listed below in the main body of your paper

In addition to the list printed below, the program has created the file sp.bibtex that contains the list in bibtex format
You can import this file easily into all common literature databanks and citation aid programs


List of essential papers. We consider these as the minimum necessary citations

  1. Neese,F.
     Software update: the ORCA program system, version 5.0
     WIRES Comput. Molec. Sci., 2022 12(1)e1606
     doi.org/10.1002/wcms.1606
  2. Grimme,S.; Hansen,A.; Ehlert,S.; Mewes,J.
     r2SCAN-3c: A 'Swiss army knife' composite electronic-structure method
     J. Chem. Phys., 2021 154 064103
     doi.org/10.1063/5.0040021

List of papers to cite with high priority. The work reported in these papers was absolutely
necessary for this run to complete.
Our perspective: the developers of density functionals and basis sets usually get cited in chemistry papers
Good! But without the algorithms to do something with them, the functionals or basis sets would not do anything.
Hence, in our opinion, the algorithm design and method developments papers are equally worthy of getting cited

  1. Neese,F.
     An improvement of the resolution of the identity approximation for the formation of the Coulomb matrix
     J. Comp. Chem., 2003 24(14)1740-1747
     doi.org/10.1002/jcc.10318
  2. Neese,F.
     The SHARK Integral Generation and Digestion System
     J. Comp. Chem., 2022  1-16
     doi.org/10.1002/jcc.26942
  3. Lehtola,S.; Steigemann,C.; Oliveira,M.; Marques,M.
     Recent developments in Libxc - A comprehensive library of functionals for density functional theory
     Software X, 2018 7 
     doi.org/10.1016/j.softx.2017.11.002
  4. Caldeweyher,E.; Bannwarth,C.; Grimme,S.
     Extension of the D3 dispersion coefficient model
     J. Chem. Phys., 2017 147 034112
     doi.org/10.1063/1.4993215
  5. Caldeweyher,E.; Ehlert,S.; Hansen,A.; Neugebauer,H.; Spicher,S.; Bannwarth,C.; Grimme,S.
     A generally applicable atomic-charge dependent London dispersion correction
     J. Chem. Phys., 2019 150 154122
     doi.org/10.1063/1.5090222
  6. Caldeweyher,E.; Mewes,J.; Ehlert,S.; Grimme,S.
     Extension and evaluation of the D4 London-dispersion model for periodic systems
     Phys. Chem. Chem. Phys., 2020 22(16)8499-8512
     doi.org/10.1039/D0CP00502A
  7. Wittmann,L.; Gordiy,I.; Friede,M.; Helmich-Paris,B.; Grimme,S.; Hansen,A.; Bursch,M.
     Extension of the D3 and D4 London Dispersion Corrections to the full Actinides Series
     Phys. Chem. Chem. Phys., 2024 26(32)21379-21394
     doi.org/https://doi.org/10.1039/D4CP01514B 

List of suggested additional citations. These are papers that are important in the 'surrounding' of 
of this run, or papers that preceded the highly important papers. If you like your results we are grateful for a citation.

  1. Neese,F.
     The ORCA program system
     WIRES Comput. Molec. Sci., 2012 2(1)73-78
     doi.org/10.1002/wcms.81
  2. Neese,F.
     Software update: the ORCA program system, version 4.0
     WIRES Comput. Molec. Sci., 2018 8(1)1-6
     doi.org/10.1002/wcms.1327
  3. Neese,F.; Wennmohs,F.; Becker,U.; Riplinger,C.
     The ORCA quantum chemistry program package
     J. Chem. Phys., 2020 152 Art. No. L224108
     doi.org/10.1063/5.0004608

List of optional additional citations

  1. Neese,F.
     Approximate second-order SCF convergence for spin unrestricted wavefunctions
     Chem. Phys. Lett., 2000 325(1-3)93-98
     doi.org/10.1016/s0009-2614(00)00662-x

Timings for individual modules:

Sum of individual times          ...        2.339 sec (=   0.039 min)
Startup calculation              ...        0.204 sec (=   0.003 min)   8.7 %
SCF iterations                   ...        2.103 sec (=   0.035 min)  89.9 %
Property calculations            ...        0.032 sec (=   0.001 min)   1.4 %
                             ****ORCA TERMINATED NORMALLY****
TOTAL RUN TIME: 0 days 0 hours 0 minutes 2 seconds 403 msec
