14
 energy: -20.782265180446 gnorm: 0.028762878188 xtb: 6.7.1 (41059b4)
C           -2.11494964713667        0.45374335283488       -0.71711854612466
C           -1.34915696250810        0.40386735322262        0.61195298734026
C            0.02832324775731       -0.18245327496870        0.42918444664656
O            0.38381697871437       -1.27926310143724        0.79329860166197
O            0.83484264836923        0.67939169525096       -0.23965244268557
C            2.16304198090439        0.18290272306504       -0.50581006001268
H           -1.60301809013218        1.09646421752637       -1.43730282527675
H           -2.20589466117320       -0.54687792527793       -1.14966463716012
H           -3.12229573355509        0.84778698669810       -0.55840888504797
H           -1.87225388729703       -0.22257744091355        1.33744837270389
H           -1.25367459588361        1.41427924372905        1.02324270428113
H            2.68421610074165       -0.03112712345110        0.43079972150939
H            2.66762500228961        0.97787106154279       -1.05469515597668
H            2.11610021419560       -0.73078925856831       -1.10403352620736
14
 energy: -20.783018957909 gnorm: 0.010562383446 xtb: 6.7.1 (41059b4)
C           -2.10901520022271        0.45092365113543       -0.71291159338465
C           -1.34852807966502        0.40308947672056        0.61216055738350
C            0.02565800713540       -0.18735367623445        0.41319065324329
O            0.37913005000177       -1.27419700517947        0.78422854995256
O            0.83541084108372        0.66673761228485       -0.24268296789200
C            2.15710888547275        0.18743764279135       -0.50539061339560
H           -1.58951161274450        1.08782306449977       -1.42614224542664
H           -2.20012746119159       -0.54783166204369       -1.13743444568350
H           -3.10902004757423        0.84992967314143       -0.55204895815307
H           -1.88203310123384       -0.21798818516875        1.33351858601029
H           -1.24460777411443        1.41397697786827        1.01207125388976
H            2.67050443812914       -0.02651992889825        0.43316075664785
H            2.66133110199002        0.98183542755555       -1.05032786501582
H            2.11042254821980       -0.72464455921962       -1.10215091252456
14
 energy: -20.783128297920 gnorm: 0.004562136868 xtb: 6.7.1 (41059b4)
C           -2.10352717020339        0.45046882582506       -0.71290251634152
C           -1.34779262099401        0.40370641112684        0.61436868223190
C            0.02815986596437       -0.18629582797834        0.41933273694211
O            0.37624446349060       -1.27757918464690        0.77913997949030
O            0.83283734601728        0.66078445267498       -0.23936466477675
C            2.14833041987445        0.18994365990854       -0.50659037769623
H           -1.57852793483231        1.08251032924959       -1.42388885279673
H           -2.19485716510523       -0.54806262662996       -1.13282723797259
H           -3.10115031967950        0.85242750586960       -0.55728765204962
H           -1.88490135968692       -0.21648136212968        1.33243180585615
H           -1.24119996728527        1.41370189725385        1.01140722649624
H            2.66585147671575       -0.02370817030648        0.42959864984283
H            2.65078081941148        0.98419804624664       -1.05113188554664
H            2.10647474159899       -0.72239544721076       -1.10304513802803
14
 energy: -20.783150624862 gnorm: 0.001250507348 xtb: 6.7.1 (41059b4)
C           -2.10157281978035        0.44982977360263       -0.71297235942959
C           -1.34790493486220        0.40469921193266        0.61632599267840
C            0.02644637333469       -0.18951188382528        0.41671741200998
O            0.37362190134568       -1.28198576026274        0.77759963514672
O            0.83058468075177        0.65869565693269       -0.23746289119160
C            2.14477172979064        0.19203613150301       -0.50609033936221
H           -1.57285870970675        1.07775424555879       -1.42509793969951
H           -2.19510246616374       -0.54992624708247       -1.12971577642420
H           -3.09807540342411        0.85577171848776       -0.56061057892890
H           -1.88490204259806       -0.21358256231499        1.33563678354035
H           -1.23840576402099        1.41508884912475        1.01136909324057
H            2.66629489760370       -0.02384093190647        0.42812418622960
H            2.64642748702727        0.98780884124098       -1.04950049771237
H            2.10739766598873       -0.71961853373832       -1.10508196444582
14
 energy: -20.783157150777 gnorm: 0.001451521159 xtb: 6.7.1 (41059b4)
C           -2.10007493441216        0.44882990052263       -0.71313895322847
C           -1.34835838429635        0.40505473733773        0.61804003594622
C            0.02584459950559       -0.19102563859820        0.41903934219025
O            0.36978840831052       -1.28675230079347        0.77596735048074
O            0.82982101068058        0.65864704102261       -0.23278081901195
C            2.14309378413556        0.19387915945400       -0.50641820946097
H           -1.56635767886907        1.07168658301653       -1.42682331139249
H           -2.19714720642261       -0.55270193577936       -1.12631200256195
H           -3.09557382286859        0.86035662784566       -0.56532674296960
H           -1.88670755046262       -0.21107096384701        1.33807761534305
H           -1.23778858650615        1.41604324656355        1.01164647554231
H            2.66958361390752       -0.02523338799694        0.42513642117075
H            2.64337471437523        0.99194233144596       -1.04902871334147
H            2.10722462820882       -0.71643689094070       -1.10883773305500
14
 energy: -20.783160612787 gnorm: 0.000749057294 xtb: 6.7.1 (41059b4)
C           -2.09958281972857        0.44778744598217       -0.71301938101897
C           -1.34838767064397        0.40523680368250        0.61832626526661
C            0.02552499928093       -0.19155805607912        0.41947978429963
O            0.36785271785968       -1.28826542619593        0.77375203428837
O            0.83061365794709        0.65968409634771       -0.22952773831705
C            2.14344863773306        0.19462189099856       -0.50620986588037
H           -1.56385122811281        1.06716140272159       -1.42818324013130
H           -2.19982801912313       -0.55442743589647       -1.12378565855786
H           -3.09379886421912        0.86282438183813       -0.56666224789756
H           -1.88738049711001       -0.20975429163381        1.33889707770854
H           -1.23763299344499        1.41671652624749        1.01079671046064
H            2.67110170550885       -0.02684645551073        0.42403621088586
H            2.64305297940919        0.99398905621863       -1.04764057760072
H            2.10558998993009       -0.71395142946774       -1.11101861785441
14
 energy: -20.783166339567 gnorm: 0.000560353575 xtb: 6.7.1 (41059b4)
C           -2.09897154548319        0.44471132243567       -0.71255939925929
C           -1.34809397363050        0.40639876995420        0.61878859562766
C            0.02483325874520       -0.19253454022016        0.41947277306475
O            0.36327735315112       -1.29307949484878        0.76391900125287
O            0.83289731216154        0.66325192880173       -0.22048568610934
C            2.14402516736215        0.19690997166274       -0.50479817331416
H           -1.55771169328381        1.05345771411295       -1.43254450030536
H           -2.20800176557811       -0.55978986745982       -1.11517057882650
H           -3.08928791059735        0.86980457519603       -0.56967899824550
H           -1.88780819379394       -0.20571856363012        1.34124147465742
H           -1.23627899038222        1.41916993849185        1.00743293424864
H            2.67408717094019       -0.03177606746128        0.42193356624200
H            2.64285287579799        0.99922693498825       -1.04228386818671
H            2.10090352987720       -0.70681411277027       -1.11602638519506
14
 energy: -20.783169610845 gnorm: 0.000649857546 xtb: 6.7.1 (41059b4)
C           -2.09994865531397        0.44233641458559       -0.71198230309328
C           -1.34757017504684        0.40764794197913        0.61876501670479
C            0.02434831128777       -0.19272787193373        0.41760575497122
O            0.36031114451071       -1.29648146724469        0.75390942546074
O            0.83505537241673        0.66627009493275       -0.21501394237751
C            2.14511724620448        0.19850511437496       -0.50297652587371
H           -1.55631364714320        1.04398453116870       -1.43608341896001
H           -2.21498161446817       -0.56378649428573       -1.10873943526646
H           -3.08763104589165        0.87376547057847       -0.57050007881771
H           -1.88682545886786       -0.20222453379513        1.34348350934187
H           -1.23427966437433        1.42140414467199        1.00422092639958
H            2.67553526926799       -0.03567451292006        0.42208866321872
H            2.64491182372670        1.00238697194325       -1.03718546865275
H            2.09899368897791       -0.70218729480251       -1.11835136740409
14
 energy: -20.783175026223 gnorm: 0.000467573161 xtb: 6.7.1 (41059b4)
C           -2.10323871714795        0.43831761846757       -0.71059869869063
C           -1.34608846973163        0.41043896153500        0.61782720618143
C            0.02377160797588       -0.19267659718387        0.41267285128502
O            0.35485759272545       -1.30265138112255        0.73361521381044
O            0.83953209119370        0.67139574262225       -0.20662837478661
C            2.14766449899695        0.20094742174328       -0.49892678683704
H           -1.55764137718028        1.02916484603963       -1.44207093709813
H           -2.22681759430272       -0.57063816044143       -1.09729448390671
H           -3.08704984507306        0.87845717275931       -0.56970627659871
H           -1.88359105044630       -0.19527902588712        1.34728440881734
H           -1.23006528994068        1.42611632131910        0.99701739558963
H            2.67744599037681       -0.04243634803495        0.42412490642102
H            2.65034452799491        1.00696777942489       -1.02706572296378
H            2.09759862984521       -0.69490584198811       -1.12100994557186
14
 energy: -20.783180663089 gnorm: 0.000704663274 xtb: 6.7.1 (41059b4)
C           -2.10791212312071        0.43403262511581       -0.70896598889458
C           -1.34416957524970        0.41419754287492        0.61627437097947
C            0.02315308406391       -0.19233477857871        0.40613537610661
O            0.34830086660625       -1.30885891023878        0.71090934666829
O            0.84488424571172        0.67643163827886       -0.19860173350811
C            2.15108565000078        0.20300803252961       -0.49403847504368
H           -1.56351628976024        1.01616375075899       -1.44825141632941
H           -2.23779727094598       -0.57757400179074       -1.08629997322143
H           -3.08888537865728        0.87986308804968       -0.56699484927661
H           -1.87884777208778       -0.18666807129949        1.35182289795012
H           -1.22464739420305        1.43204383463066        0.98826983501681
H            2.67926097741172       -0.05042769417206        0.42737828491035
H            2.65791560744167        1.01107017760086       -1.01509362531500
H            2.09789796807496       -0.68772872450662       -1.12330329439143
14
 energy: -20.783187574390 gnorm: 0.001067318611 xtb: 6.7.1 (41059b4)
C           -2.11409772489074        0.42960555174247       -0.70690298874666
C           -1.34175688372618        0.41897490531168        0.61372229368657
C            0.02270050101353       -0.19173580413160        0.39831049938672
O            0.34057130953409       -1.31503618665182        0.68609672156539
O            0.85132504486198        0.68114687046932       -0.19074917282688
C            2.15561495127297        0.20444600766166       -0.48839328466657
H           -1.57397600395994        1.00569723168651       -1.45400168103406
H           -2.24687710185907       -0.58474483637765       -1.07540668418063
H           -3.09373442147828        0.87735951249730       -0.56204180742108
H           -1.87297007545268       -0.17605474953660        1.35651854428325
H           -1.21839401165021        1.43934785544413        0.97718560278026
H            2.68105155224387       -0.06000072374339        0.43166047978189
H            2.66755599789066        1.01470934317790       -1.00105576135506
H            2.09970946148629       -0.68049646829692       -1.12570200560174
14
 energy: -20.783197149592 gnorm: 0.001986638314 xtb: 6.7.1 (41059b4)
C           -2.12459691357336        0.42217394592236       -0.70340480832008
C           -1.33761342807386        0.42764642729705        0.60907268479054
C            0.02176032971275       -0.19112915749950        0.38497874818795
O            0.32638370362442       -1.32517917966284        0.64549512078945
O            0.86216445594930        0.68787703510857       -0.17804151935429
C            2.16375507705832        0.20623647725552       -0.47886686767077
H           -1.59431795266308        0.99112169685234       -1.46329720574442
H           -2.25963772436431       -0.59661108905412       -1.05889163865219
H           -3.10342401587050        0.86986605533138       -0.55215342081798
H           -1.86282889228841       -0.15674723498752        1.36468520723923
H           -1.20698920744571        1.45228201384103        0.95774937385297
H            2.68410346173583       -0.07666193430870        0.43890460145439
H            2.68392461028369        1.02071419160179       -0.97669310044680
H            2.10403909120118       -0.66837073844437       -1.13029641965659
14
 energy: -20.783205337407 gnorm: 0.001532433868 xtb: 6.7.1 (41059b4)
C           -2.13663642229380        0.41541341113153       -0.69941222772750
C           -1.33317572708378        0.43651179429313        0.60309499974223
C            0.02113595194151       -0.19035973087557        0.37070593968692
O            0.31276964589958       -1.33287624171649        0.60663674927668
O            0.87298013409494        0.69246745814717       -0.16775543322111
C            2.17275902227568        0.20676853776842       -0.46914684417756
H           -1.61997468042177        0.98162275962818       -1.47069555692194
H           -2.26904784196162       -0.60704604041399       -1.04454468589569
H           -3.11662562290268        0.85795383930704       -0.53966979591502
H           -1.85163078652183       -0.13648182470332        1.37209989831044
H           -1.19503010527385        1.46514624961868        0.93639579075369
H            2.68612909024594       -0.09397875578060        0.44699008473794
H            2.70172380239806        1.02530295810236       -0.95104350264528
H            2.11134613488988       -0.65722590525357       -1.13441466035238
14
 energy: -20.783208829107 gnorm: 0.001244102301 xtb: 6.7.1 (41059b4)
C           -2.14149537672751        0.41175857361975       -0.69744885751467
C           -1.33119184636697        0.44145376394886        0.60008735348756
C            0.02085062975751       -0.18956071863463        0.36496415744692
O            0.30507126117166       -1.33659430051847        0.58761137595900
O            0.87858682506649        0.69523991920981       -0.16086077648283
C            2.17718442425842        0.20675690750610       -0.46460973340651
H           -1.63171421166812        0.97663758439557       -1.47435119289371
H           -2.27214017982769       -0.61298855672296       -1.03732252458406
H           -3.12216709221180        0.85133945134079       -0.53336618117682
H           -1.84654290767388       -0.12583079910667        1.37505701779948
H           -1.19035273408596        1.47191345096873        0.92586073514773
H            2.68767339647973       -0.10377195146752        0.44969238479931
H            2.70958218097994        1.02763669284629       -0.93818422326213
H            2.11337822613446       -0.65077150813269       -1.13788877966783
14
 energy: -20.783210147958 gnorm: 0.001391343160 xtb: 6.7.1 (41059b4)
C           -2.14404786668455        0.40934206577489       -0.69603374441411
C           -1.33012922456203        0.44500895110473        0.59833776836714
C            0.02063956489864       -0.18873350480693        0.36189296868930
O            0.30001837894422       -1.33710198822065        0.57757426038770
O            0.88194939088681        0.69611080250508       -0.15618036124441
C            2.17976221477313        0.20613541297166       -0.46221163359233
H           -1.64000337598007        0.97546384790714       -1.47543526611974
H           -2.27020556516581       -0.61638693649519       -1.03436386116399
H           -3.12649964065799        0.84402625903195       -0.52974436773755
H           -1.84340592503448       -0.11813879276440        1.37736336414783
H           -1.18758726375448        1.47667393958391        0.91880821804724
H            2.68804695018048       -0.11227340445988        0.45011006263277
H            2.71446431578789        1.02892438991397       -0.92916580306893
H            2.11372064165451       -0.64583253279330       -1.14171084927950
14
 energy: -20.783212754424 gnorm: 0.000882984476 xtb: 6.7.1 (41059b4)
C           -2.14768086307387        0.40434917139636       -0.69399870956137
C           -1.32832828199354        0.45062465227342        0.59692214383404
C            0.01997504929200       -0.18770600998831        0.35702398693063
O            0.29077927079399       -1.34205111177751        0.55581874436354
O            0.88806179631850        0.70055107395161       -0.14518988885668
C            2.18328398520172        0.20708620902723       -0.45785977858943
H           -1.64793116937668        0.96587851717841       -1.47982955401587
H           -2.27295722050990       -0.62408579551225       -1.02488561803551
H           -3.13040249839268        0.83812627013795       -0.52737855384632
H           -1.83922546591401       -0.10589684826907        1.38274556407419
H           -1.18263304007949        1.48494372099959        0.90823700168062
H            2.69019685966712       -0.12561630215818        0.45061490273073
H            2.72207118411405        1.03323036537382       -0.91486520917354
H            2.11151298923907       -0.63621540338010       -1.14811427588361
14
 energy: -20.783213690885 gnorm: 0.000437351829 xtb: 6.7.1 (41059b4)
C           -2.14729232180420        0.40426300793411       -0.69425058747026
C           -1.32844658539992        0.45057668318065        0.59717392141059
C            0.01993063864643       -0.18718513349663        0.35746840691371
O            0.29127873228502       -1.34134051489902        0.55598548979023
O            0.88785926809539        0.70080045163009       -0.14502260396423
C            2.18276857747091        0.20710745189750       -0.45804952783725
H           -1.64672000801169        0.96549835964408       -1.47979382912863
H           -2.27286937233861       -0.62438390463343       -1.02445150425469
H           -3.12992281783455        0.83846746366314       -0.52790533760817
H           -1.83951952020347       -0.10623657332336        1.38253266460282
H           -1.18322847533333        1.48464009103865        0.90891991794484
H            2.68982622847571       -0.12605811889942        0.44987014052252
H            2.72215638537750        1.03283385192443       -0.91482912563794
H            2.11090186586107       -0.63576460640781       -1.14840726963212
14
 energy: -20.783214548527 gnorm: 0.000187890782 xtb: 6.7.1 (41059b4)
C           -2.14811019209955        0.40227647116510       -0.69377502467844
C           -1.32792544027139        0.45248373440460        0.59691929368217
C            0.01969901883109       -0.18594703628374        0.35628108703043
O            0.28928854146853       -1.34131873059558        0.54922029398161
O            0.88984330910198        0.70278552247783       -0.14091329741574
C            2.18326354886450        0.20731106571415       -0.45678003702423
H           -1.64812697614987        0.96130886587737       -1.48126240930342
H           -2.27351063669457       -0.62744437511390       -1.02046974561467
H           -3.13070979005670        0.83677205768761       -0.52785297854835
H           -1.83816507687483       -0.10241310398534        1.38410504786365
H           -1.18251193427941        1.48730870487045        0.90573262848856
H            2.68956199936385       -0.13260919201862        0.44903331864944
H            2.72512075885711        1.03400404235357       -0.90891227889931
H            2.10900546522554       -0.63129951730054       -1.15208514256028
14
 energy: -20.783214965053 gnorm: 0.000166481992 xtb: 6.7.1 (41059b4)
C           -2.14910105501869        0.40053059634939       -0.69311245570675
C           -1.32740170743461        0.45419195226680        0.59652250041488
C            0.01955184343107       -0.18513038805613        0.35494798972434
O            0.28723287072295       -1.34175901579005        0.54302899470660
O            0.89166439769818        0.70417153681117       -0.13779351841045
C            2.18409378717893        0.20760070059869       -0.45558978495160
H           -1.65013154709471        0.95736512581612       -1.48273026843968
H           -2.27465969138734       -0.62996067066537       -1.01695332000018
H           -3.13151778340682        0.83539847718390       -0.52746443431743
H           -1.83676467217840       -0.09881607438704        1.38566054998047
H           -1.18146555264006        1.48981084981067        0.90252000592993
H            2.68911763296891       -0.13823912700701        0.44862866108053
H            2.72802387388579        1.03531948543496       -0.90331031496981
H            2.10808019856105       -0.62726493911312       -1.15511384938944
14
 energy: -20.783215410998 gnorm: 0.000265230949 xtb: 6.7.1 (41059b4)
C           -2.15103479271160        0.39803537550231       -0.69213548998466
C           -1.32657168661524        0.45663397412637        0.59553312325050
C            0.01939114100263       -0.18413823090510        0.35259579754435
O            0.28432531002455       -1.34233423098523        0.53442877038990
O            0.89431081528885        0.70607563010133       -0.13374231614787
C            2.18560401358231        0.20796153522106       -0.45372889898771
H           -1.65356983079387        0.95138084017394       -1.48519130124276
H           -2.27741049155639       -0.63379129486592       -1.01145997796866
H           -3.13298873434064        0.83388437842025       -0.52638641508600
H           -1.83442024266606       -0.09348478011837        1.38775375063656
H           -1.17961911582310        1.49333241953549        0.89745863328015
H            2.68837271566308       -0.14668740637945        0.44841264271407
H            2.73261979119063        1.03755219811083       -0.89431795690338
H            2.10771370304111       -0.62120189868454       -1.15997960584307
14
 energy: -20.783216023481 gnorm: 0.000320300060 xtb: 6.7.1 (41059b4)
C           -2.15349288900860        0.39550046254835       -0.69097911496585
C           -1.32561255834467        0.45904627235235        0.59418991682786
C            0.01938903809245       -0.18325753974205        0.34987517703245
O            0.28161158725777       -1.34290645349795        0.52603227738796
O            0.89685432271056        0.70753043531753       -0.13076654136139
C            2.18745290192541        0.20832877497302       -0.45178566358057
H           -1.65775655751076        0.94477485040152       -1.48788145183681
H           -2.28148485681822       -0.63753067678536       -1.00548733262975
H           -3.13462440552755        0.83295436510507       -0.52479342185940
H           -1.83165645526249       -0.08800356160542        1.38974054356416
H           -1.17747840907291        1.49684013045656        0.89186137703318
H            2.68685896538485       -0.15548239884294        0.44854516736537
H            2.73791643660251        1.04000005549835       -0.88407200430005
H            2.10874547485789       -0.61457620692607       -1.16523817302573
14
 energy: -20.783216398059 gnorm: 0.000135566213 xtb: 6.7.1 (41059b4)
C           -2.15404774468704        0.39554710022186       -0.69096920460138
C           -1.32552797980461        0.45895713323327        0.59372813179941
C            0.01945467608501       -0.18348679311426        0.34943423969532
O            0.28173105740657       -1.34311183903727        0.52641226181069
O            0.89668372021596        0.70724652785257       -0.13167287390168
C            2.18773734131607        0.20832812942047       -0.45167624462502
H           -1.65854150517357        0.94481243182587       -1.48805134442661
H           -2.28254526631400       -0.63758223123214       -1.00514851098063
H           -3.13494529282830        0.83330141066480       -0.52397407881568
H           -1.83127306562480       -0.08777511607768        1.38952729753445
H           -1.17712751599001        1.49662704923033        0.89124387518827
H            2.68653881806396       -0.15549238762472        0.44886155036904
H            2.73841256294833        1.04010758605655       -0.88307099867364
H            2.11017278967269       -0.61426049216667       -1.16540334472113
14
 energy: -20.783216702620 gnorm: 0.000128996015 xtb: 6.7.1 (41059b4)
C           -2.15473435188099        0.39553922563418       -0.69088040124821
C           -1.32535964517596        0.45888395209545        0.59327618541847
C            0.01964619666255       -0.18369081185408        0.34898993410599
O            0.28199765947797       -1.34312867940822        0.52710396365059
O            0.89654038345177        0.70679416129299       -0.13300198540526
C            2.18817306624567        0.20831986079168       -0.45162357889781
H           -1.65967978742085        0.94453130182925       -1.48839527950266
H           -2.28395983971478       -0.63756300837446       -1.00483139207787
H           -3.13534217276656        0.83369247824076       -0.52315566730397
H           -1.83078252563951       -0.08757508868847        1.38943508889855
H           -1.17657305962805        1.49654892512924        0.89053407751310
H            2.68569432076408       -0.15600135079395        0.44940081531274
H            2.73926149591022        1.04056186200517       -0.88154769067878
H            2.11184085500069       -0.61369431864655       -1.16606331413348
14
 energy: -20.783216998868 gnorm: 0.000156852426 xtb: 6.7.1 (41059b4)
C           -2.15573837073899        0.39540279297172       -0.69065558442587
C           -1.32512389311947        0.45893373204277        0.59264316983048
C            0.01987450207501       -0.18382454423816        0.34815650886678
O            0.28261445711269       -1.34284956056397        0.52828473731318
O            0.89633004522631        0.70623711118108       -0.13519323284368
C            2.18877545206990        0.20828441112509       -0.45156800865989
H           -1.66128606835233        0.94378110342372       -1.48895395198536
H           -2.28590070782802       -0.63774098022351       -1.00404049693826
H           -3.13593053917679        0.83416927538953       -0.52201783231201
H           -1.83000633540793       -0.08718759864539        1.38941437109287
H           -1.17598378301044        1.49673586419740        0.88940382904808
H            2.68393830670617       -0.15770971802214        0.45010914510770
H            2.74089709662856        1.04138285028419       -0.87858863049510
H            2.11426243310158       -0.61239622966936       -1.16775326794752
14
 energy: -20.783217193429 gnorm: 0.000155887040 xtb: 6.7.1 (41059b4)
C           -2.15628389108453        0.39512936914637       -0.69052639326240
C           -1.32498103247528        0.45911873256081        0.59230158356337
C            0.02014116959548       -0.18355378903323        0.34815008229755
O            0.28317432293599       -1.34232832891987        0.52933948152463
O            0.89625184607237        0.70608985211881       -0.13656452855749
C            2.18902879737474        0.20822884271521       -0.45169137669971
H           -1.66217813724948        0.94290278214548       -1.48944856153216
H           -2.28700079994720       -0.63810943309733       -1.00333035219451
H           -3.13624751320995        0.83429183102849       -0.52160958329393
H           -1.82951478742193       -0.08675405167129        1.38949587045174
H           -1.17578826179886        1.49704621003108        0.88868551593951
H            2.68227285384540       -0.15997649817499        0.45015738256806
H            2.74230922747782        1.04202343887378       -0.87590715321835
H            2.11553880117168       -0.61089044847036       -1.16981121193489
14
 energy: -20.783217466788 gnorm: 0.000095712837 xtb: 6.7.1 (41059b4)
C           -2.15644098867842        0.39471920192572       -0.69041345350270
C           -1.32492335333974        0.45942940045703        0.59223089724668
C            0.02021151495674       -0.18314505962006        0.34811787417694
O            0.28371978314969       -1.34160854568930        0.53053121653407
O            0.89616102075065        0.70618529144291       -0.13757388763241
C            2.18901424837770        0.20817269896865       -0.45190416030166
H           -1.66244005222338        0.94190822092526       -1.48980221037433
H           -2.28737320197932       -0.63866778809213       -1.00260418604658
H           -3.13629930343838        0.83413626811489       -0.52162328889579
H           -1.82919673385201       -0.08618281096799        1.38981101387609