
                                 *****************
                                 * O   R   C   A *
                                 *****************

                                            #,                                       
                                            ###                                      
                                            ####                                     
                                            #####                                    
                                            ######                                   
                                           ########,                                 
                                     ,,################,,,,,                         
                               ,,#################################,,                 
                          ,,##########################################,,             
                       ,#########################################, ''#####,          
                    ,#############################################,,   '####,        
                  ,##################################################,,,,####,       
                ,###########''''           ''''###############################       
              ,#####''   ,,,,##########,,,,          '''####'''          '####       
            ,##' ,,,,###########################,,,                        '##       
           ' ,,###''''                  '''############,,,                           
         ,,##''                                '''############,,,,        ,,,,,,###''
      ,#''                                            '''#######################'''  
     '                                                          ''''####''''         
             ,#######,   #######,   ,#######,      ##                                
            ,#'     '#,  ##    ##  ,#'     '#,    #''#        ,####,   ,####,        
            ##       ##  ##   ,#'  ##            #'  '#       #'       #'  '#        
            ##       ##  #######   ##           ,######,      #####,   #    #        
            '#,     ,#'  ##    ##  '#,     ,#' ,#      #,     #,   #   #,  ,#        
             '#######'   ##     ##  '#######'  #'      '#     '####' # '####'        



                #########################################################
                #                        -***-                          #
                #          Department of theory and spectroscopy        #
                #                                                       #
                #                      Frank Neese                      #
                #                                                       #
                #     Directorship, Architecture, Infrastructure        #
                #                    SHARK, DRIVERS                     #
                #        Core code/Algorithms in most modules           #
                #                                                       #
                #        Max Planck Institute fuer Kohlenforschung      #
                #                Kaiser Wilhelm Platz 1                 #
                #                 D-45470 Muelheim/Ruhr                 #
                #                      Germany                          #
                #                                                       #
                #                  All rights reserved                  #
                #                        -***-                          #
                #########################################################


                         Program Version 6.0.1  -  RELEASE   -


 With contributions from (in alphabetic order):
[Max-Planck-Institut fuer Kohlenforschung]                               
  Daniel Aravena         : Magnetic Suceptibility                        
  Michael Atanasov       : Ab Initio Ligand Field Theory (pilot matlab implementation)
  Alexander A. Auer      : GIAO ZORA, VPT2 properties, NMR spectrum      
  Ute Becker             : All parallelization in ORCA, NUMFREQ, NUMCALC 
  Giovanni Bistoni       : ED, misc. LED, open-shell LED, HFLD           
  Martin Brehm           : Molecular dynamics                            
  Dmytro Bykov           : pre 5.0 version of the SCF Hessian            
  Marcos Casanova-Páez   : Triplet and SCS-CIS(D). UHF-(DLPNO)-IP/EA/STEOM-CCSD. UHF-CVS-IP/STEOM-CCSD   
  Vijay G. Chilkuri      : MRCI spin determinant printing, contributions to CSF-ICE 
  Pauline Colinet        : FMM embedding                                 
  Dipayan Datta          : RHF DLPNO-CCSD density                        
  Achintya Kumar Dutta   : EOM-CC, STEOM-CC                              
  Nicolas Foglia         : Exact transition moments, OPA infrastructure, MCD improvements    
  Dmitry Ganyushin       : Spin-Orbit,Spin-Spin,Magnetic field MRCI      
  Miquel Garcia-Rates    : C-PCM and meta-GGA Hessian, CCSD/C-PCM, Gaussian charge scheme 
  Tiago L. C. Gouveia    : GS-ROHF, GS-ROCIS                             
  Yang Guo               : DLPNO-NEVPT2, F12-NEVPT2, CIM, IAO-localization        
  Andreas Hansen         : Spin unrestricted coupled pair/coupled cluster methods 
  Ingolf Harden          : AUTO-CI MPn and infrastructure                
  Benjamin Helmich-Paris : MC-RPA, TRAH-(SCF,CASSCF), AVAS, COSX integrals, SCF dyn. polar. 
  Lee Huntington         : MR-EOM, pCC                                   
  Robert Izsak           : Overlap fitted RIJCOSX, COSX-SCS-MP3, EOM     
  Riya Kayal             : Wick's Theorem for AUTO-CI, AUTO-CI UHF-CCSDT 
  Emily Kempfer          : AUTO-CI, RHF CISDT and CCSDT                  
  Christian Kollmar      : KDIIS, OOCD, Brueckner-CCSD(T), CCSD density, CASPT2, CASPT2-K, improved NEVPT2 
  Axel Koslowski         : Symmetry handling                             
  Simone Kossmann        : meta-GGA functionals, TD-DFT gradient, OOMP2, (MP2 Hessian; deprecated post 5.0) 
  Lucas Lang             : DCDCAS                                        
  Marvin Lechner         : AUTO-CI (C++ implementation), FIC-MRCC        
  Spencer Leger          : CASSCF response                               
  Dagmar Lenk            : GEPOL surface, SMD, ORCA-2-JSON               
  Dimitrios Liakos       : Extrapolation schemes; Compound Job, initial MDCI parallelization 
  Dimitrios Manganas     : Further ROCIS development; embedding schemes. LFT, Crystal Embedding 
  Dimitrios Pantazis     : SARC Basis sets                               
  Anastasios Papadopoulos: AUTO-CI, single reference methods and gradients 
  Taras Petrenko         : pre 6.0 DFT Hessian and TD-DFT gradient, (ASA, deprecated), ECA, 1-Electron XAS/XES, NRVS 
  Peter Pinski           : DLPNO-MP2, DLPNO-MP2 Gradient                 
  Christoph Reimann      : Effective Core Potentials                     
  Marius Retegan         : Local ZFS, SOC                                
  Christoph Riplinger    : Optimizer, TS searches, QM/MM, DLPNO-CCSD(T), (RO)-DLPNO pert. Triples 
  Michael Roemelt        : Original ROCIS implementation                 
  Masaaki Saitow         : Open-shell DLPNO-CCSD energy and density      
  Barbara Sandhoefer     : DKH picture change effects                    
  Kantharuban Sivalingam : CASSCF convergence/infrastructure, NEVPT2 and variants, FIC-MRCI 
  Bernardo de Souza      : ESD, SOC TD-DFT                               
  Georgi L. Stoychev     : AutoAux, RI-MP2 NMR, DLPNO-MP2 response, X2C  
  Van Anh Tran           : RI-MP2 g-tensors                              
  Willem Van den Heuvel  : Paramagnetic NMR                              
  Zikuan Wang            : NOTCH, Electric field optimization            
  Frank Wennmohs         : Technical directorship and infrastructure     
  Hang Xu                : AUTO-CI-Response properties                   
                                                                         
[FACCTs GmbH]                                                            
  Markus Bursch, Miquel Garcia-Rates, Christoph Riplinger, Bernardo de Souza, Georgi L. Stoychev 
                                                                 
  APM, Basis sets (HGBS, AHGBS, def-TZVP (Ac-Lr), def2-XVPD (La-Lu)), CI-OPT, improved COSX, DLPNO-Multilevel,           
  DOCKER, DRACO, updates on ESD, GOAT, IRC, LR-CPCM, MBIS, meta-GGA TD-DFT gradient, ML-optimized integration grids, 
  MM, NACMEs, nearIR, NEB, NEB-TS, NL-DFT gradient (VV10), 2- and 3-layer-ONIOM, interface openCOSMO-RS, QMMM,   
  Crystal-QMMM, SF, symmetry and pop. for TD-DFT, r2SCAN hybrids, SOLVATOR                                   
                                                                         
[Other institutions]                                                     
  V. Asgeirsson          : NEB                                           
  Christoph Bannwarth    : sTDA-DFT, sTD-DFT, PBEh-3c, B97-3c, D3        
  Sebastian Ehlert       : rSCAN, r2SCAN, r2SCAN-3c, D4, dhf basis sets  
  Marvin Friede          : D4 for Fr, Ra, Ac-Lr                          
  Lars Goerigk           : TD-DFT with DH, B97 family of functionals     
  Stefan Grimme          : VdW corrections, initial TS optimization, DFT functionals, gCP, sTDA/sTD-DF 
  Waldemar Hujo          : DFT-NL                                        
  H. Jonsson             : NEB                                           
  Holger Kruse           : gCP                                           
  Marcel Mueller         : wB97X-3c, vDZP basis set                      
  Hagen Neugebauer       : wr2SCAN                                       
  Tobias Risthaus        : range-separated hybrid DFT                    
  Lukas Wittmann         : regularized MP2, r2SCAN double-hybrids, wr2SCAN        
                                                                         
We gratefully acknowledge several colleagues who have allowed us to      
interface, adapt or use parts of their codes:                            
  Ed Valeev, F. Pavosevic, A. Kumar             : LibInt (2-el integral package), F12 methods 
  Garnet Chan, S. Sharma, J. Yang, R. Olivares  : DMRG                   
  Ulf Ekstrom                                   : XCFun DFT Library      
  Mihaly Kallay                                 : mrcc  (arbitrary order and MRCC methods)
  Frank Weinhold                                : gennbo (NPA and NBO analysis)           
  Simon Mueller                                 : openCOSMO-RS                            
  Christopher J. Cramer and Donald G. Truhlar   : smd solvation model                     
  S Lehtola, MJT Oliveira, MAL Marques          : LibXC Library                           
  Liviu Ungur et al                             : ANISO software                          


 Your calculation uses the libint2 library for the computation of 2-el integrals
 For citations please refer to: http://libint.valeyev.net

 Your ORCA version has been built with support for libXC version: 6.2.2
 For citations please refer to: https://libxc.gitlab.io

 This ORCA versions uses:
   CBLAS   interface :  Fast vector & matrix operations
   LAPACKE interface :  Fast linear algebra routines
   SCALAPACK package :  Parallel linear algebra routines
   Shared memory     :  Shared parallel matrices
   BLAS/LAPACK       :  OpenBLAS 0.3.27  USE64BITINT DYNAMIC_ARCH NO_AFFINITY Zen SINGLE_THREADED
        Core in use  :  Zen
   Copyright (c) 2011-2014, The OpenBLAS Project


Your calculation utilizes the geometrical counterpoise correction gCP
Please cite in your paper:
H.Kruse, S. Grimme J.Chem.Phys., 136, (2012), 154101 
   

Your calculation utilizes the atom-pairwise dispersion correction
based on EEQ partial charges (D4)


================================================================================

----- Orbital basis set information -----
Your calculation utilizes the basis: def2-mTZVPP
   Stefan Grimme, Andreas Hansen, Sebastian Ehlert, and Jan-Michael Mewes 
   J. Chem. Phys. 154, 064103 (2021). DOI: 10.1063/5.0040021

----- AuxJ basis set information -----
Your calculation utilizes the auxiliary basis: def2/J
   F. Weigend, Phys. Chem. Chem. Phys. 8, 1057 (2006).

================================================================================
                                        WARNINGS
                       Please study these warnings very carefully!
================================================================================

WARNING: Old DensityContainer found on disk!
         Will remove this file - 
         If you want to keep old densities, please start your calculation with a different basename. 



WARNING: SCAN, rSCAN, or r2SCAN functional requested.
  ===> : libXC variant has now been activated.



================================================================================
                                       INPUT FILE
================================================================================
NAME = sp.inp
|  1> ! r2scan-3c def2/J RI DEFGRID2 scfconv6 printgap
|  2> %output
|  3>     printlevel normal
|  4> end
|  5> * xyz 0 1
|  6> C -2.5041025336 0.0382404837 -0.0204667576
|  7> C -1.0846023159 -0.5120142128 0.041067264
|  8> C -0.0592218509 0.6051630304 -0.0553682465
|  9> S 1.6333041049 -0.1044876079 0.0197399627
| 10> H -2.6698403012 0.5659191272 -0.9573676577
| 11> H -3.2250189314 -0.7721189418 0.050136435
| 12> H -2.682419352 0.7302906956 0.7999097122
| 13> H -0.9238096431 -1.2162008057 -0.7781550413
| 14> H -0.936567832 -1.0529660753 0.9782617364
| 15> H -0.1531322144 1.1407526249 -1.0005119088
| 16> H -0.1637519564 1.3036427847 0.7754016131
| 17> H 2.2730619059 1.0585492408 -0.0812554786
| 18> *
| 19> 
| 20>                          ****END OF INPUT****
================================================================================

                       ****************************
                       * Single Point Calculation *
                       ****************************

---------------------------------
CARTESIAN COORDINATES (ANGSTROEM)
---------------------------------
  C     -2.504103    0.038240   -0.020467
  C     -1.084602   -0.512014    0.041067
  C     -0.059222    0.605163   -0.055368
  S      1.633304   -0.104488    0.019740
  H     -2.669840    0.565919   -0.957368
  H     -3.225019   -0.772119    0.050136
  H     -2.682419    0.730291    0.799910
  H     -0.923810   -1.216201   -0.778155
  H     -0.936568   -1.052966    0.978262
  H     -0.153132    1.140753   -1.000512
  H     -0.163752    1.303643    0.775402
  H      2.273062    1.058549   -0.081255

----------------------------
CARTESIAN COORDINATES (A.U.)
----------------------------
  NO LB      ZA    FRAG     MASS         X           Y           Z
   0 C     6.0000    0    12.011   -4.732068    0.072264   -0.038677
   1 C     6.0000    0    12.011   -2.049601   -0.967567    0.077606
   2 C     6.0000    0    12.011   -0.111913    1.143592   -0.104631
   3 S    16.0000    0    32.060    3.086497   -0.197453    0.037303
   4 H     1.0000    0     1.008   -5.045267    1.069432   -1.809163
   5 H     1.0000    0     1.008   -6.094403   -1.459093    0.094744
   6 H     1.0000    0     1.008   -5.069038    1.380049    1.511610
   7 H     1.0000    0     1.008   -1.745747   -2.298286   -1.470500
   8 H     1.0000    0     1.008   -1.769857   -1.989818    1.848647
   9 H     1.0000    0     1.008   -0.289378    2.155710   -1.890694
  10 H     1.0000    0     1.008   -0.309446    2.463528    1.465297
  11 H     1.0000    0     1.008    4.295464    2.000368   -0.153551

--------------------------------
INTERNAL COORDINATES (ANGSTROEM)
--------------------------------
 C      0   0   0     0.000000000000     0.00000000     0.00000000
 C      1   0   0     1.523662539700     0.00000000     0.00000000
 C      2   1   0     1.519470269013   111.13744752     0.00000000
 S      3   2   1     1.836815010442   109.58243355   180.10690844
 H      1   2   3     1.087978425808   110.60079818    60.09126758
 H      1   2   3     1.086916584619   110.24594349   180.02717192
 H      1   2   3     1.088001808692   110.60660685   299.97025512
 H      2   1   3     1.092180491836   109.85923721   239.16902541
 H      2   1   3     1.092188905393   109.86451250   120.83891693
 H      3   2   1     1.090399886507   110.97945138   298.96420316
 H      3   2   1     1.090403168439   110.97296977    61.24686675
 H      4   3   2     1.331219303698    95.86519782   180.08299037

---------------------------
INTERNAL COORDINATES (A.U.)
---------------------------
 C      0   0   0     0.000000000000     0.00000000     0.00000000
 C      1   0   0     2.879304920548     0.00000000     0.00000000
 C      2   1   0     2.871382677069   111.13744752     0.00000000
 S      3   2   1     3.471077328411   109.58243355   180.10690844
 H      1   2   3     2.055981264392   110.60079818    60.09126758
 H      1   2   3     2.053974675346   110.24594349   180.02717192
 H      1   2   3     2.056025451638   110.60660685   299.97025512
 H      2   1   3     2.063922018382   109.85923721   239.16902541
 H      2   1   3     2.063937917699   109.86451250   120.83891693
 H      3   2   1     2.060557161958   110.97945138   298.96420316
 H      3   2   1     2.060563363910   110.97296977    61.24686675
 H      4   3   2     2.515639908178    95.86519782   180.08299037

---------------------
BASIS SET INFORMATION
---------------------
There are 3 groups of distinct atoms

 Group   1 Type C   : 11s6p1d contracted to 5s3p1d pattern {62111/411/1}
 Group   2 Type S   : 14s9p2d contracted to 5s4p2d pattern {73211/6111/11}
 Group   3 Type H   : 4s1p contracted to 2s1p pattern {31/1}

Atom   0C    basis set group =>   1
Atom   1C    basis set group =>   1
Atom   2C    basis set group =>   1
Atom   3S    basis set group =>   2
Atom   4H    basis set group =>   3
Atom   5H    basis set group =>   3
Atom   6H    basis set group =>   3
Atom   7H    basis set group =>   3
Atom   8H    basis set group =>   3
Atom   9H    basis set group =>   3
Atom  10H    basis set group =>   3
Atom  11H    basis set group =>   3
---------------------------------
AUXILIARY/J BASIS SET INFORMATION
---------------------------------
There are 3 groups of distinct atoms

 Group   1 Type C   : 12s5p4d2f1g contracted to 6s4p3d1f1g pattern {711111/2111/211/2/1}
 Group   2 Type S   : 14s5p5d2f1g contracted to 8s4p3d1f1g pattern {71111111/2111/311/2/1}
 Group   3 Type H   : 5s2p1d contracted to 3s1p1d pattern {311/2/1}

Atom   0C    basis set group =>   1
Atom   1C    basis set group =>   1
Atom   2C    basis set group =>   1
Atom   3S    basis set group =>   2
Atom   4H    basis set group =>   3
Atom   5H    basis set group =>   3
Atom   6H    basis set group =>   3
Atom   7H    basis set group =>   3
Atom   8H    basis set group =>   3
Atom   9H    basis set group =>   3
Atom  10H    basis set group =>   3
Atom  11H    basis set group =>   3

Checking for AutoStart:
The File: sp.gbw exists
Trying to determine its content:
     ... Fine, the file contains calculation information
     ... Fine, the calculation information was read
     ... Fine, the file contains a basis set
     ... Fine, the basis set was read
     ... Fine, the file contains a geometry
     ... Fine, the geometry was read
     ... Fine, the file contains a set of orbitals
     ... Fine, the orbitals can be read
     => possible old guess file was deleted
     => GBW file was renamed to GES file
     => GES file is set as startup file
     => Guess is set to MORead
     ... now leaving AutoStart

------------------------------------------------------------------------------
                             ORCA STARTUP CALCULATIONS
                           -- RI-GTO INTEGRALS CHOSEN --
------------------------------------------------------------------------------
------------------------------------------------------------------------------
                   ___                                                        
                  /   \      - P O W E R E D   B Y -                         
                 /     \                                                     
                 |  |  |   _    _      __       _____    __    __             
                 |  |  |  | |  | |    /  \     |  _  \  |  |  /  |          
                  \  \/   | |  | |   /    \    | | | |  |  | /  /          
                 / \  \   | |__| |  /  /\  \   | |_| |  |  |/  /          
                |  |  |   |  __  | /  /__\  \  |    /   |      \           
                |  |  |   | |  | | |   __   |  |    \   |  |\   \          
                \     /   | |  | | |  |  |  |  | |\  \  |  | \   \       
                 \___/    |_|  |_| |__|  |__|  |_| \__\ |__|  \__/        
                                                                              
                      - O R C A' S   B I G   F R I E N D -                    
                                      &                                       
                       - I N T E G R A L  F E E D E R -                       
                                                                              
 v1 FN, 2020, v2 2021, v3 2022-2024                                           
------------------------------------------------------------------------------


----------------------
SHARK INTEGRAL PACKAGE
----------------------

Number of atoms                             ...     12
Number of basis functions                   ...    124
Number of shells                            ...     62
Maximum angular momentum                    ...      2
Integral batch strategy                     ... SHARK/LIBINT Hybrid
RI-J (if used) integral strategy            ... SPLIT-RIJ (Revised 2003 algorithm where possible)
Printlevel                                  ...      1
Contraction scheme used                     ... SEGMENTED contraction
Prescreening option                         ... SCHWARTZ
   Thresh                                   ... 1.000e-10
   Tcut                                     ... 1.000e-11
   Tpresel                                  ... 1.000e-11 
Coulomb Range Separation                    ... NOT USED
Exchange Range Separation                   ... NOT USED
Multipole approximations                    ... NOT USED
Finite Nucleus Model                        ... NOT USED
CABS basis                                  ... NOT available
Auxiliary Coulomb fitting basis             ... AVAILABLE
   # of basis functions in Aux-J            ...    286
   # of shells in Aux-J                     ...    102
   Maximum angular momentum in Aux-J        ...      4
Auxiliary J/K fitting basis                 ... NOT available
Auxiliary Correlation fitting basis         ... NOT available
Auxiliary 'external' fitting basis          ... NOT available

Checking pre-screening integrals            ... done (  0.0 sec) Dimension = 62
Check shell pair data                       ... done (  0.0 sec)
Shell pair information
Shell pair cut-off parameter TPreSel        ...   1.0e-11
Total number of shell pairs                 ...      1953
Shell pairs after pre-screening             ...      1851
Total number of primitive shell pairs       ...      7270
Primitive shell pairs kept                  ...      5278
          la=0 lb=0:    623 shell pairs
          la=1 lb=0:    717 shell pairs
          la=1 lb=1:    220 shell pairs
          la=2 lb=0:    174 shell pairs
          la=2 lb=1:    102 shell pairs
          la=2 lb=2:     15 shell pairs

Calculating one electron integrals          ... done (  0.0 sec)
Calculating RI/J V-Matrix + Cholesky decomp.... done (  0.0 sec)
Calculating Nuclear repulsion               ... done (  0.0 sec) ENN=    163.264949213614 Eh

Diagonalization of the overlap matrix:
Smallest eigenvalue                        ... 4.229e-04
Time for diagonalization                   ...    0.001 sec
Threshold for overlap eigenvalues          ... 1.000e-07
Number of eigenvalues below threshold      ... 0
Time for construction of square roots      ...    0.000 sec
Total time needed                          ...    0.003 sec

-------------------
DFT GRID GENERATION
-------------------

General Integration Accuracy     IntAcc      ... 4.388
Radial Grid Type                 RadialGrid  ... OptM3 with GC (2021)
Angular Grid (max. ang.)         AngularGrid ... 4 (Lebedev-302)
Angular grid pruning method      GridPruning ... 4 (adaptive)
Weight generation scheme         WeightScheme... mBecke (2022)
Basis function cutoff            BFCut       ... 1.0000e-10
Integration weight cutoff        WCut        ... 1.0000e-14
Partially contracted basis set               ... off
Rotationally invariant grid construction     ... off
Angular grids for H and He will be reduced by one unit

Total number of grid points                  ...    51312
Total number of batches                      ...      807
Average number of points per batch           ...       63
Average number of grid points per atom       ...     4276
Initializing property integral containers    ... done (  0.0 sec)

SHARK setup successfully completed in   0.3 seconds

Maximum memory used throughout the entire STARTUP-calculation: 22.6 MB
-------------------------------------------------------------------------------
                                 ORCA GUESS
                   Start orbitals & Density for SCF / CASSCF
-------------------------------------------------------------------------------

------------
SCF SETTINGS
------------
Hamiltonian:
 Density Functional     Method          .... DFT(GTOs)
  Functional kind                       .... Exchange
  Functional name                       .... Re-regularized SCAN exchange by Furness et al
  Functional family                     .... MGGA
  Functional refs                              
    [ 0] J. W. Furness, A. D. Kaplan, J. Ning, J. P. Perdew, and J. Sun.,  J. Phys. Chem. Lett. 11, 8208-8215 (2020), doi: 10.1021/acs.jpclett.0c02405
    [ 1] J. W. Furness, A. D. Kaplan, J. Ning, J. P. Perdew, and J. Sun.,  J. Phys. Chem. Lett. 11, 9248-9248 (2020), doi: 10.1021/acs.jpclett.0c03077
  Functional external parameters        .... 6
    Parameter  0 _c1        =  6.670000e-01 : c1 parameter        
    Parameter  1 _c2        =  8.000000e-01 : c2 parameter        
    Parameter  2 _d         =  1.240000e+00 : d parameter         
    Parameter  3 _k1        =  6.500000e-02 : k1 parameter        
    Parameter  4 _eta       =  1.000000e-03 : eta parameter       
    Parameter  5 _dp2       =  3.610000e-01 : dp2 parameter       
  Functional kind                       .... Correlation
  Functional name                       .... Re-regularized SCAN correlation by Furness et al
  Functional family                     .... MGGA
  Functional refs                              
    [ 0] J. W. Furness, A. D. Kaplan, J. Ning, J. P. Perdew, and J. Sun.,  J. Phys. Chem. Lett. 11, 8208-8215 (2020), doi: 10.1021/acs.jpclett.0c02405
    [ 1] J. W. Furness, A. D. Kaplan, J. Ning, J. P. Perdew, and J. Sun.,  J. Phys. Chem. Lett. 11, 9248-9248 (2020), doi: 10.1021/acs.jpclett.0c03077
  Functional external parameters        .... 1
    Parameter  0 _eta       =  1.000000e-03 : Regularization parameter
 Gradients option       PostSCFGGA      .... off
 RI-approximation to the Coulomb term is turned on
   Number of AuxJ basis functions       .... 286


General Settings:
 Integral files         IntName         .... sp
 Hartree-Fock type      HFTyp           .... RHF
 Total Charge           Charge          ....    0
 Multiplicity           Mult            ....    1
 Number of Electrons    NEL             ....   42
 Basis Dimension        Dim             ....  124
 Nuclear Repulsion      ENuc            ....    163.2649492136 Eh

Convergence Acceleration:
 AO-DIIS                CNVDIIS         .... on
   Start iteration      DIISMaxIt       ....    12
   Startup error        DIISStart       ....  0.200000
   # of expansion vecs  DIISMaxEq       ....     5
   Bias factor          DIISBfac        ....   1.050
   Max. coefficient     DIISMaxC        ....  10.000
 MO-DIIS                CNVKDIIS        .... off
 Trust-Rad. Augm. Hess. CNVTRAH         .... auto
   Auto Start mean grad. ratio tolernc. ....  1.125000
   Auto Start start iteration           ....     1
   Auto Start num. interpolation iter.  ....    10
   Max. Number of Micro iterations      ....    24
   Max. Number of Macro iterations      .... Maxiter - #DIIS iter
   Number of Davidson start vectors     ....     2
   Converg. threshold    (grad. norm)   ....   3.330e-04
   Grad. Scal. Fac. for Micro threshold ....   0.100
   Minimum threshold for Micro iter.    ....   1.000e-02
   NR start threshold (gradient norm)   ....   1.000e-04
   Initial trust radius                 ....   0.400
   Minimum AH scaling param. (alpha)    ....   1.000
   Maximum AH scaling param. (alpha)    .... 1000.000
   Quad. conv. algorithm                .... NR
   White noise on init. David. guess    .... on
   Maximum white noise                  ....   0.010
   Pseudo random numbers                .... off
   Inactive MOs                         .... canonical
   Orbital update algorithm             .... Taylor
   Preconditioner                       .... Diag
   Full preconditioner red. dimension   ....   250
   COSX micro iterations for RIJONX calc.... off
 SOSCF                  CNVSOSCF        .... on
   Start iteration      SOSCFMaxIt      ....   150
   Startup grad/error   SOSCFStart      ....  0.003300
   Hessian update       SOSCFHessUp     .... L-BFGS
 Level Shifting         CNVShift        .... on
   Level shift para.    LevelShift      ....    0.2500
   Turn off err/grad.   ShiftErr        ....    0.0010
 Zerner damping         CNVZerner       .... off
 Static damping         CNVDamp         .... on
   Fraction old density DampFac         ....    0.7000
   Max. Damping (<1)    DampMax         ....    0.9800
   Min. Damping (>=0)   DampMin         ....    0.0000
   Turn off err/grad.   DampErr         ....    0.1000

SCF Procedure:
 Maximum # iterations   MaxIter         ....   125
 SCF integral mode      SCFMode         .... Direct
   Integral package                     .... SHARK and LIBINT hybrid scheme
 Reset frequency        DirectResetFreq ....    20
 Integral Threshold     Thresh          ....  1.000e-10 Eh
 Primitive CutOff       TCut            ....  1.000e-11 Eh

Convergence Tolerance:
 Convergence Check Mode ConvCheckMode   .... Total+1el-Energy
 Convergence forced     ConvForced      .... 0
 Energy Change          TolE            ....  1.000e-06 Eh
 1-El. energy change                    ....  1.000e-03 Eh
 Orbital Gradient       TolG            ....  3.330e-04
 Orbital Rotation angle TolX            ....  3.330e-04
 DIIS Error             TolErr          ....  1.000e-06

---------------------
INITIAL GUESS: MOREAD
---------------------
Guess MOs are being read from file: sp.ges
Input Geometry matches current geometry (good)
Atom 0: N(Shells)= 9 and 6 - projection required
Input basis set needs projection
NBasis(read)= 76
NBasis(calc)= 124
Basis set overlap was calculated
Using GuessMode=FMatrix for the initial guess
C*T matrix was formed
Effective Fockian was calculated
Effective Fockian was diagonalized
Initial density was built
                      ------------------
                      INITIAL GUESS DONE (   0.0 sec)
                      ------------------
             **** ENERGY FILE WAS UPDATED (sp.en.tmp) ****
Finished Guess after   0.0 sec
Maximum memory used throughout the entire GUESS-calculation: 9.1 MB

-------------------------------------------------------------------------------------------
                                      ORCA LEAN-SCF
                              memory conserving SCF solver
-------------------------------------------------------------------------------------------

----------------------------------------D-I-I-S--------------------------------------------
Iteration    Energy (Eh)           Delta-E    RMSDP     MaxDP     DIISErr   Damp  Time(sec)
-------------------------------------------------------------------------------------------
               ***  Starting incremental Fock matrix formation  ***
    1    -517.1722260548365284     0.00e+00  3.46e-03  8.27e-02  4.67e-01  0.700   0.4
    2    -517.1989530542749662    -2.67e-02  2.89e-03  6.92e-02  3.27e-01  0.700   0.4
    3    -517.2179401599315725    -1.90e-02  2.15e-03  5.09e-02  2.29e-01  0.700   0.4
                               ***Turning on AO-DIIS***
    4    -517.2312892525918642    -1.33e-02  1.58e-03  3.67e-02  1.60e-01  0.700   0.4
    5    -517.2406618645295566    -9.37e-03  1.13e-03  2.59e-02  1.12e-01  0.700   0.4
    6    -517.2472387049290319    -6.58e-03  8.03e-04  1.83e-02  7.85e-02  0.700   0.4
    7    -517.2518512860508508    -4.61e-03  1.89e-03  4.28e-02  5.49e-02  0.000   0.4
                              *** Initializing SOSCF ***
---------------------------------------S-O-S-C-F--------------------------------------
Iteration    Energy (Eh)           Delta-E    RMSDP     MaxDP     MaxGrad    Time(sec)
--------------------------------------------------------------------------------------
    8    -517.2626416562241047    -1.08e-02  1.49e-05  3.90e-04  2.53e-04     0.4
               *** Restarting incremental Fock matrix formation ***
    9    -517.2626418037037865    -1.47e-07  9.93e-06  1.53e-04  5.76e-05     0.4
                  *** Gradient check signals convergence ***

               *****************************************************
               *                     SUCCESS                       *
               *           SCF CONVERGED AFTER   9 CYCLES          *
               *****************************************************

             **** ENERGY FILE WAS UPDATED (sp.en.tmp) ****

----------------
TOTAL SCF ENERGY
----------------

Total Energy       :       -517.26264180370379 Eh          -14075.43206 eV

Components:
Nuclear Repulsion  :        163.26494921361413 Eh            4442.66513 eV
Electronic Energy  :       -680.52759101731795 Eh          -18518.09719 eV
One Electron Energy:      -1032.88549897380153 Eh          -28106.24332 eV
Two Electron Energy:        352.35790795648364 Eh            9588.14613 eV

Virial components:
Potential Energy   :      -1032.94526412916548 Eh          -28107.86961 eV
Kinetic Energy     :        515.68262232546169 Eh           14032.43755 eV
Virial Ratio       :          2.00306393779786

DFT components:
N(Alpha)           :       20.999981205306 electrons
N(Beta)            :       20.999981205306 electrons
N(Total)           :       41.999962410611 electrons
E(X)               :      -43.480588417599 Eh       
E(C)               :       -1.401713567797 Eh       
E(XC)              :      -44.882301985396 Eh       

---------------
SCF CONVERGENCE
---------------

  Last Energy change         ...    1.4748e-07  Tolerance :   1.0000e-06
  Last MAX-Density change    ...    1.5314e-04  Tolerance :   1.0000e-05
  Last RMS-Density change    ...    9.9338e-06  Tolerance :   1.0000e-06
  Last DIIS Error            ...    2.5278e-04  Tolerance :   1.0000e-06
  Last Orbital Gradient      ...    5.7583e-05  Tolerance :   3.3300e-04
  Last Orbital Rotation      ...    1.1040e-04  Tolerance :   3.3300e-04


----------------
ORBITAL ENERGIES
----------------

  NO   OCC          E(Eh)            E(eV) 
   0   2.0000     -88.548968     -2409.5399 
   1   2.0000     -10.064555      -273.8705 
   2   2.0000     -10.038974      -273.1744 
   3   2.0000     -10.026905      -272.8459 
   4   2.0000      -7.844007      -213.4463 
   5   2.0000      -5.791096      -157.5837 
   6   2.0000      -5.787613      -157.4890 
   7   2.0000      -5.781015      -157.3094 
   8   2.0000      -0.779844       -21.2206 
   9   2.0000      -0.708211       -19.2714 
  10   2.0000      -0.618579       -16.8324 
  11   2.0000      -0.556547       -15.1444 
  12   2.0000      -0.448243       -12.1973 
  13   2.0000      -0.415425       -11.3043 
  14   2.0000      -0.401627       -10.9288 
  15   2.0000      -0.374597       -10.1933 
  16   2.0000      -0.335303        -9.1240 
  17   2.0000      -0.318141        -8.6571 
  18   2.0000      -0.312745        -8.5102 
  19   2.0000      -0.298076        -8.1111 
  20   2.0000      -0.207441        -5.6447 
  21   0.0000       0.009571         0.2604 
  22   0.0000       0.056323         1.5326 
  23   0.0000       0.101398         2.7592 
  24   0.0000       0.124590         3.3903 
  25   0.0000       0.137057         3.7295 
  26   0.0000       0.142867         3.8876 
  27   0.0000       0.151390         4.1195 
  28   0.0000       0.164664         4.4807 
  29   0.0000       0.179619         4.8877 
  30   0.0000       0.193621         5.2687 
  31   0.0000       0.204650         5.5688 
*Only the first 10 virtual orbitals were printed.

                    ********************************
                    * MULLIKEN POPULATION ANALYSIS *
                    ********************************

-----------------------
MULLIKEN ATOMIC CHARGES
-----------------------
   0 C :   -0.456295
   1 C :   -0.249037
   2 C :   -0.200420
   3 S :   -0.266662
   4 H :    0.142163
   5 H :    0.150670
   6 H :    0.142140
   7 H :    0.147934
   8 H :    0.147973
   9 H :    0.152937
  10 H :    0.152993
  11 H :    0.135605
Sum of atomic charges:   -0.0000000

--------------------------------
MULLIKEN REDUCED ORBITAL CHARGES
--------------------------------
  0 C s       :     3.316058  s :     3.316058
      pz      :     1.075646  p :     3.113280
      px      :     0.963367
      py      :     1.074267
      dz2     :     0.005004  d :     0.026958
      dxz     :     0.003070
      dyz     :     0.006762
      dx2y2   :     0.004475
      dxy     :     0.007646

  1 C s       :     3.218443  s :     3.218443
      pz      :     1.104028  p :     2.993376
      px      :     0.911814
      py      :     0.977533
      dz2     :     0.005914  d :     0.037219
      dxz     :     0.004340
      dyz     :     0.009637
      dx2y2   :     0.007369
      dxy     :     0.009960

  2 C s       :     3.214776  s :     3.214776
      pz      :     1.092611  p :     2.949779
      px      :     0.861340
      py      :     0.995829
      dz2     :     0.005738  d :     0.035865
      dxz     :     0.004812
      dyz     :     0.010284
      dx2y2   :     0.007055
      dxy     :     0.007977

  3 S s       :     5.873429  s :     5.873429
      pz      :     3.962080  p :    10.303603
      px      :     3.033190
      py      :     3.308333
      dz2     :     0.013512  d :     0.089631
      dxz     :     0.008919
      dyz     :     0.006704
      dx2y2   :     0.022791
      dxy     :     0.037704

  4 H s       :     0.839578  s :     0.839578
      pz      :     0.009019  p :     0.018258
      px      :     0.003768
      py      :     0.005471

  5 H s       :     0.830975  s :     0.830975
      pz      :     0.003774  p :     0.018355
      px      :     0.006994
      py      :     0.007587

  6 H s       :     0.839603  s :     0.839603
      pz      :     0.007753  p :     0.018258
      px      :     0.003798
      py      :     0.006707

  7 H s       :     0.834248  s :     0.834248
      pz      :     0.007641  p :     0.017817
      px      :     0.003502
      py      :     0.006674

  8 H s       :     0.834210  s :     0.834210
      pz      :     0.008973  p :     0.017816
      px      :     0.003476
      py      :     0.005368

  9 H s       :     0.828887  s :     0.828887
      pz      :     0.009333  p :     0.018176
      px      :     0.003503
      py      :     0.005339

 10 H s       :     0.828831  s :     0.828831
      pz      :     0.007964  p :     0.018175
      px      :     0.003515
      py      :     0.006696

 11 H s       :     0.843893  s :     0.843893
      pz      :     0.006366  p :     0.020502
      px      :     0.004689
      py      :     0.009447


------------------------
MULLIKEN OVERLAP CHARGES
------------------------
B(  0-C ,  1-C ) :   0.4890 B(  0-C ,  2-C ) :  -0.1542 B(  0-C ,  4-H ) :   0.8435 
B(  0-C ,  5-H ) :   0.8043 B(  0-C ,  6-H ) :   0.8435 B(  0-C ,  7-H ) :  -0.0590 
B(  0-C ,  8-H ) :  -0.0588 B(  1-C ,  2-C ) :   0.4899 B(  1-C ,  3-S ) :  -0.0894 
B(  1-C ,  4-H ) :  -0.0861 B(  1-C ,  5-H ) :  -0.0746 B(  1-C ,  6-H ) :  -0.0862 
B(  1-C ,  7-H ) :   0.8317 B(  1-C ,  8-H ) :   0.8314 B(  1-C ,  9-H ) :  -0.0803 
B(  1-C , 10-H ) :  -0.0798 B(  2-C ,  3-S ) :   0.4686 B(  2-C ,  7-H ) :  -0.0768 
B(  2-C ,  8-H ) :  -0.0765 B(  2-C ,  9-H ) :   0.8542 B(  2-C , 10-H ) :   0.8541 
B(  2-C , 11-H ) :  -0.0584 B(  3-S ,  9-H ) :  -0.0968 B(  3-S , 10-H ) :  -0.0966 
B(  3-S , 11-H ) :   0.6418 B(  4-H ,  6-H ) :  -0.0532 B(  7-H ,  8-H ) :  -0.0510 
B(  9-H , 10-H ) :  -0.0706 


                     *******************************
                     * LOEWDIN POPULATION ANALYSIS *
                     *******************************

----------------------
LOEWDIN ATOMIC CHARGES
----------------------
   0 C :   -0.421747
   1 C :   -0.324277
   2 C :   -0.355617
   3 S :   -0.112061
   4 H :    0.151248
   5 H :    0.154053
   6 H :    0.151253
   7 H :    0.156805
   8 H :    0.156820
   9 H :    0.157858
  10 H :    0.157873
  11 H :    0.127792

-------------------------------
LOEWDIN REDUCED ORBITAL CHARGES
-------------------------------
  0 C s       :     2.974160  s :     2.974160
      pz      :     1.156995  p :     3.384417
      px      :     1.079620
      py      :     1.147803
      dz2     :     0.012589  d :     0.063169
      dxz     :     0.005853
      dyz     :     0.017007
      dx2y2   :     0.009851
      dxy     :     0.017870

  1 C s       :     2.943004  s :     2.943004
      pz      :     1.151288  p :     3.300611
      px      :     1.055096
      py      :     1.094227
      dz2     :     0.013959  d :     0.080662
      dxz     :     0.007414
      dyz     :     0.022326
      dx2y2   :     0.015130
      dxy     :     0.021833

  2 C s       :     2.977121  s :     2.977121
      pz      :     1.154117  p :     3.297864
      px      :     1.033888
      py      :     1.109859
      dz2     :     0.013521  d :     0.080633
      dxz     :     0.009157
      dyz     :     0.024226
      dx2y2   :     0.014688
      dxy     :     0.019041

  3 S s       :     5.512185  s :     5.512185
      pz      :     3.926245  p :    10.371312
      px      :     3.072587
      py      :     3.372480
      dz2     :     0.033042  d :     0.228565
      dxz     :     0.030492
      dyz     :     0.014043
      dx2y2   :     0.055958
      dxy     :     0.095030

  4 H s       :     0.805387  s :     0.805387
      pz      :     0.022306  p :     0.043365
      px      :     0.008386
      py      :     0.012672

  5 H s       :     0.802352  s :     0.802352
      pz      :     0.008170  p :     0.043594
      px      :     0.016688
      py      :     0.018736

  6 H s       :     0.805386  s :     0.805386
      pz      :     0.018959  p :     0.043362
      px      :     0.008459
      py      :     0.015944

  7 H s       :     0.799902  s :     0.799902
      pz      :     0.018986  p :     0.043292
      px      :     0.008147
      py      :     0.016160

  8 H s       :     0.799887  s :     0.799887
      pz      :     0.022425  p :     0.043293
      px      :     0.008084
      py      :     0.012784

  9 H s       :     0.797834  s :     0.797834
      pz      :     0.023466  p :     0.044308
      px      :     0.008033
      py      :     0.012809

 10 H s       :     0.797820  s :     0.797820
      pz      :     0.019944  p :     0.044308
      px      :     0.008074
      py      :     0.016289

 11 H s       :     0.816369  s :     0.816369
      pz      :     0.014957  p :     0.055839
      px      :     0.011666
      py      :     0.029216


---------------------------------
LOEWDIN BOND ORDERS (THRESH 0.050000)
---------------------------------
B(  0-C ,  1-C ) :   1.1401 B(  0-C ,  2-C ) :   0.0769 B(  0-C ,  4-H ) :   0.9293 
B(  0-C ,  5-H ) :   0.9276 B(  0-C ,  6-H ) :   0.9292 B(  1-C ,  2-C ) :   1.1050 
B(  1-C ,  3-S ) :   0.1348 B(  1-C ,  7-H ) :   0.8947 B(  1-C ,  8-H ) :   0.8947 
B(  2-C ,  3-S ) :   1.3549 B(  2-C ,  9-H ) :   0.8836 B(  2-C , 10-H ) :   0.8836 
B(  3-S ,  9-H ) :   0.0630 B(  3-S , 10-H ) :   0.0629 B(  3-S , 11-H ) :   0.9980 


------------------------------------------
LOEWDIN REDUCED ORBITAL POPULATIONS PER MO
-------------------------------------------
THRESHOLD FOR PRINTING IS 0.1%%
                      0         1         2         3         4         5   
                 -88.54897 -10.06456 -10.03897 -10.02690  -7.84401  -5.79110
                   2.00000   2.00000   2.00000   2.00000   2.00000   2.00000
                  --------  --------  --------  --------  --------  --------
 0 C  s               0.0       0.0       0.0      99.7       0.0       0.0
 1 C  s               0.0       0.0      99.7       0.0       0.0       0.0
 2 C  s               0.0      99.7       0.0       0.0       0.0       0.0
 2 C  px              0.0       0.0       0.0       0.0       0.1       0.0
 3 S  s             100.0       0.0       0.0       0.0      99.7       0.0
 3 S  px              0.0       0.0       0.0       0.0       0.0      94.6
 3 S  py              0.0       0.0       0.0       0.0       0.0       5.4

                      6         7         8         9        10        11   
                  -5.78761  -5.78102  -0.77984  -0.70821  -0.61858  -0.55655
                   2.00000   2.00000   2.00000   2.00000   2.00000   2.00000
                  --------  --------  --------  --------  --------  --------
 0 C  s               0.0       0.0       9.7      18.9      15.8       3.3
 0 C  px              0.0       0.0       2.8       0.3       3.2       3.3
 0 C  py              0.0       0.0       0.1       0.2       0.1       3.4
 1 C  s               0.0       0.0      23.1       7.0       3.5      12.0
 1 C  px              0.0       0.0       0.3       7.5       7.7       0.2
 1 C  py              0.0       0.0       2.0       0.0       0.1      11.1
 1 C  dz2             0.0       0.0       0.1       0.0       0.0       0.1
 1 C  dxy             0.0       0.0       0.0       0.1       0.2       0.0
 2 C  s               0.0       0.0      25.3       4.8       7.4       9.6
 2 C  pz              0.0       0.0       0.0       0.0       0.0       0.1
 2 C  px              0.0       0.0       0.0      10.8       5.7       0.1
 2 C  py              0.0       0.0       1.9       0.1       0.1      11.9
 2 C  dz2             0.0       0.0       0.1       0.0       0.0       0.1
 2 C  dx2y2           0.0       0.0       0.0       0.0       0.1       0.0
 2 C  dxy             0.0       0.0       0.0       0.2       0.1       0.0
 3 S  s               0.0       0.0      10.8      26.4      20.7       4.4
 3 S  pz              0.8      99.2       0.0       0.0       0.0       0.0
 3 S  px              5.4       0.0       2.2       0.2       3.5       1.8
 3 S  py             93.8       0.8       0.5       1.1       0.5       0.5
 3 S  dz2             0.0       0.0       0.4       0.1       0.1       0.0
 3 S  dx2y2           0.0       0.0       0.4       0.0       0.6       0.0
 3 S  dxy             0.0       0.0       0.2       0.1       0.4       1.2
 4 H  s               0.0       0.0       1.3       3.3       4.5       2.4
 4 H  pz              0.0       0.0       0.1       0.2       0.3       0.1
 5 H  s               0.0       0.0       1.2       3.5       5.4       1.0
 5 H  px              0.0       0.0       0.1       0.1       0.1       0.0
 5 H  py              0.0       0.0       0.0       0.2       0.3       0.1
 6 H  s               0.0       0.0       1.3       3.3       4.5       2.4
 6 H  pz              0.0       0.0       0.1       0.2       0.2       0.1
 6 H  py              0.0       0.0       0.0       0.1       0.1       0.0
 7 H  s               0.0       0.0       3.0       1.2       1.0       7.0
 7 H  pz              0.0       0.0       0.2       0.1       0.1       0.4
 7 H  py              0.0       0.0       0.1       0.0       0.0       0.1
 8 H  s               0.0       0.0       3.0       1.2       1.0       7.0
 8 H  pz              0.0       0.0       0.2       0.1       0.1       0.4
 9 H  s               0.0       0.0       3.4       0.9       2.0       6.4
 9 H  pz              0.0       0.0       0.2       0.1       0.1       0.4
10 H  s               0.0       0.0       3.4       0.9       2.0       6.4
10 H  pz              0.0       0.0       0.2       0.0       0.1       0.3
10 H  py              0.0       0.0       0.1       0.0       0.1       0.1
11 H  s               0.0       0.0       1.8       5.8       7.4       1.3
11 H  px              0.0       0.0       0.1       0.1       0.1       0.0
11 H  py              0.0       0.0       0.1       0.4       0.5       0.1

                     12        13        14        15        16        17   
                  -0.44824  -0.41542  -0.40163  -0.37460  -0.33530  -0.31814
                   2.00000   2.00000   2.00000   2.00000   2.00000   2.00000
                  --------  --------  --------  --------  --------  --------
 0 C  s               0.0       0.4       0.0       0.0       0.4       0.1
 0 C  pz             13.1       0.0       0.2      30.1       0.2       0.0
 0 C  px              0.0      13.8       3.2       0.0      10.3      13.7
 0 C  py              0.1       0.2      28.1       0.3      17.4       6.9
 0 C  dz2             0.0       0.0       0.1       0.0       0.3       0.1
 0 C  dyz             0.0       0.0       0.0       0.2       0.0       0.0
 0 C  dx2y2           0.0       0.1       0.0       0.0       0.2       0.0
 0 C  dxy             0.0       0.1       0.0       0.0       0.0       0.6
 1 C  s               0.0       0.9       0.1       0.0       0.2       0.1
 1 C  pz             28.6       0.0       0.1       2.3       0.1       0.1
 1 C  px              0.0       6.8       3.4       0.0      12.5      13.1
 1 C  py              0.2       2.7      14.1       0.0      12.2       7.9
 1 C  dz2             0.0       0.0       0.1       0.0       0.3       0.1
 1 C  dxz             0.0       0.0       0.0       0.2       0.0       0.0
 1 C  dx2y2           0.0       0.1       0.0       0.0       0.3       0.0
 1 C  dxy             0.0       0.1       0.0       0.0       0.0       0.7
 2 C  s               0.0       0.3       0.3       0.0       0.0       0.8
 2 C  pz             25.5       0.1       0.1      24.3       0.0       0.1
 2 C  px              0.0       8.4       4.3       0.0       0.3      14.3
 2 C  py              0.2      10.6      12.4       0.2       0.5       7.6
 2 C  dz2             0.0       0.1       0.1       0.0       0.0       0.0
 2 C  dyz             0.0       0.0       0.0       0.3       0.0       0.0
 2 C  dx2y2           0.0       0.0       0.0       0.0       0.1       0.0
 2 C  dxy             0.0       0.2       0.0       0.0       0.0       0.3
 3 S  s               0.0       0.3       1.7       0.0       4.4       0.4
 3 S  pz              1.8       0.1       0.0       3.7       0.1       0.0
 3 S  px              0.0      23.2       0.1       0.0       0.8       8.2
 3 S  py              0.0       9.1       4.6       0.0      13.4       0.8
 3 S  dz2             0.0       0.0       0.0       0.0       0.4       0.2
 3 S  dxz             0.6       0.0       0.0       0.6       0.0       0.0
 3 S  dyz             0.1       0.0       0.0       0.3       0.0       0.0
 3 S  dx2y2           0.0       1.2       0.2       0.0       0.1       0.3
 3 S  dxy             0.0       0.7       0.3       0.0       0.5       1.3
 4 H  s               2.8       0.3       3.0       9.1       4.3       1.0
 4 H  pz              0.0       0.0       0.1       0.1       0.1       0.0
 4 H  px              0.0       0.1       0.1       0.0       0.1       0.1
 4 H  py              0.1       0.0       0.0       0.2       0.0       0.0
 5 H  s               0.0       4.2      10.8       0.0       1.2      12.7
 5 H  pz              0.1       0.0       0.0       0.2       0.0       0.0
 5 H  px              0.0       0.0       0.2       0.0       0.2       0.0
 5 H  py              0.0       0.1       0.0       0.0       0.0       0.1
 6 H  s               2.8       0.3       3.0       9.1       4.4       1.0
 6 H  pz              0.0       0.0       0.2       0.0       0.1       0.0
 6 H  px              0.0       0.1       0.1       0.0       0.1       0.1
 6 H  py              0.1       0.0       0.0       0.2       0.0       0.0
 7 H  s               5.7       0.1       1.4       0.7       4.4       0.9
 7 H  pz              0.0       0.0       0.1       0.0       0.2       0.0
 7 H  px              0.0       0.1       0.1       0.0       0.1       0.1
 7 H  py              0.2       0.0       0.0       0.0       0.0       0.0
 8 H  s               5.7       0.1       1.3       0.7       4.4       0.9
 8 H  pz              0.1       0.0       0.1       0.0       0.1       0.0
 8 H  px              0.0       0.1       0.1       0.0       0.1       0.1
 8 H  py              0.2       0.0       0.0       0.0       0.0       0.0
 9 H  s               5.7       1.0       2.5       8.2       0.1       0.3
 9 H  pz              0.1       0.1       0.1       0.0       0.0       0.0
 9 H  px              0.0       0.0       0.1       0.0       0.0       0.1
 9 H  py              0.2       0.0       0.0       0.2       0.0       0.1
10 H  s               5.7       1.0       2.5       8.2       0.1       0.3
10 H  pz              0.0       0.1       0.1       0.0       0.0       0.0
10 H  px              0.0       0.0       0.1       0.0       0.0       0.1
10 H  py              0.2       0.0       0.0       0.2       0.0       0.1
11 H  s               0.0      12.7       0.3       0.0       5.0       4.0
11 H  py              0.0       0.2       0.0       0.0       0.0       0.1

                     18        19        20        21        22        23   
                  -0.31275  -0.29808  -0.20744   0.00957   0.05632   0.10140
                   2.00000   2.00000   2.00000   0.00000   0.00000   0.00000
                  --------  --------  --------  --------  --------  --------
 0 C  s               0.0       0.4       0.0       0.6       4.6      16.4
 0 C  pz             14.1       0.0       0.1       0.0       0.0       0.0
 0 C  px              0.0       3.2       0.0       0.4       1.2       2.6
 0 C  py              0.1       0.6       0.0       0.2       0.5       2.2
 0 C  dz2             0.0       0.0       0.0       0.0       0.1       0.6
 0 C  dxz             0.2       0.0       0.0       0.0       0.0       0.0
 0 C  dyz             0.6       0.0       0.0       0.0       0.0       0.0
 0 C  dx2y2           0.0       0.0       0.0       0.0       0.0       0.4
 0 C  dxy             0.0       0.0       0.0       0.2       0.0       0.1
 1 C  s               0.0       0.5       0.0       1.7       0.1      16.6
 1 C  pz             26.2       0.0       0.0       0.0       0.0       0.0
 1 C  px              0.0       1.2       0.0       1.4       4.5       1.4
 1 C  py              0.2       4.0       0.0       0.6       0.1       0.3
 1 C  dz2             0.0       0.1       0.0       0.0       0.2       0.3
 1 C  dxz             0.1       0.0       0.0       0.0       0.0       0.0
 1 C  dyz             1.0       0.0       0.0       0.0       0.0       0.0
 1 C  dx2y2           0.0       0.3       0.0       0.1       1.0       0.0
 1 C  dxy             0.0       0.0       0.0       0.1       0.1       0.1
 2 C  s               0.0       0.7       0.0       6.8       1.0       7.1
 2 C  pz              5.1       0.1       2.3       0.0       0.0       0.1
 2 C  px              0.0       7.6       0.0       9.6      13.5       2.0
 2 C  py              0.0       9.9       0.0       2.5       1.1       7.5
 2 C  dz2             0.0       0.2       0.0       0.1       0.1       1.2
 2 C  dxz             0.0       0.0       0.4       0.0       0.0       0.0
 2 C  dyz             0.5       0.0       0.3       0.0       0.0       0.0
 2 C  dx2y2           0.0       0.4       0.0       0.0       1.0       0.0
 2 C  dxy             0.0       0.0       0.0       0.4       0.2       0.3
 3 S  s               0.0       6.9       0.0       0.1      14.0       1.6
 3 S  pz              0.9       0.3      89.3       0.0       0.1       0.0
 3 S  px              0.0      13.6       0.0      30.4       3.9       2.6
 3 S  py              0.0      37.3       0.7       1.0      15.9       0.0
 3 S  dz2             0.0       0.4       0.0       0.2       9.1       1.8
 3 S  dxz             0.0       0.0       0.2       0.2       0.0       0.0
 3 S  dyz             0.2       0.0       0.0       0.1       0.3       0.1
 3 S  dx2y2           0.0       0.0       0.0      14.0       0.4       3.5
 3 S  dxy             0.0       0.1       0.0      16.7       1.2       0.0
 4 H  s               7.9       0.2       0.0       0.1       0.1       3.6
 4 H  pz              0.0       0.0       0.0       0.0       0.1       1.7
 4 H  px              0.0       0.0       0.0       0.0       0.0       0.1
 4 H  py              0.1       0.0       0.0       0.0       0.1       0.1
 5 H  s               0.0       0.1       0.0       0.9       0.8       0.9
 5 H  pz              0.1       0.0       0.0       0.0       0.0       0.0
 5 H  px              0.0       0.0       0.0       0.0       0.3       0.0
 5 H  py              0.0       0.0       0.0       0.1       0.1       1.2
 6 H  s               7.9       0.2       0.0       0.1       0.1       3.6
 6 H  pz              0.0       0.0       0.0       0.0       0.0       1.5
 6 H  px              0.0       0.0       0.0       0.0       0.0       0.1
 6 H  py              0.1       0.0       0.0       0.0       0.1       0.3
 7 H  s              13.5       1.2       0.1       0.2       0.3       2.0
 7 H  pz              0.0       0.0       0.0       0.1       0.0       1.3
 7 H  px              0.0       0.0       0.0       0.1       0.1       0.0
 7 H  py              0.2       0.0       0.0       0.1       0.0       0.2
 8 H  s              13.5       1.1       0.1       0.2       0.3       2.1
 8 H  pz              0.0       0.0       0.0       0.1       0.0       1.5
 8 H  px              0.0       0.0       0.0       0.1       0.1       0.0
 8 H  py              0.2       0.0       0.0       0.0       0.0       0.0
 9 H  s               3.5       3.1       2.7       0.4       0.1       3.2
 9 H  pz              0.0       0.1       0.0       0.1       0.0       1.5
 9 H  px              0.0       0.1       0.0       0.4       0.5       0.0
 9 H  py              0.0       0.0       0.0       0.2       0.0       0.1
10 H  s               3.5       3.2       2.7       0.4       0.1       3.3
10 H  pz              0.0       0.1       0.0       0.0       0.0       1.6
10 H  px              0.0       0.1       0.0       0.4       0.5       0.0
10 H  py              0.0       0.0       0.0       0.3       0.0       0.0
11 H  s               0.0       2.4       0.0       6.8      17.4       0.5
11 H  pz              0.0       0.0       0.7       0.0       0.0       0.0
11 H  px              0.0       0.2       0.0       0.0       1.6       0.3
11 H  py              0.0       0.0       0.0       1.1       2.6       0.0

                     24        25        26        27        28        29   
                   0.12459   0.13706   0.14287   0.15139   0.16466   0.17962
                   0.00000   0.00000   0.00000   0.00000   0.00000   0.00000
                  --------  --------  --------  --------  --------  --------
 0 C  s               1.6      19.5       0.0       0.1       0.5       0.0
 0 C  pz              0.0       0.0      15.9       0.1       0.1      12.9
 0 C  px              1.2      33.3       0.0       4.7       5.3       0.0
 0 C  py              0.5       2.5       0.1      12.9       8.1       0.1
 0 C  dz2             0.0       0.1       0.0       0.1       0.7       0.1
 0 C  dxz             0.0       0.0       0.4       0.0       0.0       0.4
 0 C  dyz             0.0       0.0       0.2       0.0       0.0       4.0
 0 C  dx2y2           0.4       0.5       0.0       0.6       0.0       0.0
 0 C  dxy             0.0       0.6       0.0       0.1       2.6       0.0
 1 C  s               3.2       8.7       0.0       5.5       0.7       0.0
 1 C  pz              0.1       0.0      12.9       0.1       0.1       3.8
 1 C  px              4.0       3.2       0.0       1.4       5.1       0.0
 1 C  py             17.9       1.6       0.1      11.3      12.0       0.0
 1 C  dz2             0.9       0.1       0.1       1.5       0.0       0.0
 1 C  dxz             0.0       0.0       0.0       0.0       0.0       1.9
 1 C  dyz             0.0       0.0       2.6       0.0       0.0       0.0
 1 C  dx2y2           0.2       0.1       0.0       0.6       0.1       0.0
 1 C  dxy             0.5       0.2       0.0       0.0       1.2       0.0
 2 C  s              20.4       0.2       0.0       1.9       2.5       0.0
 2 C  pz              0.0       0.0      20.9       0.2       0.1       4.4
 2 C  px             10.1       1.1       0.0       4.9       2.4       0.0
 2 C  py              2.1       3.5       0.2      21.8      14.5       0.0
 2 C  dz2             0.2       0.3       0.1       0.0       1.2       0.1
 2 C  dxz             0.0       0.0       0.0       0.0       0.0       0.2
 2 C  dyz             0.0       0.0       2.5       0.0       0.0       1.8
 2 C  dx2y2           0.2       0.0       0.0       0.4       0.1       0.0
 2 C  dxy             1.1       0.4       0.0       0.5       0.8       0.0
 3 S  s               0.2       0.1       0.0       0.7       0.5       0.0
 3 S  pz              0.0       0.0       1.8       0.0       0.0       0.2
 3 S  px              0.6       0.6       0.0       0.1       1.0       0.0
 3 S  py              1.4       2.3       0.0       0.2       2.4       0.0
 3 S  dz2             9.6       1.8       0.0       0.5       0.2       0.1
 3 S  dxz             0.0       0.0       2.4       0.0       0.0      15.7
 3 S  dyz             0.2       0.1       0.1       0.0       0.0       4.3
 3 S  dx2y2           1.0       2.4       0.0       4.9       0.6       0.0
 3 S  dxy             1.5       1.3       0.0       1.3       4.7       0.1
 4 H  s               0.1       2.1       1.4       0.2       1.4      12.9
 4 H  pz              0.0       0.9       0.5       0.1       0.6       0.9
 4 H  px              0.0       0.6       0.1       0.1       0.5       0.1
 4 H  py              0.1       0.3       0.3       0.3       0.1       1.7
 5 H  s               1.1       1.2       0.0       1.3      15.2       0.0
 5 H  pz              0.0       0.0       0.0       0.0       0.0       1.6
 5 H  px              0.0       1.2       0.0       0.2       1.4       0.0
 5 H  py              0.7       0.2       0.0       0.1       2.0       0.0
 6 H  s               0.1       2.1       1.4       0.2       1.3      13.0
 6 H  pz              0.0       0.6       0.3       0.0       0.6       0.5
 6 H  px              0.0       0.6       0.1       0.1       0.6       0.1
 6 H  py              0.2       0.6       0.4       0.4       0.0       2.1
 7 H  s               0.2       0.1       6.0       5.4       0.6       1.0
 7 H  pz              0.1       0.1       0.5       2.5       0.1       0.2
 7 H  px              0.1       0.3       0.0       0.0       0.4       0.7
 7 H  py              0.9       0.4       1.3       0.1       0.2       0.1
 8 H  s               0.2       0.1       6.1       5.2       0.6       1.0
 8 H  pz              0.0       0.2       0.8       2.5       0.1       0.2
 8 H  px              0.1       0.3       0.0       0.0       0.4       0.6
 8 H  py              1.0       0.3       1.0       0.0       0.1       0.1
 9 H  s               3.8       0.5       7.2       1.3       1.4       5.1
 9 H  pz              2.1       0.1       1.3       0.5       0.1       0.3
 9 H  px              0.3       0.1       0.0       0.2       0.2       0.0
 9 H  py              0.3       0.1       1.3       0.5       0.4       0.8
10 H  s               3.8       0.4       7.2       1.3       1.5       5.1
10 H  pz              1.7       0.1       0.8       0.3       0.2       0.2
10 H  px              0.2       0.1       0.0       0.2       0.2       0.0
10 H  py              0.7       0.0       1.7       0.6       0.3       1.0
11 H  s               2.6       1.2       0.0       0.1       1.8       0.0
11 H  pz              0.0       0.0       0.0       0.0       0.0       0.4
11 H  px              0.4       0.0       0.0       0.1       0.4       0.0
11 H  py              0.0       0.5       0.0       0.1       0.0       0.0

                     30        31        32        33        34        35   
                   0.19362   0.20465   0.22291   0.23266   0.23305   0.24581
                   0.00000   0.00000   0.00000   0.00000   0.00000   0.00000
                  --------  --------  --------  --------  --------  --------
 0 C  s               1.0       0.0       0.1       0.9       0.0       2.3
 0 C  pz              0.1      15.1       0.1       0.0      63.5       0.0
 0 C  px              4.8       0.0       7.5       3.9       0.0       8.6
 0 C  py             15.0       0.1      16.0      28.8       0.3       4.3
 0 C  dz2             3.0       0.0       0.3       0.2       0.0       0.0
 0 C  dxz             0.0       0.3       0.0       0.0       0.0       0.0
 0 C  dyz             0.1       1.8       0.0       0.0       0.1       0.0
 0 C  dx2y2           0.2       0.0       0.1       0.4       0.0       0.4
 0 C  dxy             0.1       0.0       0.9       0.1       0.0       0.6
 1 C  s               0.2       0.0       1.9       1.3       0.0       2.8
 1 C  pz              0.1      20.5       0.1       0.0       4.2       0.6
 1 C  px              8.5       0.0       0.5      14.5       0.0       2.8
 1 C  py              8.6       0.2      17.2       2.4       0.0       7.8
 1 C  dz2             0.3       0.0       0.2       0.2       0.0       0.1
 1 C  dyz             0.0       0.5       0.0       0.0       0.7       0.0
 1 C  dx2y2           0.3       0.0       0.0       0.3       0.0       0.0
 1 C  dxy             0.3       0.0       1.2       1.8       0.0       0.1
 2 C  s               5.6       0.0       1.3       1.2       0.0       1.0
 2 C  pz              0.0      13.1       0.0       0.0       0.9       0.0
 2 C  px              2.5       0.0       5.7       8.9       0.0       0.7
 2 C  py              4.8       0.1       6.8       2.9       0.0      14.0
 2 C  dz2             0.4       0.0       0.3       0.0       0.0       0.4
 2 C  dxz             0.0       0.6       0.0       0.0       0.0       0.0
 2 C  dyz             0.0       0.0       0.0       0.0       0.9       0.0
 2 C  dx2y2           0.1       0.0       0.1       0.0       0.0       0.4
 2 C  dxy             0.3       0.0       0.3       0.0       0.0       0.0
 3 S  s               2.4       0.0       0.1       0.0       0.0       3.1
 3 S  pz              0.0       0.0       0.0       0.0       3.8       0.0
 3 S  px              7.5       0.0       0.1       2.6       0.0      13.9
 3 S  py              0.2       0.0       3.2       8.7       0.0       4.9
 3 S  dz2            10.0       0.0       0.5       4.0       0.0       4.5
 3 S  dxz             0.0       7.2       0.0       0.0       0.0       0.0
 3 S  dyz             0.4       1.3       0.0       0.0       2.6       0.3
 3 S  dx2y2           1.6       0.0       4.3       1.2       0.0       2.0
 3 S  dxy             0.1       0.1       4.4       1.3       0.0       1.2
 4 H  s               4.6       6.2       1.8       1.1       2.6       0.9
 4 H  pz              2.2       0.2       0.5       0.0       1.2       0.5
 4 H  px              0.2       0.0       0.3       0.0       0.1       0.3
 4 H  py              0.4       1.0       0.0       0.0       0.2       0.2
 5 H  s               1.3       0.0      10.5       0.9       0.0       3.7
 5 H  pz              0.0       1.7       0.0       0.0       0.2       0.0
 5 H  px              0.2       0.0       3.4       0.0       0.0       0.0
 5 H  py              0.0       0.0       1.4       0.7       0.0       0.4
 6 H  s               4.7       6.1       1.7       1.3       2.4       1.4
 6 H  pz              2.5       0.1       0.4       0.0       0.9       0.4
 6 H  px              0.2       0.0       0.3       0.0       0.2       0.1
 6 H  py              0.1       1.1       0.1       0.0       0.4       0.4
 7 H  s               0.1       5.4       0.8       2.5       3.5       1.2
 7 H  pz              0.1       0.7       0.0       0.7       0.2       0.1
 7 H  px              0.1       0.0       0.1       1.0       0.1       0.1
 7 H  py              0.2       1.6       0.4       0.1       0.8       0.4
 8 H  s               0.1       5.4       0.8       2.0       4.0       0.9
 8 H  pz              0.1       1.1       0.1       0.7       0.5       0.2
 8 H  px              0.1       0.0       0.1       0.9       0.2       0.1
 8 H  py              0.2       1.1       0.3       0.0       0.7       0.1
 9 H  s               0.7       2.4       0.9       0.0       1.8       3.5
 9 H  pz              0.2       0.6       0.1       0.0       0.1       1.2
 9 H  py              0.2       0.4       0.0       0.0       0.3       0.3
10 H  s               0.7       2.4       0.9       0.0       1.8       3.3
10 H  pz              0.3       0.4       0.1       0.0       0.0       1.2
10 H  py              0.2       0.5       0.0       0.0       0.4       0.5
11 H  s               1.2       0.0       0.8       1.4       0.0       1.4
11 H  pz              0.0       0.2       0.0       0.0       0.0       0.0
11 H  px              0.3       0.0       0.7       0.0       0.0       0.0
11 H  py              0.1       0.0       0.0       0.9       0.0       0.2

                     36        37        38        39        40        41   
                   0.24609   0.26396   0.26671   0.28720   0.31413   0.32967
                   0.00000   0.00000   0.00000   0.00000   0.00000   0.00000
                  --------  --------  --------  --------  --------  --------
 0 C  s               0.0       1.9       0.0       2.1       0.0       0.1
 0 C  pz              0.4       0.0       2.6       0.0       0.8       0.1
 0 C  px              0.1      18.3       0.0       1.6       0.0       2.1
 0 C  py              0.0       4.3       0.0       3.8       0.0      10.8
 0 C  dz2             0.0       0.7       0.0       0.3       0.0       0.0
 0 C  dxz             0.9       0.0       0.1       0.0       0.0       0.0
 0 C  dyz             0.4       0.0       0.3       0.0       0.2       0.0
 0 C  dx2y2           0.0       0.1       0.0       0.3       0.0       0.2
 0 C  dxy             0.0       0.1       0.0       0.1       0.0       0.5
 1 C  s               0.0       0.4       0.0       0.1       0.0       0.3
 1 C  pz             28.0       0.1       3.9       0.0      14.5       0.0
 1 C  px              0.0       8.8       0.0       2.6       0.0       1.6
 1 C  py              0.5       9.3       0.0       1.0       0.1       1.8
 1 C  dz2             0.1       2.3       0.0       0.1       0.0       0.0
 1 C  dxz             0.3       0.0       0.0       0.0       0.0       0.0
 1 C  dyz             3.0       0.0       0.2       0.0       0.4       0.0
 1 C  dx2y2           0.0       1.1       0.0       0.0       0.0       0.0
 1 C  dxy             0.0       0.5       0.0       0.1       0.0       0.3
 2 C  s               0.0       0.2       0.0       0.4       0.0       0.9
 2 C  pz             21.9       0.0      23.7       0.1       2.8       0.0
 2 C  px              0.0       5.9       0.0       0.8       0.0       2.8
 2 C  py              0.0       3.4       0.2      13.8       0.0       1.8
 2 C  dz2             0.0       0.1       0.0       1.6       0.0       0.0
 2 C  dxz             0.6       0.0       1.3       0.0       0.0       0.0
 2 C  dyz             0.4       0.0       0.7       0.0       0.3       0.0
 2 C  dx2y2           0.0       0.8       0.0       0.0       0.0       0.1
 2 C  dxy             0.0       0.2       0.0       0.7       0.0       0.6
 3 S  s               0.0       0.8       0.0       0.5       0.0       0.4
 3 S  pz              0.8       0.0       0.7       0.0      22.8       0.4
 3 S  px              0.1       2.7       0.0      16.5       0.0       7.7
 3 S  py              0.0       2.5       0.0       1.8       0.2      47.7
 3 S  dz2             0.6       5.7       0.8       1.5       0.6       3.8
 3 S  dxz             0.8       0.0      25.1       0.1      15.7       0.0
 3 S  dyz            13.4       0.2      29.0       0.4      27.1       0.2
 3 S  dx2y2           0.1       0.2       0.2      20.3       0.2       1.7
 3 S  dxy             0.0       4.7       0.2       5.6       0.1       0.5
 4 H  s               2.4       2.0       1.6       0.0       0.1       0.2
 4 H  pz              0.1       0.5       0.3       0.0       0.0       0.1
 4 H  px              0.6       0.0       0.0       0.1       0.1       0.1
 4 H  py              0.2       0.1       0.3       0.7       0.0       0.5
 5 H  s               0.0       1.5       0.0       4.8       0.0       2.2
 5 H  pz              0.0       0.0       0.5       0.0       0.2       0.0
 5 H  px              0.0       0.1       0.0       0.1       0.0       0.0
 5 H  py              0.0       0.3       0.0       1.2       0.0       0.2
 6 H  s               1.9       2.1       1.5       0.0       0.1       0.2
 6 H  pz              0.0       0.5       0.2       0.1       0.0       0.0
 6 H  px              0.8       0.0       0.0       0.1       0.1       0.1
 6 H  py              0.2       0.0       0.4       0.6       0.0       0.5
 7 H  s               7.5       4.2       0.2       1.6       0.5       0.7
 7 H  pz              0.0       1.6       0.0       0.3       0.2       0.2
 7 H  px              0.0       0.7       0.2       0.0       0.0       0.1
 7 H  py              0.9       0.0       0.0       0.0       0.0       0.1
 8 H  s               7.9       4.2       0.1       1.7       0.5       0.7
 8 H  pz              0.0       1.6       0.0       0.3       0.2       0.2
 8 H  px              0.0       0.7       0.2       0.0       0.0       0.1
 8 H  py              1.1       0.0       0.0       0.0       0.0       0.1
 9 H  s               0.8       0.7       1.9       2.6       3.5       1.3
 9 H  pz              0.5       0.0       0.2       1.5       0.4       0.4
 9 H  px              0.4       0.2       0.5       0.2       0.0       0.6
 9 H  py              0.0       0.0       0.0       0.5       0.9       0.1
10 H  s               1.0       0.7       1.9       2.6       3.5       1.3
10 H  pz              0.3       0.0       0.3       1.7       0.2       0.3
10 H  px              0.4       0.2       0.5       0.1       0.0       0.6
10 H  py              0.0       0.0       0.0       0.2       1.1       0.2
11 H  s               0.0       2.2       0.0       2.1       0.0       1.6
11 H  pz              0.4       0.0       0.1       0.0       2.0       0.0
11 H  px              0.0       0.1       0.0       0.6       0.0       0.3
11 H  py              0.0       0.6       0.0       0.0       0.0       0.8

                     42        43        44        45        46        47   
                   0.33711   0.38400   0.42316   0.45310   0.48213   0.50535
                   0.00000   0.00000   0.00000   0.00000   0.00000   0.00000
                  --------  --------  --------  --------  --------  --------
 0 C  s               0.0       2.6      14.1       5.1       1.4      18.8
 0 C  pz              2.9       0.0       0.0       0.0       0.0       0.0
 0 C  px              0.0       5.2       6.6       6.8       1.1       2.8
 0 C  py              0.0       0.0       1.5       0.8       1.8       0.6
 0 C  dz2             0.0       0.0       0.2       0.1       0.2       0.1
 0 C  dxz             0.4       0.0       0.0       0.0       0.0       0.0
 0 C  dyz             0.2       0.0       0.0       0.0       0.0       0.0
 0 C  dx2y2           0.0       0.6       0.4       0.5       0.5       0.1
 0 C  dxy             0.0       0.0       0.4       0.3       0.0       0.2
 1 C  s               0.0       6.3       1.8      10.8       2.6      24.3
 1 C  pz             18.0       0.1       0.0       0.1       0.0       0.0
 1 C  px              0.0       0.3      29.1       3.8       9.1      14.5
 1 C  py              0.1      16.5       0.3       7.9       1.2       0.9
 1 C  dz2             0.0       0.4       0.2       0.7       0.1       0.0
 1 C  dxz             0.2       0.0       0.0       0.0       0.0       0.0
 1 C  dx2y2           0.0       0.4       0.5       0.1       0.1       0.3
 1 C  dxy             0.0       0.5       0.8       0.1       0.3       0.2
 2 C  s               0.0       7.6       0.8       2.5       0.6      10.5
 2 C  pz              1.9       0.1       0.0       0.0       0.0       0.0
 2 C  px              0.0       1.5       0.7      22.3      24.5       2.0
 2 C  py              0.0       7.2       2.3       2.0       0.2       4.3
 2 C  dz2             0.0       0.2       0.1       0.2       0.0       0.4
 2 C  dyz             0.2       0.0       0.0       0.0       0.0       0.0
 2 C  dx2y2           0.0       0.2       0.0       0.2       0.8       0.5
 2 C  dxy             0.0       1.1       0.1       1.2       0.2       0.0
 3 S  s               0.0       0.9       0.4       1.9       0.4       0.6
 3 S  pz             58.1       0.0       0.0       0.0       0.0       0.0
 3 S  px              0.0      18.1       6.1       5.8       0.1       0.2
 3 S  py              0.4       3.9       1.8       2.7       2.3       2.4
 3 S  dz2             0.3       7.1       1.7       9.3       5.7       0.2
 3 S  dxz             0.0       0.0       0.0       0.0       0.1       0.0
 3 S  dyz            12.2       0.1       0.1       0.2       0.1       0.0
 3 S  dx2y2           0.1       0.7       3.1       0.0       1.7       1.7
 3 S  dxy             0.0       0.6       3.1       3.8      20.4       1.9
 4 H  s               0.1       1.3       5.0       0.6       0.2       0.3
 4 H  pz              0.0       0.3       1.1       0.2       0.3       0.2
 4 H  px              0.4       0.1       0.2       0.2       0.0       0.1
 4 H  py              0.0       0.1       0.3       0.0       0.4       0.0
 5 H  s               0.0       0.7       5.9       2.4       0.5       0.5
 5 H  pz              0.7       0.0       0.0       0.0       0.0       0.0
 5 H  px              0.0       0.0       2.0       0.6       0.0       0.1
 5 H  py              0.0       0.0       0.5       0.6       0.5       0.1
 6 H  s               0.1       1.3       5.0       0.7       0.2       0.3
 6 H  pz              0.0       0.3       0.9       0.2       0.4       0.2
 6 H  px              0.4       0.1       0.2       0.2       0.0       0.1
 6 H  py              0.1       0.1       0.5       0.1       0.3       0.0
 7 H  s               0.1       1.4       0.0       0.4       1.2       1.6
 7 H  pz              0.3       0.2       0.0       0.0       0.9       0.1
[...]
 6 H  pz              0.0       0.0       0.2       4.0       5.5       2.7
 6 H  px              0.8       0.1       7.9       0.5       0.8       0.0
 6 H  py              0.1       7.3       0.1       5.2       3.3       1.5
 7 H  s               0.2       0.3       0.0       0.1       0.1       1.9
 7 H  pz              0.1       0.2       0.1       0.1       0.1       7.8
 7 H  px              3.1       0.0       6.4       0.8       0.2       0.2
 7 H  py              3.2       8.6       0.0       3.7       0.9       2.9
 8 H  s               0.2       0.3       0.0       0.1       0.1       1.9
 8 H  pz              0.0       1.0       0.1       0.0       0.3       9.4
 8 H  px              3.1       0.0       6.3       0.8       0.2       0.1
 8 H  py              3.3       7.8       0.0       3.8       0.8       1.3
 9 H  s               0.0       0.0       0.0       0.0       0.6       2.3
 9 H  pz              1.6       0.9       0.1       0.3       4.1      10.6
 9 H  px              0.6       1.0       0.9       1.1       0.2       0.0
 9 H  py             16.1       1.6       0.7       1.9       1.5       2.2
10 H  s               0.0       0.0       0.0       0.0       0.6       2.3
10 H  pz              3.9       1.3       0.0       0.6       3.2       8.5
10 H  px              0.6       0.9       0.9       1.1       0.1       0.0
10 H  py             13.8       1.2       0.8       1.5       2.4       4.3
11 H  s               0.1       0.0       0.0       0.0       0.0       0.0
11 H  px              0.1       0.3       0.0       0.0       0.2       0.2
11 H  py              1.0       1.3       0.0       0.0       0.1       0.1

                    114       115       116       117       118       119   
                   3.47849   3.49761   3.53224   3.56338   3.59725   3.61890
                   0.00000   0.00000   0.00000   0.00000   0.00000   0.00000
                  --------  --------  --------  --------  --------  --------
 0 C  s               0.0       2.8       0.8       0.0       0.4       0.0
 0 C  pz              6.7       0.0       0.0       5.2       0.1       1.7
 0 C  px              0.0       5.7       7.8       0.0       0.4       0.0
 0 C  py              0.1       3.3       4.2       0.0       6.0       0.0
 0 C  dz2             0.2       5.3       2.2       0.3       9.3       0.1
 0 C  dxz             1.3       0.0       0.1       1.6       0.0       0.1
 0 C  dyz             7.7       0.0       0.1      12.1       0.1       5.3
 0 C  dx2y2           0.1       4.7       0.7       0.1       2.1       0.0
 0 C  dxy             0.0       2.0      17.7       0.0       2.0       0.0
 1 C  s               0.0       0.0       1.3       0.0       2.5       0.0
 1 C  pz              5.6       0.0       0.0       0.1       0.1       7.8
 1 C  px              0.0      12.2       1.2       0.0       0.2       0.0
 1 C  py              0.1       0.8       3.7       0.0       7.0       0.1
 1 C  dz2             0.2       0.0       3.0       0.0      11.1       0.5
 1 C  dxz             0.6       0.1       0.0       0.3       0.0       1.3
 1 C  dyz             7.1       0.0       0.0       0.2       0.1      18.9
 1 C  dx2y2           0.1       2.8       4.3       0.0       2.1       0.2
 1 C  dxy             0.0      11.2       0.0       0.0       1.6       0.0
 2 C  s               0.0       1.8       0.4       0.0       0.6       0.0
 2 C  pz              4.3       0.0       0.0       6.9       0.0       2.0
 2 C  px              0.0       1.3       0.1       0.0       1.0       0.0
 2 C  py              0.0       6.5       1.0       0.1       2.4       0.0
 2 C  dz2             0.2       5.2       0.9       0.4       3.4       0.1
 2 C  dxz             0.2       0.0       0.0       0.3       0.0       0.4
 2 C  dyz             5.9       0.1       0.0      16.1       0.1       5.4
 2 C  dx2y2           0.0       0.3       0.1       0.1       0.5       0.0
 2 C  dxy             0.0       6.2       0.4       0.0       2.3       0.0
 3 S  px              0.0       0.0       0.3       0.0       0.1       0.0
 4 H  s               3.4       1.3       0.6       3.5       1.8       1.3
 4 H  pz              5.2       4.9       1.0       5.8       4.3       2.2
 4 H  px              0.0       0.0       0.5       0.2       0.1       0.3
 4 H  py              3.2       0.5       0.0       2.4       0.6       0.8
 5 H  s               0.0       0.2       9.2       0.0       2.8       0.0
 5 H  pz              1.2       0.0       0.1       0.1       0.0       0.0
 5 H  px              0.0       0.0       8.5       0.0       4.2       0.0
 5 H  py              0.0       1.0      15.1       0.0       2.4       0.0
 6 H  s               3.4       1.3       0.6       3.5       1.8       1.3
 6 H  pz              3.7       4.1       1.0       4.3       3.5       1.6
 6 H  px              0.0       0.0       0.5       0.3       0.1       0.4
 6 H  py              4.7       1.3       0.0       3.9       1.3       1.3
 7 H  s               2.8       0.0       0.9       0.0       2.0       5.3
 7 H  pz              2.9       0.0       3.0       0.0       4.5       6.1
 7 H  px              0.2       0.7       0.0       0.4       0.1       0.3
 7 H  py              3.7       0.0       0.2       0.0       2.0       6.5
 8 H  s               2.8       0.0       0.9       0.0       2.0       5.3
 8 H  pz              4.1       0.0       3.2       0.0       5.6       8.4
 8 H  px              0.2       0.7       0.0       0.4       0.1       0.3
 8 H  py              2.5       0.0       0.0       0.0       1.1       4.2
 9 H  s               2.3       1.1       0.4       4.5       0.5       1.4
 9 H  pz              3.4       4.0       1.3       7.5       1.3       2.5
 9 H  px              0.2       0.1       0.0       0.1       0.1       0.0
 9 H  py              2.0       0.1       0.2       3.3       0.2       1.2
10 H  s               2.3       1.1       0.4       4.5       0.5       1.4
10 H  pz              2.4       3.7       1.1       5.5       1.1       1.8
10 H  px              0.2       0.1       0.0       0.1       0.2       0.0
10 H  py              2.9       0.6       0.4       5.2       0.4       1.9

                    120       121       122       123   
                  18.84321  21.83216  21.93300  21.97104
                   0.00000   0.00000   0.00000   0.00000
                  --------  --------  --------  --------
 0 C  s               0.1      27.9      70.3       1.5
 1 C  s               0.1      20.4       2.6      76.7
 2 C  s               0.3      51.2      26.9      21.6
 2 C  px              0.1       0.0       0.0       0.0
 3 S  s              99.1       0.0       0.0       0.1


                      *****************************
                      * MAYER POPULATION ANALYSIS *
                      *****************************

  NA   - Mulliken gross atomic population
  ZA   - Total nuclear charge
  QA   - Mulliken gross atomic charge
  VA   - Mayer's total valence
  BVA  - Mayer's bonded valence
  FA   - Mayer's free valence

  ATOM       NA         ZA         QA         VA         BVA        FA
  0 C      6.4563     6.0000    -0.4563     3.8029     3.8029    -0.0000
  1 C      6.2490     6.0000    -0.2490     3.6936     3.6936    -0.0000
  2 C      6.2004     6.0000    -0.2004     3.7933     3.7933    -0.0000
  3 S     16.2667    16.0000    -0.2667     1.9696     1.9696     0.0000
  4 H      0.8578     1.0000     0.1422     0.9646     0.9646    -0.0000
  5 H      0.8493     1.0000     0.1507     0.9618     0.9618     0.0000
  6 H      0.8579     1.0000     0.1421     0.9646     0.9646    -0.0000
  7 H      0.8521     1.0000     0.1479     0.9601     0.9601    -0.0000
  8 H      0.8520     1.0000     0.1480     0.9601     0.9601    -0.0000
  9 H      0.8471     1.0000     0.1529     0.9531     0.9531     0.0000
 10 H      0.8470     1.0000     0.1530     0.9531     0.9531     0.0000
 11 H      0.8644     1.0000     0.1356     0.9691     0.9691    -0.0000

  Mayer bond orders larger than 0.100000
B(  0-C ,  1-C ) :   0.9055 B(  0-C ,  4-H ) :   0.9790 B(  0-C ,  5-H ) :   0.9701 
B(  0-C ,  6-H ) :   0.9790 B(  1-C ,  2-C ) :   0.9485 B(  1-C ,  7-H ) :   0.9636 
B(  1-C ,  8-H ) :   0.9635 B(  2-C ,  3-S ) :   0.9873 B(  2-C ,  9-H ) :   0.9577 
B(  2-C , 10-H ) :   0.9577 B(  3-S , 11-H ) :   0.9607 

-------
TIMINGS
-------

Total SCF time: 0 days 0 hours 0 min 3 sec 

Total time                  ....       3.799 sec
Sum of individual times     ....       3.788 sec  ( 99.7%)

SCF preparation             ....       0.027 sec  (  0.7%)
Fock matrix formation       ....       3.667 sec  ( 96.5%)
  Startup                   ....       0.001 sec  (  0.0% of F)
  Split-RI-J                ....       0.539 sec  ( 14.7% of F)
  XC integration            ....       3.119 sec  ( 85.0% of F)
    XC Preparation          ....       0.000 sec  (  0.0% of XC)
    Basis function eval.    ....       0.634 sec  ( 20.3% of XC)
    Density eval.           ....       0.901 sec  ( 28.9% of XC)
    XC-Functional eval.     ....       0.556 sec  ( 17.8% of XC)
    XC-Potential eval.      ....       0.949 sec  ( 30.4% of XC)
Diagonalization             ....       0.000 sec  (  0.0%)
Density matrix formation    ....       0.010 sec  (  0.3%)
Total Energy calculation    ....       0.001 sec  (  0.0%)
Population analysis         ....       0.038 sec  (  1.0%)
Orbital Transformation      ....       0.011 sec  (  0.3%)
Orbital Orthonormalization  ....       0.000 sec  (  0.0%)
DIIS solution               ....       0.026 sec  (  0.7%)
  MO trafo                  ....       0.000 sec  (  0.0 % of DIIS)
  Orb grad                  ....       0.000 sec  (  0.0 % of DIIS)
  Energy W gradient         ....       0.000 sec  (  0.0 % of DIIS)
  DIIS error                ....       0.002 sec  (  6.6 % of DIIS)
  DIIS work                 ....       0.015 sec  ( 58.1 % of DIIS)
  Form Q                    ....       0.000 sec  (  0.0 % of DIIS)
  Form QpQm                 ....       0.000 sec  (  0.0 % of DIIS)
  Exp/Cayley                ....       0.000 sec  (  0.0 % of DIIS)
  Orb update                ....       0.000 sec  (  0.0 % of DIIS)
  Wake-sleep                ....       0.000 sec  (  1.3 % of DIIS)
SOSCF solution              ....       0.008 sec  (  0.2%)
  MO trafo                  ....       0.007 sec  ( 91.3 % of SOSCF)
  Orb grad                  ....       0.000 sec  (  0.3 % of SOSCF)
  Rot update                ....       0.000 sec  (  0.1 % of SOSCF)
  Step                      ....       0.001 sec  (  8.0 % of SOSCF)
Finished LeanSCF after   3.8 sec

Maximum memory used throughout the entire LEANSCF-calculation: 13.1 MB


-------------------------------------------------------------------------------
                          DFT DISPERSION CORRECTION                            
                                                                               
                                DFTD4 V3.4.0                                   
-------------------------------------------------------------------------------
The R2SCAN3C composite method is recognized
Using three-body term ABC
Active option DFTDOPT                   ...         5   

-------------------------   ----------------
Dispersion correction           -0.002520996
-------------------------   ----------------

------------------   -----------------
gCP correction             0.008928686
------------------   -----------------

-------------------------   --------------------
FINAL SINGLE POINT ENERGY      -517.256234114081
-------------------------   --------------------


------------------------------------------------------------------------------
                              ORCA PROPERTY CALCULATIONS
------------------------------------------------------------------------------

GBWName                                 ... sp.gbw
Number of atoms                         ...     12
Number of basis functions               ...    124
Max core memory                         ...   1024 MB

Electric properties:
Dipole moment                           ... YES
Quadrupole moment                       ...  NO
Static polarizability (Dipole/Dipole)   ...  NO
Static polarizability (Dipole/Quad.)    ...  NO
Static polarizability (Quad./Quad.)     ...  NO
Static polarizability (Velocity)        ...  NO

Atomic electric properties:
Dipole moment                           ...  NO
Quadrupole moment                       ...  NO
Static polarizability                   ...  NO

Choice of electric origin               ... Center of mass
Position of electric origin             ...    -0.000021     0.000004    -0.000001

General magnetic properties:
Magnetizability                         ...  NO

EPR properties:
g-Tensor (aka g-matrix)                 ...  NO
Zero-Field splitting spin-orbit         ...  NO
Zero-field splitting spin-spin          ...  NO
Hyperfine couplings                     ...  NO (   0 nuclei)
Quadrupole couplings                    ...  NO (   0 nuclei)
Contact density                         ...  NO (   0 nuclei)

NMR properties:
Chemical shifts                         ...  NO (   0 nuclei)
Spin-rotation constants                 ...  NO (   0 nuclei)
Spin-spin couplings                     ...  NO (   0 nuclei,    0 pairs)

Choice of magnetic origin               ... GIAO
Position of magnetic origin             ...     0.000000     0.000000     0.000000

Properties with geometric perturbations:
SCF Hessian                             ...  NO
IR spectrum                             ...  NO
VCD spectrum                            ...  NO
X-ray spectroscopy properties:
SCF XES/XAS/RIXS spectra                ...  NO


-------------
DIPOLE MOMENT
-------------

Method             : SCF
Type of density    : Electron Density
Multiplicity       :   1
Irrep              :   0
Energy             :  -517.2626418037037865 Eh
Relativity type    : 
Basis              : AO
                                X                 Y                 Z
Electronic contribution:      7.473590642      -1.206312803       0.157322874
Nuclear contribution   :     -8.004322627       1.652198493      -0.200945633
                        -----------------------------------------
Total Dipole Moment    :     -0.530731986       0.445885690      -0.043622759
                        -----------------------------------------
Magnitude (a.u.)       :      0.694545487
Magnitude (Debye)      :      1.765394331



--------------------
Rotational spectrum 
--------------------
 
Rotational constants in cm-1:             0.805199             0.079620             0.075534 
Rotational constants in MHz :         24139.269629          2386.957884          2264.463377 

Dipole components along the rotational axes: 
x,y,z [a.u.] :    -0.524383     0.455429     0.000766 
x,y,z [Debye]:    -1.332875     1.157609     0.001948 

 

Dipole moment calculation done in   0.0 sec 

Maximum memory used throughout the entire PROP-calculation: 7.3 MB

--------------------------------
SUGGESTED CITATIONS FOR THIS RUN
--------------------------------

Below you find a list of papers that are relevant to this ORCA run
We neither can nor want to force you to cite these papers, but we appreciate if you do
You receive ORCA, which is the product of decades of hard work by many enthusiastic individuals, for free
The only thing we kindly ask in return is that you cite our papers,
We deeply appreciate it, if you show your appreciation for ORCA by not just citing the generic ORCA reference.

Please note that relegating all ORCA citations to the supporting information does *not* help us.
SI sections are not indexed - citations you put there will not count into any citation statistics
But we need these citations in order to attract the funding resources that allow us to do what we are doing

Therefore, if you are a happy ORCA user, please consider citing a few of the papers listed below in the main body of your paper

In addition to the list printed below, the program has created the file sp.bibtex that contains the list in bibtex format
You can import this file easily into all common literature databanks and citation aid programs


List of essential papers. We consider these as the minimum necessary citations

  1. Neese,F.
     Software update: the ORCA program system, version 5.0
     WIRES Comput. Molec. Sci., 2022 12(1)e1606
     doi.org/10.1002/wcms.1606
  2. Grimme,S.; Hansen,A.; Ehlert,S.; Mewes,J.
     r2SCAN-3c: A 'Swiss army knife' composite electronic-structure method
     J. Chem. Phys., 2021 154 064103
     doi.org/10.1063/5.0040021

List of papers to cite with high priority. The work reported in these papers was absolutely
necessary for this run to complete.
Our perspective: the developers of density functionals and basis sets usually get cited in chemistry papers
Good! But without the algorithms to do something with them, the functionals or basis sets would not do anything.
Hence, in our opinion, the algorithm design and method developments papers are equally worthy of getting cited

  1. Neese,F.
     An improvement of the resolution of the identity approximation for the formation of the Coulomb matrix
     J. Comp. Chem., 2003 24(14)1740-1747
     doi.org/10.1002/jcc.10318
  2. Neese,F.
     The SHARK Integral Generation and Digestion System
     J. Comp. Chem., 2022  1-16
     doi.org/10.1002/jcc.26942
  3. Lehtola,S.; Steigemann,C.; Oliveira,M.; Marques,M.
     Recent developments in Libxc - A comprehensive library of functionals for density functional theory
     Software X, 2018 7 
     doi.org/10.1016/j.softx.2017.11.002
  4. Caldeweyher,E.; Bannwarth,C.; Grimme,S.
     Extension of the D3 dispersion coefficient model
     J. Chem. Phys., 2017 147 034112
     doi.org/10.1063/1.4993215
  5. Caldeweyher,E.; Ehlert,S.; Hansen,A.; Neugebauer,H.; Spicher,S.; Bannwarth,C.; Grimme,S.
     A generally applicable atomic-charge dependent London dispersion correction
     J. Chem. Phys., 2019 150 154122
     doi.org/10.1063/1.5090222
  6. Caldeweyher,E.; Mewes,J.; Ehlert,S.; Grimme,S.
     Extension and evaluation of the D4 London-dispersion model for periodic systems
     Phys. Chem. Chem. Phys., 2020 22(16)8499-8512
     doi.org/10.1039/D0CP00502A
  7. Wittmann,L.; Gordiy,I.; Friede,M.; Helmich-Paris,B.; Grimme,S.; Hansen,A.; Bursch,M.
     Extension of the D3 and D4 London Dispersion Corrections to the full Actinides Series
     Phys. Chem. Chem. Phys., 2024 26(32)21379-21394
     doi.org/https://doi.org/10.1039/D4CP01514B 

List of suggested additional citations. These are papers that are important in the 'surrounding' of 
of this run, or papers that preceded the highly important papers. If you like your results we are grateful for a citation.

  1. Neese,F.
     The ORCA program system
     WIRES Comput. Molec. Sci., 2012 2(1)73-78
     doi.org/10.1002/wcms.81
  2. Neese,F.
     Software update: the ORCA program system, version 4.0
     WIRES Comput. Molec. Sci., 2018 8(1)1-6
     doi.org/10.1002/wcms.1327
  3. Neese,F.; Wennmohs,F.; Becker,U.; Riplinger,C.
     The ORCA quantum chemistry program package
     J. Chem. Phys., 2020 152 Art. No. L224108
     doi.org/10.1063/5.0004608

List of optional additional citations

  1. Neese,F.
     Approximate second-order SCF convergence for spin unrestricted wavefunctions
     Chem. Phys. Lett., 2000 325(1-3)93-98
     doi.org/10.1016/s0009-2614(00)00662-x

Timings for individual modules:

Sum of individual times          ...        4.179 sec (=   0.070 min)
Startup calculation              ...        0.287 sec (=   0.005 min)   6.9 %
SCF iterations                   ...        3.858 sec (=   0.064 min)  92.3 %
Property calculations            ...        0.034 sec (=   0.001 min)   0.8 %
                             ****ORCA TERMINATED NORMALLY****
TOTAL RUN TIME: 0 days 0 hours 0 minutes 4 seconds 249 msec
