15
 energy: -287.715349639747 gnorm: 0.024879822971 xtb: 6.7.1 (41059b4)
C           -0.73859676482729       -1.18967582132718        0.23076193590226
C            0.72774675392248       -1.16678344281703       -0.21969242899735
O            1.38240943561258        0.00033262440015        0.23282994660317
C            0.72720062622224        1.16710541411718       -0.21960965239731
C           -0.73929469172760        1.18935811492704        0.23065727150221
N           -1.45526805094487       -0.00038868900017       -0.20273777888984
H           -0.77907055744523       -1.21520479403849        1.32339353138643
H           -1.24217474535044       -2.07379281381895       -0.16389369617263
H            1.28413856566904       -2.00636151038907        0.19975636908852
H            0.77669050454417       -1.21577952043874       -1.32107981558541
H            1.28306772366856        2.00689505808931        0.20011998488868
H            0.77619160404395        1.21643831973904       -1.32095909678535
H           -0.77991832424560        1.21515398853847        1.32328729888638
H           -1.24321584675090        2.07313830741866       -0.16428284557280
H           -1.52291322347484       -0.00041636120018       -1.21842031103991
15
 energy: -287.716157340424 gnorm: 0.011881740488 xtb: 6.7.1 (41059b4)
C           -0.73772573662382       -1.19614719016366        0.22428839194943
C            0.72800215473306       -1.17461610877364       -0.21570297353348
O            1.38243331916992        0.00035688628809        0.24317522350848
C            0.72746455781154        1.17501517864896       -0.21561792817838
C           -0.73837569450009        1.19580110697971        0.22420234588280
N           -1.46682983819982       -0.00038711125971       -0.20055781141343
H           -0.77450925082834       -1.23823430430495        1.32023617884287
H           -1.23788854121906       -2.08907582564813       -0.16582040529703
H            1.28589461175249       -2.02046895838280        0.19769358796326
H            0.77783326763023       -1.22546128361595       -1.31933398600623
H            1.28485753387029        2.02110180263176        0.19797956526277
H            0.77737748398527        1.22606590300776       -1.31923179743315
H           -0.77534561436211        1.23809216171635        1.32013749458195
H           -1.23891580806817        2.08840343946062       -0.16615923441848
H           -1.53727950078799       -0.00042682713125       -1.21515808353495
15
 energy: -287.716320855034 gnorm: 0.003642202276 xtb: 6.7.1 (41059b4)
C           -0.73565765861438       -1.20101405491351        0.22414313066685
C            0.72596372154015       -1.17655614823039       -0.21726062823405
O            1.38263756255094        0.00035561808136        0.25051198582989
C            0.72539362585982        1.17695806479889       -0.21719551886096
C           -0.73629714685350        1.20069009897827        0.22407873524750
N           -1.47141286767365       -0.00036864731750       -0.19520368772004
H           -0.77589596004316       -1.25535339963296        1.32135472592535
H           -1.23605622169219       -2.09498911984796       -0.16905966180052
H            1.28386555187479       -2.02495004722383        0.19481443839028
H            0.78456725855722       -1.22555974137504       -1.32162795679497
H            1.28280934748029        2.02560979902924        0.19501025034294
H            0.78408185764454        1.22610582841011       -1.32155596492444
H           -0.77669686230661        1.25515358153018        1.32127373343604
H           -1.23710691229157        2.09435414885841       -0.16931019504494
H           -1.54320241098714       -0.00041713864461       -1.20984296000791
15
 energy: -287.716339345619 gnorm: 0.001065798327 xtb: 6.7.1 (41059b4)
C           -0.73455005654231       -1.20217874623852        0.22406508690660
C            0.72546010484151       -1.17667703665840       -0.21706879672281
O            1.38333774955359        0.00036415703200        0.25308708706673
C            0.72488085201841        1.17709196885245       -0.21702706676693
C           -0.73517870910538        1.20185274271726        0.22400951036127
N           -1.47298847878359       -0.00036630564118       -0.19149499201194
H           -0.77580274741343       -1.26060369254661        1.32069874873577
H           -1.23653078681807       -2.09362752336843       -0.17301338869594
H            1.28419795268030       -2.02510787942040        0.19375773989025
H            0.78585312438167       -1.22218114043846       -1.32101868203270
H            1.28314969979378        2.02578727087880        0.19389449940862
H            0.78533143092952        1.22270642546401       -1.32097156854339
H           -0.77655823716638        1.26036721440977        1.32063015044633
H           -1.23758072421451        2.09300426334815       -0.17320433634465
H           -1.54602834454440       -0.00041288722494       -1.20621364490754
15
 energy: -287.716346490618 gnorm: 0.001296163237 xtb: 6.7.1 (41059b4)
C           -0.73363540496004       -1.20350341474055        0.22432596867900
C            0.72527608114452       -1.17590134920288       -0.21654450232216
O            1.38334607653792        0.00037573119209        0.25714026205608
C            0.72467662206599        1.17632192020229       -0.21654533101535
C           -0.73425831733067        1.20318533311947        0.22429320963193
N           -1.47349534382617       -0.00035674617950       -0.18641078999128
H           -0.77549748541674       -1.26728666242806        1.31991368916855
H           -1.23650964885225       -2.09116144562566       -0.17926536034565
H            1.28448924048707       -2.02468475740740        0.19200244230666
H            0.78619093223108       -1.21642226043145       -1.32007443869132
H            1.28344329197834        2.02538376648266        0.19203623783423
H            0.78560469303228        1.21689749383599       -1.32007164122794
H           -0.77618422625917        1.26699757233148        1.31987566376554
H           -1.23757528664346        2.09056642977698       -0.17935184704893
H           -1.54887845991728       -0.00039279766210       -1.20119332672043
15
 energy: -287.716348106837 gnorm: 0.000298372942 xtb: 6.7.1 (41059b4)
C           -0.73394156047982       -1.20333758309224        0.22448647747429
C            0.72551595912519       -1.17606054113714       -0.21663477515134
O            1.38250147891195        0.00037769199021        0.25674830351351
C            0.72491983077476        1.17648382123549       -0.21663393760110
C           -0.73456392608027        1.20301778694764        0.22445479532284
N           -1.47275180788233       -0.00035698627950       -0.18714330878775
H           -0.77592337596470       -1.26660655149755        1.32021822330621
H           -1.23625334097427       -2.09135949561135       -0.17866370225640
H            1.28490177482793       -2.02466075028113        0.19200626977112
H            0.78620215899014       -1.21669672160140       -1.32024334029415
H            1.28386091061426        2.02536482875512        0.19203344708872
H            0.78561237724108        1.21716715814677       -1.32023972765759
H           -0.77660730747230        1.26631292686526        1.32018216861281
H           -1.23732053217680        2.09076404253257       -0.17874754458492
H           -1.54915987205786       -0.00039081351551       -1.20169310215087
15
 energy: -287.716348106837 gnorm: 0.000298372942 xtb: 6.7.1 (41059b4)
C           -0.73394156047982       -1.20333758309224        0.22448647747429
C            0.72551595912519       -1.17606054113714       -0.21663477515134
O            1.38250147891195        0.00037769199021        0.25674830351351
C            0.72491983077476        1.17648382123549       -0.21663393760110
C           -0.73456392608027        1.20301778694764        0.22445479532284
N           -1.47275180788233       -0.00035698627950       -0.18714330878775
H           -0.77592337596470       -1.26660655149755        1.32021822330621
H           -1.23625334097427       -2.09135949561135       -0.17866370225640
H            1.28490177482793       -2.02466075028113        0.19200626977112
H            0.78620215899014       -1.21669672160140       -1.32024334029415
H            1.28386091061426        2.02536482875512        0.19203344708872
H            0.78561237724108        1.21716715814677       -1.32023972765759
H           -0.77660730747230        1.26631292686526        1.32018216861281
H           -1.23732053217680        2.09076404253257       -0.17874754458492
H           -1.54915987205786       -0.00039081351551       -1.20169310215087
