19
 energy: -386.007194366498 gnorm: 0.001958945739 xtb: 6.7.1 (41059b4)
C           -2.51723120471674        0.73521839247121       -0.00273427945716
C           -1.22839615858611       -0.03369132819434       -0.02174620395081
C           -1.19386987367502       -1.42477141638680       -0.08433469532340
C            0.01227465246036       -2.11877738449306       -0.09205764781324
C            1.20889627669315       -1.41452703578031       -0.04304950983257
C            1.22207941318970       -0.02069770217912        0.01737637049905
C           -0.00741411828424        0.64963115389541        0.03088460384799
O           -0.08056777639084        2.01944634094506        0.09520972080196
C            2.51113170262993        0.75318231007916        0.06366549096458
H           -3.36077463816502        0.07808507387442       -0.21973803033663
H           -2.68525664294809        1.19875795318215        0.97421301831508
H           -2.50554057993884        1.54538419171851       -0.73563329818632
H           -2.13310645162914       -1.96920183031529       -0.12593746566167
H            0.01877896226237       -3.20236177903142       -0.13929184429284
H            2.15524037234327       -1.94818323581086       -0.05256908823385
H            0.81054645348294        2.38469194517236        0.11092591701582
H            3.36586948380596        0.07387975143142        0.05186727164573
H            2.62034069226508        1.42276560289186       -0.80046093719831
H            2.59527145296150        1.36153470809276        0.97440357269416
19
 energy: -386.007213736893 gnorm: 0.000794716846 xtb: 6.7.1 (41059b4)
C           -2.51740548228486        0.73511689330784       -0.00264999594998
C           -1.22850795794655       -0.03373370795198       -0.02263713132119
C           -1.19383224898483       -1.42500850361266       -0.08373030051210
C            0.01229626945504       -2.11869005398971       -0.09315979872174
C            1.20886778901168       -1.41430789133016       -0.04410275388331
C            1.22188099112699       -0.02063167284812        0.01660683946539
C           -0.00766716241134        0.64973851117239        0.02872172800465
O           -0.08059315563840        2.01976221228725        0.09535951037198
C            2.51100033583797        0.75320589123409        0.06487003648337
H           -3.36282696364760        0.07439490985523       -0.20944121993013
H           -2.67907203400742        1.20789363783941        0.97324688529959
H           -2.50873770043411        1.53991992691279       -0.74408616227341
H           -2.13310578420117       -1.96923983033078       -0.12736461130732
H            0.01887340694608       -3.20220391893023       -0.14151710964584
H            2.15518611024729       -1.94791058457401       -0.05344895266628
H            0.81095631691915        2.38403398415327        0.11341826165047
H            3.36562964385953        0.07380434380879        0.05326944930100
H            2.62086900121855        1.42348837283063       -0.79861028914940
H            2.59446059869063        1.36073284609093        0.97624874100418
19
 energy: -386.007240622915 gnorm: 0.002725491192 xtb: 6.7.1 (41059b4)
C           -2.51736807032831        0.73505881189741       -0.00247039082109
C           -1.22859945779507       -0.03403336457542       -0.02415104728315
C           -1.19357684458380       -1.42546890378457       -0.08662455958830
C            0.01255570287072       -2.11868918586895       -0.09671097843636
C            1.20902268852062       -1.41406861115211       -0.04659377841918
C            1.22171594104212       -0.02066046976421        0.01577006761794
C           -0.00801079457369        0.64953200549060        0.02784114014876
O           -0.08102455539974        2.01997488180856        0.09507237334648
C            2.51080880625158        0.75322990744867        0.06777188102925
H           -3.36664313854595        0.06899341817942       -0.18297147041384
H           -2.66451098953322        1.23031758219303        0.96675305875977
H           -2.51894616397898        1.52480881076069       -0.76260762873295
H           -2.13300917065545       -1.96949864097963       -0.12923335732949
H            0.01931743565432       -3.20212596376861       -0.14617518163520
H            2.15533156776583       -1.94755715942225       -0.05585476757231
H            0.81112790975195        2.38277757658100        0.11782357830910
H            3.36532482115577        0.07375058669829        0.05594975690052
H            2.62200447870428        1.42586335775723       -0.79366111781027
H            2.59275167456344        1.35815986080081        0.98106580738617
19
 energy: -386.007262906442 gnorm: 0.003667856211 xtb: 6.7.1 (41059b4)
C           -2.51704790870119        0.73509729122753       -0.00220230744369
C           -1.22865977867536       -0.03441316882680       -0.02463235377693
C           -1.19351972484501       -1.42581258699503       -0.08834077815232
C            0.01272065062007       -2.11871998108672       -0.10045785409988
C            1.20914156358268       -1.41397717456849       -0.04881873795366
C            1.22160293878899       -0.02068394777559        0.01544686796740
C           -0.00828092953434        0.64922319748499        0.02714290586179
O           -0.08170317167547        2.01975757964219        0.09534818564795
C            2.51062009378831        0.75323402493718        0.07058520965265
H           -3.36926507034966        0.06510739489837       -0.15605987206093
H           -2.65011584151584        1.25293801643904        0.95794926183308
H           -2.52945358319319        1.50814006885000       -0.78046816197403
H           -2.13296611856970       -1.96971384282649       -0.13210982135630
H            0.01972125323835       -3.20210780882563       -0.15135247956506
H            2.15550413826369       -1.94740173114673       -0.05834486226052
H            0.81058559707251        2.38199661454860        0.12244994953890
H            3.36518432425229        0.07381822227653        0.05824557990914
H            2.62287542153503        1.42806751822805       -0.78895796051018
H            2.59132783442247        1.35581393866430        0.98557088599793
19
 energy: -386.007287981871 gnorm: 0.003974323034 xtb: 6.7.1 (41059b4)
C           -2.51653307323472        0.73524265587814       -0.00187722493117
C           -1.22873935930406       -0.03491313363419       -0.02491990588772
C           -1.19353077837916       -1.42613332467227       -0.09157569611683
C            0.01288972871067       -2.11879586598074       -0.10493551015657
C            1.20921360686772       -1.41398541826565       -0.05144057865352
C            1.22152065945059       -0.02077381854552        0.01558909692385
C           -0.00847588251999        0.64877968401498        0.02782909435216
O           -0.08259349691097        2.01928474704138        0.09619589298440
C            2.51035470354636        0.75321892706312        0.07394660581337
H           -3.37143512236173        0.06163651652567       -0.12280217569862
H           -2.63275510488517        1.28065039027182        0.94518068189770
H           -2.54246305619249        1.48640095954318       -0.80171211979091
H           -2.13293421113708       -1.97009177853763       -0.13527661576667
H            0.02016841270206       -3.20209344311219       -0.15780689989469
H            2.15562226306103       -1.94733688674775       -0.06145842492234
H            0.80950511096044        2.38158469823169        0.12804309870503
H            3.36504177022743        0.07397522905945        0.06049285163030
H            2.62340234461930        1.43071900502735       -0.78336691292350
H            2.59001296146507        1.35299340605361        0.99088870081677
19
 energy: -386.007314481360 gnorm: 0.002062982801 xtb: 6.7.1 (41059b4)
C           -2.51612295990046        0.73545232534915       -0.00180456154936
C           -1.22876941722720       -0.03522562249750       -0.02432378018921
C           -1.19362348435487       -1.42618201509266       -0.09371494592310
C            0.01297225602728       -2.11883527516886       -0.10795255486764
C            1.20921603821831       -1.41412638338796       -0.05287304028266
C            1.22156218207392       -0.02089238149709        0.01635293143747
C           -0.00841295108425        0.64845888595137        0.02951150695579
O           -0.08314531979745        2.01871421135502        0.09775406583785
C            2.51021074109641        0.75314505944966        0.07589183929951
H           -3.37140657527825        0.06129484783849       -0.10133871769949
H           -2.62241936674425        1.29815795633241        0.93404240459483
H           -2.55129931290834        1.47066945855864       -0.81429843785381
H           -2.13290516168901       -1.97034673471505       -0.13732205563961
H            0.02037130240840       -3.20206822998665       -0.16218793556223
H            2.15565708008647       -1.94745009009566       -0.06351919469418
H            0.80842058223584        2.38191964156588        0.13189263237960
H            3.36508098884272        0.07413524038225        0.06121694359218
H            2.62314750657555        1.43220469658489       -0.78018859416901
H            2.58973717762617        1.35133626551432        0.99385562604987
19
 energy: -386.007326197021 gnorm: 0.000541542311 xtb: 6.7.1 (41059b4)
C           -2.51589548886987        0.73565964868430       -0.00196255024862
C           -1.22880167995049       -0.03542025505963       -0.02363651484968
C           -1.19374301143387       -1.42609371167529       -0.09527574612616
C            0.01300891273954       -2.11881319482440       -0.11061630371057
C            1.20917407432438       -1.41426872030004       -0.05428526902021
C            1.22161434603853       -0.02100557330188        0.01724621626504
C           -0.00828547310731        0.64823670574720        0.03131089829110
O           -0.08356274253180        2.01813226756390        0.10030015976418
C            2.51011959292722        0.75301894448356        0.07767779100973
H           -3.37136927078148        0.06071607015444       -0.08088900153704
H           -2.61275442812917        1.31508116109224        0.92292095734036
H           -2.55952247192703        1.45501311280613       -0.82684197345065
H           -2.13286322387010       -1.97049564173686       -0.13925518038516
H            0.02041610518481       -3.20196198613996       -0.16658072442779
H            2.15565694291383       -1.94754759330616       -0.06581448145537
H            0.80738717986793        2.38256811866648        0.13590414820132
H            3.36517315867823        0.07424520007400        0.06169727902704
H            2.62271189857717        1.43341955150755       -0.77738708424994
H            2.58980670745475        1.34987708437642        0.99648168764027
19
 energy: -386.007328573043 gnorm: 0.000764819413 xtb: 6.7.1 (41059b4)
C           -2.51576602835850        0.73585423207306       -0.00222805101215
C           -1.22880657089912       -0.03558739906157       -0.02293742482369
C           -1.19377688768734       -1.42599626421341       -0.09694840831594
C            0.01309214155997       -2.11873323797945       -0.11406252382050
C            1.20917823258429       -1.41433998695181       -0.05632629369842
C            1.22163961252723       -0.02111733080803        0.01810658359448
C           -0.00819447407685        0.64804084158798        0.03317405729176
O           -0.08390517145280        2.01760341683995        0.10390586304578
C            2.51004811297084        0.75285129045399        0.08005019892703
H           -3.37199279457814        0.05885861448589       -0.05456796049610
H           -2.60042804603222        1.33736921162817        0.90968681571778
H           -2.57024227488994        1.43521036074354       -0.84400372694031
H           -2.13275913487355       -1.97057451362542       -0.14160872858650
H            0.02043375393852       -3.20177624719372       -0.17215925464820
H            2.15571834297648       -1.94752235536185       -0.06905449917940
H            0.80655440579169        2.38305481735332        0.14103080243556
H            3.36522599470871        0.07424981590899        0.06259351331803
H            2.62244883659729        1.43499307420591       -0.77367079054675
H            2.58980285661039        1.34792197875213        1.00001437427213
19
 energy: -386.007328573043 gnorm: 0.000764819413 xtb: 6.7.1 (41059b4)
C           -2.51576602835850        0.73585423207306       -0.00222805101215
C           -1.22880657089912       -0.03558739906157       -0.02293742482369
C           -1.19377688768734       -1.42599626421341       -0.09694840831594
C            0.01309214155997       -2.11873323797945       -0.11406252382050
C            1.20917823258429       -1.41433998695181       -0.05632629369842
C            1.22163961252723       -0.02111733080803        0.01810658359448
C           -0.00819447407685        0.64804084158798        0.03317405729176
O           -0.08390517145280        2.01760341683995        0.10390586304578
C            2.51004811297084        0.75285129045399        0.08005019892703
H           -3.37199279457814        0.05885861448589       -0.05456796049610
H           -2.60042804603222        1.33736921162817        0.90968681571778
H           -2.57024227488994        1.43521036074354       -0.84400372694031
H           -2.13275913487355       -1.97057451362542       -0.14160872858650
H            0.02043375393852       -3.20177624719372       -0.17215925464820
H            2.15571834297648       -1.94752235536185       -0.06905449917940
H            0.80655440579169        2.38305481735332        0.14103080243556
H            3.36522599470871        0.07424981590899        0.06259351331803
H            2.62244883659729        1.43499307420591       -0.77367079054675
H            2.58980285661039        1.34792197875213        1.00001437427213
