
                                 *****************
                                 * O   R   C   A *
                                 *****************

                                            #,                                       
                                            ###                                      
                                            ####                                     
                                            #####                                    
                                            ######                                   
                                           ########,                                 
                                     ,,################,,,,,                         
                               ,,#################################,,                 
                          ,,##########################################,,             
                       ,#########################################, ''#####,          
                    ,#############################################,,   '####,        
                  ,##################################################,,,,####,       
                ,###########''''           ''''###############################       
              ,#####''   ,,,,##########,,,,          '''####'''          '####       
            ,##' ,,,,###########################,,,                        '##       
           ' ,,###''''                  '''############,,,                           
         ,,##''                                '''############,,,,        ,,,,,,###''
      ,#''                                            '''#######################'''  
     '                                                          ''''####''''         
             ,#######,   #######,   ,#######,      ##                                
            ,#'     '#,  ##    ##  ,#'     '#,    #''#        ,####,   ,####,        
            ##       ##  ##   ,#'  ##            #'  '#       #'       #'  '#        
            ##       ##  #######   ##           ,######,      #####,   #    #        
            '#,     ,#'  ##    ##  '#,     ,#' ,#      #,     #,   #   #,  ,#        
             '#######'   ##     ##  '#######'  #'      '#     '####' # '####'        



                #########################################################
                #                        -***-                          #
                #          Department of theory and spectroscopy        #
                #                                                       #
                #                      Frank Neese                      #
                #                                                       #
                #     Directorship, Architecture, Infrastructure        #
                #                    SHARK, DRIVERS                     #
                #        Core code/Algorithms in most modules           #
                #                                                       #
                #        Max Planck Institute fuer Kohlenforschung      #
                #                Kaiser Wilhelm Platz 1                 #
                #                 D-45470 Muelheim/Ruhr                 #
                #                      Germany                          #
                #                                                       #
                #                  All rights reserved                  #
                #                        -***-                          #
                #########################################################


                         Program Version 6.0.1  -  RELEASE   -


 With contributions from (in alphabetic order):
[Max-Planck-Institut fuer Kohlenforschung]                               
  Daniel Aravena         : Magnetic Suceptibility                        
  Michael Atanasov       : Ab Initio Ligand Field Theory (pilot matlab implementation)
  Alexander A. Auer      : GIAO ZORA, VPT2 properties, NMR spectrum      
  Ute Becker             : All parallelization in ORCA, NUMFREQ, NUMCALC 
  Giovanni Bistoni       : ED, misc. LED, open-shell LED, HFLD           
  Martin Brehm           : Molecular dynamics                            
  Dmytro Bykov           : pre 5.0 version of the SCF Hessian            
  Marcos Casanova-Páez   : Triplet and SCS-CIS(D). UHF-(DLPNO)-IP/EA/STEOM-CCSD. UHF-CVS-IP/STEOM-CCSD   
  Vijay G. Chilkuri      : MRCI spin determinant printing, contributions to CSF-ICE 
  Pauline Colinet        : FMM embedding                                 
  Dipayan Datta          : RHF DLPNO-CCSD density                        
  Achintya Kumar Dutta   : EOM-CC, STEOM-CC                              
  Nicolas Foglia         : Exact transition moments, OPA infrastructure, MCD improvements    
  Dmitry Ganyushin       : Spin-Orbit,Spin-Spin,Magnetic field MRCI      
  Miquel Garcia-Rates    : C-PCM and meta-GGA Hessian, CCSD/C-PCM, Gaussian charge scheme 
  Tiago L. C. Gouveia    : GS-ROHF, GS-ROCIS                             
  Yang Guo               : DLPNO-NEVPT2, F12-NEVPT2, CIM, IAO-localization        
  Andreas Hansen         : Spin unrestricted coupled pair/coupled cluster methods 
  Ingolf Harden          : AUTO-CI MPn and infrastructure                
  Benjamin Helmich-Paris : MC-RPA, TRAH-(SCF,CASSCF), AVAS, COSX integrals, SCF dyn. polar. 
  Lee Huntington         : MR-EOM, pCC                                   
  Robert Izsak           : Overlap fitted RIJCOSX, COSX-SCS-MP3, EOM     
  Riya Kayal             : Wick's Theorem for AUTO-CI, AUTO-CI UHF-CCSDT 
  Emily Kempfer          : AUTO-CI, RHF CISDT and CCSDT                  
  Christian Kollmar      : KDIIS, OOCD, Brueckner-CCSD(T), CCSD density, CASPT2, CASPT2-K, improved NEVPT2 
  Axel Koslowski         : Symmetry handling                             
  Simone Kossmann        : meta-GGA functionals, TD-DFT gradient, OOMP2, (MP2 Hessian; deprecated post 5.0) 
  Lucas Lang             : DCDCAS                                        
  Marvin Lechner         : AUTO-CI (C++ implementation), FIC-MRCC        
  Spencer Leger          : CASSCF response                               
  Dagmar Lenk            : GEPOL surface, SMD, ORCA-2-JSON               
  Dimitrios Liakos       : Extrapolation schemes; Compound Job, initial MDCI parallelization 
  Dimitrios Manganas     : Further ROCIS development; embedding schemes. LFT, Crystal Embedding 
  Dimitrios Pantazis     : SARC Basis sets                               
  Anastasios Papadopoulos: AUTO-CI, single reference methods and gradients 
  Taras Petrenko         : pre 6.0 DFT Hessian and TD-DFT gradient, (ASA, deprecated), ECA, 1-Electron XAS/XES, NRVS 
  Peter Pinski           : DLPNO-MP2, DLPNO-MP2 Gradient                 
  Christoph Reimann      : Effective Core Potentials                     
  Marius Retegan         : Local ZFS, SOC                                
  Christoph Riplinger    : Optimizer, TS searches, QM/MM, DLPNO-CCSD(T), (RO)-DLPNO pert. Triples 
  Michael Roemelt        : Original ROCIS implementation                 
  Masaaki Saitow         : Open-shell DLPNO-CCSD energy and density      
  Barbara Sandhoefer     : DKH picture change effects                    
  Kantharuban Sivalingam : CASSCF convergence/infrastructure, NEVPT2 and variants, FIC-MRCI 
  Bernardo de Souza      : ESD, SOC TD-DFT                               
  Georgi L. Stoychev     : AutoAux, RI-MP2 NMR, DLPNO-MP2 response, X2C  
  Van Anh Tran           : RI-MP2 g-tensors                              
  Willem Van den Heuvel  : Paramagnetic NMR                              
  Zikuan Wang            : NOTCH, Electric field optimization            
  Frank Wennmohs         : Technical directorship and infrastructure     
  Hang Xu                : AUTO-CI-Response properties                   
                                                                         
[FACCTs GmbH]                                                            
  Markus Bursch, Miquel Garcia-Rates, Christoph Riplinger, Bernardo de Souza, Georgi L. Stoychev 
                                                                 
  APM, Basis sets (HGBS, AHGBS, def-TZVP (Ac-Lr), def2-XVPD (La-Lu)), CI-OPT, improved COSX, DLPNO-Multilevel,           
  DOCKER, DRACO, updates on ESD, GOAT, IRC, LR-CPCM, MBIS, meta-GGA TD-DFT gradient, ML-optimized integration grids, 
  MM, NACMEs, nearIR, NEB, NEB-TS, NL-DFT gradient (VV10), 2- and 3-layer-ONIOM, interface openCOSMO-RS, QMMM,   
  Crystal-QMMM, SF, symmetry and pop. for TD-DFT, r2SCAN hybrids, SOLVATOR                                   
                                                                         
[Other institutions]                                                     
  V. Asgeirsson          : NEB                                           
  Christoph Bannwarth    : sTDA-DFT, sTD-DFT, PBEh-3c, B97-3c, D3        
  Sebastian Ehlert       : rSCAN, r2SCAN, r2SCAN-3c, D4, dhf basis sets  
  Marvin Friede          : D4 for Fr, Ra, Ac-Lr                          
  Lars Goerigk           : TD-DFT with DH, B97 family of functionals     
  Stefan Grimme          : VdW corrections, initial TS optimization, DFT functionals, gCP, sTDA/sTD-DF 
  Waldemar Hujo          : DFT-NL                                        
  H. Jonsson             : NEB                                           
  Holger Kruse           : gCP                                           
  Marcel Mueller         : wB97X-3c, vDZP basis set                      
  Hagen Neugebauer       : wr2SCAN                                       
  Tobias Risthaus        : range-separated hybrid DFT                    
  Lukas Wittmann         : regularized MP2, r2SCAN double-hybrids, wr2SCAN        
                                                                         
We gratefully acknowledge several colleagues who have allowed us to      
interface, adapt or use parts of their codes:                            
  Ed Valeev, F. Pavosevic, A. Kumar             : LibInt (2-el integral package), F12 methods 
  Garnet Chan, S. Sharma, J. Yang, R. Olivares  : DMRG                   
  Ulf Ekstrom                                   : XCFun DFT Library      
  Mihaly Kallay                                 : mrcc  (arbitrary order and MRCC methods)
  Frank Weinhold                                : gennbo (NPA and NBO analysis)           
  Simon Mueller                                 : openCOSMO-RS                            
  Christopher J. Cramer and Donald G. Truhlar   : smd solvation model                     
  S Lehtola, MJT Oliveira, MAL Marques          : LibXC Library                           
  Liviu Ungur et al                             : ANISO software                          


 Your calculation uses the libint2 library for the computation of 2-el integrals
 For citations please refer to: http://libint.valeyev.net

 Your ORCA version has been built with support for libXC version: 6.2.2
 For citations please refer to: https://libxc.gitlab.io

 This ORCA versions uses:
   CBLAS   interface :  Fast vector & matrix operations
   LAPACKE interface :  Fast linear algebra routines
   SCALAPACK package :  Parallel linear algebra routines
   Shared memory     :  Shared parallel matrices
   BLAS/LAPACK       :  OpenBLAS 0.3.27  USE64BITINT DYNAMIC_ARCH NO_AFFINITY Zen SINGLE_THREADED
        Core in use  :  Zen
   Copyright (c) 2011-2014, The OpenBLAS Project


Your calculation utilizes the geometrical counterpoise correction gCP
Please cite in your paper:
H.Kruse, S. Grimme J.Chem.Phys., 136, (2012), 154101 
   

Your calculation utilizes the DFT-NL dispersion correction.
Cite in your paper:
Vydrov, O. A.; Van Voorhis, T. J. Chem. Phys. 2010, 133, 244103
Hujo, W.; Grimme, S. J. Chem. Theory Comput. 2011, 7, 3866 
   

================================================================================

----- Orbital basis set information -----
Your calculation utilizes the basis: def2-TZVP
   F. Weigend and R. Ahlrichs, Phys. Chem. Chem. Phys. 7, 3297 (2005).

----- AuxJ basis set information -----
Your calculation utilizes the auxiliary basis: def2/J
   F. Weigend, Phys. Chem. Chem. Phys. 8, 1057 (2006).

================================================================================
                                        WARNINGS
                       Please study these warnings very carefully!
================================================================================


================================================================================
                                       INPUT FILE
================================================================================
NAME = sp.inp
|  1> ! wb97x-v def2-tzvp def2/J RIJCOSX DEFGRID2 scfconv7 GCP(DFT/TZ) printgap
|  2> %output
|  3>     printlevel normal
|  4> end
|  5> * xyz 0 1
|  6> C -1.9532397575142226 1.1653997837136252 0.33130472752560874
|  7> C -1.489471233289209 -0.1510164527445957 -0.2826233841427932
|  8> C -0.010006435542636513 -0.4522110561611435 -0.20545190231327745
|  9> O 0.4802148625246074 -1.528447703863772 -0.45855956536527664
| 10> O 0.7174505956414615 0.6298657052210515 0.16019900455509997
| 11> C 2.141939223060627 0.40528258429499686 0.22704041957096532
| 12> H -1.492282595536203 2.021318819853593 -0.16627790232801237
| 13> H -3.0389580658539392 1.2589724657729897 0.23883618205959556
| 14> H -1.696128834850465 1.2190497453971563 1.3923188391872379
| 15> H -1.7463250102961312 -0.19462448333519516 -1.3489597183253252
| 16> H -1.9951819568181814 -1.0081754102710143 0.17394818117398447
| 17> H 2.3683688868736437 -0.3926599030820825 0.9387137588437904
| 18> H 2.5698070760267866 1.351938358718301 0.5568252102985928
| 19> H 2.529288113887821 0.12655386276148353 -0.7564507170569204
| 20> *
| 21> 
| 22>                          ****END OF INPUT****
================================================================================

                       ****************************
                       * Single Point Calculation *
                       ****************************

---------------------------------
CARTESIAN COORDINATES (ANGSTROEM)
---------------------------------
  C     -1.953240    1.165400    0.331305
  C     -1.489471   -0.151016   -0.282623
  C     -0.010006   -0.452211   -0.205452
  O      0.480215   -1.528448   -0.458560
  O      0.717451    0.629866    0.160199
  C      2.141939    0.405283    0.227040
  H     -1.492283    2.021319   -0.166278
  H     -3.038958    1.258972    0.238836
  H     -1.696129    1.219050    1.392319
  H     -1.746325   -0.194624   -1.348960
  H     -1.995182   -1.008175    0.173948
  H      2.368369   -0.392660    0.938714
  H      2.569807    1.351938    0.556825
  H      2.529288    0.126554   -0.756451

----------------------------
CARTESIAN COORDINATES (A.U.)
----------------------------
  NO LB      ZA    FRAG     MASS         X           Y           Z
   0 C     6.0000    0    12.011   -3.691088    2.202286    0.626075
   1 C     6.0000    0    12.011   -2.814693   -0.285380   -0.534081
   2 C     6.0000    0    12.011   -0.018909   -0.854555   -0.388248
   3 O     8.0000    0    15.999    0.907475   -2.888348   -0.866552
   4 O     8.0000    0    15.999    1.355785    1.190274    0.302732
   5 C     6.0000    0    12.011    4.047679    0.765873    0.429044
   6 H     1.0000    0     1.008   -2.820005    3.819739   -0.314220
   7 H     1.0000    0     1.008   -5.742798    2.379113    0.451335
   8 H     1.0000    0     1.008   -3.205219    2.303670    2.631101
   9 H     1.0000    0     1.008   -3.300076   -0.367787   -2.549164
  10 H     1.0000    0     1.008   -3.770347   -1.905175    0.328714
  11 H     1.0000    0     1.008    4.475569   -0.742020    1.773912
  12 H     1.0000    0     1.008    4.856232    2.554793    1.052247
  13 H     1.0000    0     1.008    4.779662    0.239152   -1.429485

--------------------------------
INTERNAL COORDINATES (ANGSTROEM)
--------------------------------
 C      0   0   0     0.000000000000     0.00000000     0.00000000
 C      1   0   0     1.524775615613     0.00000000     0.00000000
 C      2   1   0     1.511783620267   116.68636413     0.00000000
 O      3   2   1     1.209407182066   124.28329304   168.28170741
 O      3   2   1     1.354172971018   112.35204778   347.25838319
 C      5   3   2     1.443631948459   114.72513102   181.04542548
 H      1   2   3     1.092093116514   111.39617954    61.45680974
 H      1   2   3     1.093659235682   109.98485966   181.50361130
 H      1   2   3     1.093039473252   111.20273483   301.27101018
 H      2   1   3     1.097701553562   110.74799980   239.04549385
 H      2   1   3     1.094953153617   111.56080297   121.95392938
 H      6   5   3     1.092914245331   110.37501380   301.26356352
 H      6   5   3     1.089947734089   105.44098877   181.50746829
 H      6   5   3     1.093153090495   110.34378997    61.85503056

---------------------------
INTERNAL COORDINATES (A.U.)
---------------------------
 C      0   0   0     0.000000000000     0.00000000     0.00000000
 C      1   0   0     2.881408329191     0.00000000     0.00000000
 C      2   1   0     2.856857016052   116.68636413     0.00000000
 O      3   2   1     2.285448358502   124.28329304   168.28170741
 O      3   2   1     2.559016053183   112.35204778   347.25838319
 C      5   3   2     2.728069020767   114.72513102   181.04542548
 H      1   2   3     2.063756902952   111.39617954    61.45680974
 H      1   2   3     2.066716439273   109.98485966   181.50361130
 H      1   2   3     2.065545258012   111.20273483   301.27101018
 H      2   1   3     2.074355313012   110.74799980   239.04549385
 H      2   1   3     2.069161589810   111.56080297   121.95392938
 H      6   5   3     2.065308611537   110.37501380   301.26356352
 H      6   5   3     2.059702717717   105.44098877   181.50746829
 H      6   5   3     2.065759963485   110.34378997    61.85503056

---------------------
BASIS SET INFORMATION
---------------------
There are 3 groups of distinct atoms

 Group   1 Type C   : 11s6p2d1f contracted to 5s3p2d1f pattern {62111/411/11/1}
 Group   2 Type O   : 11s6p2d1f contracted to 5s3p2d1f pattern {62111/411/11/1}
 Group   3 Type H   : 5s1p contracted to 3s1p pattern {311/1}

Atom   0C    basis set group =>   1
Atom   1C    basis set group =>   1
Atom   2C    basis set group =>   1
Atom   3O    basis set group =>   2
Atom   4O    basis set group =>   2
Atom   5C    basis set group =>   1
Atom   6H    basis set group =>   3
Atom   7H    basis set group =>   3
Atom   8H    basis set group =>   3
Atom   9H    basis set group =>   3
Atom  10H    basis set group =>   3
Atom  11H    basis set group =>   3
Atom  12H    basis set group =>   3
Atom  13H    basis set group =>   3
---------------------------------
AUXILIARY/J BASIS SET INFORMATION
---------------------------------
There are 3 groups of distinct atoms

 Group   1 Type C   : 12s5p4d2f1g contracted to 6s4p3d1f1g pattern {711111/2111/211/2/1}
 Group   2 Type O   : 12s5p4d2f1g contracted to 6s4p3d1f1g pattern {711111/2111/211/2/1}
 Group   3 Type H   : 5s2p1d contracted to 3s1p1d pattern {311/2/1}

Atom   0C    basis set group =>   1
Atom   1C    basis set group =>   1
Atom   2C    basis set group =>   1
Atom   3O    basis set group =>   2
Atom   4O    basis set group =>   2
Atom   5C    basis set group =>   1
Atom   6H    basis set group =>   3
Atom   7H    basis set group =>   3
Atom   8H    basis set group =>   3
Atom   9H    basis set group =>   3
Atom  10H    basis set group =>   3
Atom  11H    basis set group =>   3
Atom  12H    basis set group =>   3
Atom  13H    basis set group =>   3

Checking for AutoStart:
The File: sp.gbw exists
Trying to determine its content:
     ... Fine, the file contains calculation information
     ... Fine, the calculation information was read
     ... Fine, the file contains a basis set
     ... Fine, the basis set was read
     ... Fine, the file contains a geometry
     ... Fine, the geometry was read
     ... Fine, the file contains a set of orbitals
     ... Fine, the orbitals can be read
     => possible old guess file was deleted
     => GBW file was renamed to GES file
     => GES file is set as startup file
     => Guess is set to MORead
     ... now leaving AutoStart

------------------------------------------------------------------------------
                             ORCA STARTUP CALCULATIONS
                           -- RI-GTO INTEGRALS CHOSEN --
------------------------------------------------------------------------------
------------------------------------------------------------------------------
                   ___                                                        
                  /   \      - P O W E R E D   B Y -                         
                 /     \                                                     
                 |  |  |   _    _      __       _____    __    __             
                 |  |  |  | |  | |    /  \     |  _  \  |  |  /  |          
                  \  \/   | |  | |   /    \    | | | |  |  | /  /          
                 / \  \   | |__| |  /  /\  \   | |_| |  |  |/  /          
                |  |  |   |  __  | /  /__\  \  |    /   |      \           
                |  |  |   | |  | | |   __   |  |    \   |  |\   \          
                \     /   | |  | | |  |  |  |  | |\  \  |  | \   \       
                 \___/    |_|  |_| |__|  |__|  |_| \__\ |__|  \__/        
                                                                              
                      - O R C A' S   B I G   F R I E N D -                    
                                      &                                       
                       - I N T E G R A L  F E E D E R -                       
                                                                              
 v1 FN, 2020, v2 2021, v3 2022-2024                                           
------------------------------------------------------------------------------


----------------------
SHARK INTEGRAL PACKAGE
----------------------

Number of atoms                             ...     14
Number of basis functions                   ...    234
Number of shells                            ...     98
Maximum angular momentum                    ...      3
Integral batch strategy                     ... SHARK/LIBINT Hybrid
RI-J (if used) integral strategy            ... SPLIT-RIJ (Revised 2003 algorithm where possible)
Printlevel                                  ...      1
Contraction scheme used                     ... SEGMENTED contraction
Prescreening option                         ... SCHWARTZ
   Thresh                                   ... 3.000e-11
   Tcut                                     ... 1.000e-12
   Tpresel                                  ... 1.000e-12 
Coulomb Range Separation                    ... NOT USED
Exchange Range Separation                   ... Long Range
   Mu parameter                             ... 3.000e-01
   Scaling (regular/separated)              ... 1.670e-01 8.330e-01
Multipole approximations                    ... NOT USED
Finite Nucleus Model                        ... NOT USED
CABS basis                                  ... NOT available
Auxiliary Coulomb fitting basis             ... AVAILABLE
   # of basis functions in Aux-J            ...    382
   # of shells in Aux-J                     ...    130
   Maximum angular momentum in Aux-J        ...      4
Auxiliary J/K fitting basis                 ... NOT available
Auxiliary Correlation fitting basis         ... NOT available
Auxiliary 'external' fitting basis          ... NOT available

Checking pre-screening integrals            ... done (  0.0 sec) Dimension = 98
Check shell pair data                       ... done (  0.0 sec)
Shell pair information
Shell pair cut-off parameter TPreSel        ...   1.0e-12
Total number of shell pairs                 ...      4851
Shell pairs after pre-screening             ...      4546
Total number of primitive shell pairs       ...     14352
Primitive shell pairs kept                  ...     10407
          la=0 lb=0:   1347 shell pairs
          la=1 lb=0:   1314 shell pairs
          la=1 lb=1:    340 shell pairs
          la=2 lb=0:    612 shell pairs
          la=2 lb=1:    305 shell pairs
          la=2 lb=2:     77 shell pairs
          la=3 lb=0:    304 shell pairs
          la=3 lb=1:    154 shell pairs
          la=3 lb=2:     72 shell pairs
          la=3 lb=3:     21 shell pairs

Calculating one electron integrals          ... done (  0.0 sec)
Calculating RI/J V-Matrix + Cholesky decomp.... done (  0.0 sec)
Calculating Nuclear repulsion               ... done (  0.0 sec) ENN=    246.259835350185 Eh

Diagonalization of the overlap matrix:
Smallest eigenvalue                        ... 2.023e-04
Time for diagonalization                   ...    0.006 sec
Threshold for overlap eigenvalues          ... 1.000e-07
Number of eigenvalues below threshold      ... 0
Time for construction of square roots      ...    0.002 sec
Total time needed                          ...    0.009 sec

-------------------
DFT GRID GENERATION
-------------------

General Integration Accuracy     IntAcc      ... 4.388
Radial Grid Type                 RadialGrid  ... OptM3 with GC (2021)
Angular Grid (max. ang.)         AngularGrid ... 4 (Lebedev-302)
Angular grid pruning method      GridPruning ... 4 (adaptive)
Weight generation scheme         WeightScheme... mBecke (2022)
Basis function cutoff            BFCut       ... 1.0000e-11
Integration weight cutoff        WCut        ... 1.0000e-14
Partially contracted basis set               ... off
Rotationally invariant grid construction     ... off
Angular grids for H and He will be reduced by one unit

Total number of grid points                  ...    62185
Total number of batches                      ...      979
Average number of points per batch           ...       63
Average number of grid points per atom       ...     4442

--------------------
COSX GRID GENERATION
--------------------

GRIDX 1
-------
General Integration Accuracy     IntAcc      ... 3.816
Radial Grid Type                 RadialGrid  ... OptM3 with GC (2021)
Angular Grid (max. ang.)         AngularGrid ... 1 (Lebedev-50)
Angular grid pruning method      GridPruning ... 4 (adaptive)
Weight generation scheme         WeightScheme... mBecke (2022)
Basis function cutoff            BFCut       ... 1.0000e-11
Integration weight cutoff        WCut        ... 1.0000e-14
Partially contracted basis set               ... on
Rotationally invariant grid construction     ... off
Angular grids for H and He will be reduced by one unit

Total number of grid points                  ...     7993
Total number of batches                      ...       72
Average number of points per batch           ...      111
Average number of grid points per atom       ...      571
UseSFitting                                  ... on

GRIDX 2
-------
General Integration Accuracy     IntAcc      ... 4.020
Radial Grid Type                 RadialGrid  ... OptM3 with GC (2021)
Angular Grid (max. ang.)         AngularGrid ... 2 (Lebedev-110)
Angular grid pruning method      GridPruning ... 4 (adaptive)
Weight generation scheme         WeightScheme... mBecke (2022)
Basis function cutoff            BFCut       ... 1.0000e-11
Integration weight cutoff        WCut        ... 1.0000e-14
Partially contracted basis set               ... on
Rotationally invariant grid construction     ... off
Angular grids for H and He will be reduced by one unit

Total number of grid points                  ...    17080
Total number of batches                      ...      141
Average number of points per batch           ...      121
Average number of grid points per atom       ...     1220
UseSFitting                                  ... on

GRIDX 3
-------
General Integration Accuracy     IntAcc      ... 4.338
Radial Grid Type                 RadialGrid  ... OptM3 with GC (2021)
Angular Grid (max. ang.)         AngularGrid ... 3 (Lebedev-194)
Angular grid pruning method      GridPruning ... 4 (adaptive)
Weight generation scheme         WeightScheme... mBecke (2022)
Basis function cutoff            BFCut       ... 1.0000e-11
Integration weight cutoff        WCut        ... 1.0000e-14
Partially contracted basis set               ... on
Rotationally invariant grid construction     ... off
Angular grids for H and He will be reduced by one unit

Total number of grid points                  ...    37501
Total number of batches                      ...      300
Average number of points per batch           ...      125
Average number of grid points per atom       ...     2679
UseSFitting                                  ... on
Initializing property integral containers    ... done (  0.0 sec)

SHARK setup successfully completed in   1.3 seconds

Maximum memory used throughout the entire STARTUP-calculation: 34.7 MB
-------------------------------------------------------------------------------
                                 ORCA GUESS
                   Start orbitals & Density for SCF / CASSCF
-------------------------------------------------------------------------------

------------
SCF SETTINGS
------------
Hamiltonian:
 Density Functional     Method          .... DFT(GTOs)
 Exchange Functional    Exchange        .... WB97X-V
 Correlation Functional Correlation     .... WB97X-V
 Gradients option       PostSCFGGA      .... off
 Hybrid DFT is turned on
   Fraction HF Exchange ScalHFX         ....  0.167000
   Scaling of DF-GGA-X  ScalDFX         ....  0.000000
   Scaling of DF-GGA-C  ScalDFC         ....  1.000000
   Scaling of DF-LDA-C  ScalLDAC        ....  1.000000
   Perturbative correction              ....  0.000000
 Long-range corrected/Screened/Range-Separated Hybrid DFT is turned on
   Amount of maximum screened exact exchange              ....  0.833000
   Range separation parameter mu (erf(mu*r12)/r12)        ....  0.300000
   NL short-range parameter             ....  6.000000
   NL long-range parameter              ....  0.010000
 RI-approximation to the Coulomb term is turned on
   Number of AuxJ basis functions       .... 382
   RIJ-COSX (HFX calculated with COS-X)).... on


General Settings:
 Integral files         IntName         .... sp
 Hartree-Fock type      HFTyp           .... RHF
 Total Charge           Charge          ....    0
 Multiplicity           Mult            ....    1
 Number of Electrons    NEL             ....   48
 Basis Dimension        Dim             ....  234
 Nuclear Repulsion      ENuc            ....    246.2598353502 Eh

Convergence Acceleration:
 AO-DIIS                CNVDIIS         .... on
   Start iteration      DIISMaxIt       ....    12
   Startup error        DIISStart       ....  0.200000
   # of expansion vecs  DIISMaxEq       ....     5
   Bias factor          DIISBfac        ....   1.050
   Max. coefficient     DIISMaxC        ....  10.000
 MO-DIIS                CNVKDIIS        .... off
 Trust-Rad. Augm. Hess. CNVTRAH         .... auto
   Auto Start mean grad. ratio tolernc. ....  1.125000
   Auto Start start iteration           ....     1
   Auto Start num. interpolation iter.  ....    10
   Max. Number of Micro iterations      ....    24
   Max. Number of Macro iterations      .... Maxiter - #DIIS iter
   Number of Davidson start vectors     ....     2
   Converg. threshold    (grad. norm)   ....   1.000e-04
   Grad. Scal. Fac. for Micro threshold ....   0.100
   Minimum threshold for Micro iter.    ....   1.000e-02
   NR start threshold (gradient norm)   ....   1.000e-04
   Initial trust radius                 ....   0.400
   Minimum AH scaling param. (alpha)    ....   1.000
   Maximum AH scaling param. (alpha)    .... 1000.000
   Quad. conv. algorithm                .... NR
   White noise on init. David. guess    .... on
   Maximum white noise                  ....   0.010
   Pseudo random numbers                .... off
   Inactive MOs                         .... canonical
   Orbital update algorithm             .... Taylor
   Preconditioner                       .... Diag
   Full preconditioner red. dimension   ....   250
 SOSCF                  CNVSOSCF        .... on
   Start iteration      SOSCFMaxIt      ....   150
   Startup grad/error   SOSCFStart      ....  0.003300
   Hessian update       SOSCFHessUp     .... L-BFGS
 Level Shifting         CNVShift        .... on
   Level shift para.    LevelShift      ....    0.2500
   Turn off err/grad.   ShiftErr        ....    0.0010
 Zerner damping         CNVZerner       .... off
 Static damping         CNVDamp         .... on
   Fraction old density DampFac         ....    0.7000
   Max. Damping (<1)    DampMax         ....    0.9800
   Min. Damping (>=0)   DampMin         ....    0.0000
   Turn off err/grad.   DampErr         ....    0.1000

SCF Procedure:
 Maximum # iterations   MaxIter         ....   125
 SCF integral mode      SCFMode         .... Direct
   Integral package                     .... SHARK and LIBINT hybrid scheme
 Reset frequency        DirectResetFreq ....    20
 Integral Threshold     Thresh          ....  3.000e-11 Eh
 Primitive CutOff       TCut            ....  1.000e-12 Eh

Convergence Tolerance:
 Convergence Check Mode ConvCheckMode   .... Total+1el-Energy
 Convergence forced     ConvForced      .... 0
 Energy Change          TolE            ....  1.000e-07 Eh
 1-El. energy change                    ....  1.000e-04 Eh
 Orbital Gradient       TolG            ....  1.000e-04
 Orbital Rotation angle TolX            ....  1.000e-04
 DIIS Error             TolErr          ....  1.000e-07

---------------------
INITIAL GUESS: MOREAD
---------------------
Guess MOs are being read from file: sp.ges
Input Geometry matches current geometry (good)
Atom 0: N(Shells)= 11 and 9 - projection required
Input basis set needs projection
NBasis(read)= 164
NBasis(calc)= 234
Basis set overlap was calculated
Using GuessMode=FMatrix for the initial guess
C*T matrix was formed
Effective Fockian was calculated
Effective Fockian was diagonalized
Initial density was built
                      ------------------
                      INITIAL GUESS DONE (   0.0 sec)
                      ------------------
             **** ENERGY FILE WAS UPDATED (sp.en.tmp) ****
Finished Guess after   0.1 sec
Maximum memory used throughout the entire GUESS-calculation: 19.6 MB

-------------------------------------------------------------------------------------------
                                      ORCA LEAN-SCF
                              memory conserving SCF solver
-------------------------------------------------------------------------------------------

----------------------------------------D-I-I-S--------------------------------------------
Iteration    Energy (Eh)           Delta-E    RMSDP     MaxDP     DIISErr   Damp  Time(sec)
-------------------------------------------------------------------------------------------
               ***  Starting incremental Fock matrix formation  ***
    1    -307.9021266140540547     0.00e+00  7.84e-04  2.09e-02  4.87e-02  0.700  11.4
    2    -307.9061294993741740    -4.00e-03  6.79e-04  1.61e-02  3.54e-02  0.700   5.4
                               ***Turning on AO-DIIS***
    3    -307.9091479375985045    -3.02e-03  5.64e-04  1.28e-02  2.53e-02  0.700   5.0
    4    -307.9113714155722619    -2.22e-03  1.41e-03  3.34e-02  1.78e-02  0.000   5.3
                              *** Initializing SOSCF ***
---------------------------------------S-O-S-C-F--------------------------------------
Iteration    Energy (Eh)           Delta-E    RMSDP     MaxDP     MaxGrad    Time(sec)
--------------------------------------------------------------------------------------
    5    -307.9170420996671282    -5.67e-03  6.79e-05  2.07e-03  1.51e-03     5.5
               *** Restarting incremental Fock matrix formation ***
    6    -307.9170611320623721    -1.90e-05  3.34e-05  9.47e-04  5.27e-04    10.9
    7    -307.9170667363569009    -5.60e-06  1.99e-05  3.83e-04  1.79e-04     8.9
    8    -307.9170675129790880    -7.77e-07  4.24e-06  1.88e-04  8.76e-05     8.6
    9    -307.9170677147044444    -2.02e-07  2.50e-06  6.80e-05  5.36e-05     7.8
   10    -307.9170677496010740    -3.49e-08  6.09e-07  2.87e-05  1.90e-05     7.2
                 **** Energy Check signals convergence ****

               *****************************************************
               *                     SUCCESS                       *
               *           SCF CONVERGED AFTER  10 CYCLES          *
               *****************************************************


------------------
NL GRID GENERATION
------------------

General Integration Accuracy     IntAcc      ... 4.004
Radial Grid Type                 RadialGrid  ... OptM3 with GC (2021)
Angular Grid (max. ang.)         AngularGrid ... 2 (Lebedev-110)
Angular grid pruning method      GridPruning ... 4 (adaptive)
Weight generation scheme         WeightScheme... mBecke (2022)
Basis function cutoff            BFCut       ... 1.0000e-10
Integration weight cutoff        WCut        ... 1.0000e-14
Partially contracted basis set               ... off
Rotationally invariant grid construction     ... off
Angular grids for H and He will be reduced by one unit

Total number of grid points                  ...    19131
Total number of batches                      ...      303
Average number of points per batch           ...       63
Average number of grid points per atom       ...     1366
Final grid set up in    0.2 sec

-------------------------------------------------------------------------------
                    post-SCF DFT-NL dispersion correction                      
-------------------------------------------------------------------------------

SCF Energy:     -307.917067750 
NL    Energy:      0.187640267 
SC+NL Energy:   -307.729427482 
NL done in  :              1.8 sec
-------------------------------------------------------------------------------
Recomputing exchange energy using gridx3       ... done (   20.455 sec)
Old exchange energy                            :    -12.972108986 Eh
New exchange energy                            :    -12.972107799 Eh
Exchange energy change after final integration :      0.000001187 Eh
Total energy after final integration           :   -307.729426295 Eh
             **** ENERGY FILE WAS UPDATED (sp.en.tmp) ****

----------------
TOTAL SCF ENERGY
----------------

Total Energy       :       -307.72942629467377 Eh           -8373.74340 eV

Components:
Nuclear Repulsion  :        246.25983535018494 Eh            6701.07080 eV
Electronic Energy  :       -554.17690309978605 Eh          -15079.92018 eV
One Electron Energy:       -905.86835271304926 Eh          -24649.93106 eV
Two Electron Energy:        351.69144961326322 Eh            9570.01087 eV

Virial components:
Potential Energy   :       -614.24771004399258 Eh          -16714.52994 eV
Kinetic Energy     :        306.51828374931881 Eh            8340.78654 eV
Virial Ratio       :          2.00395128972582

DFT components:
N(Alpha)           :       24.000025984468 electrons
N(Beta)            :       24.000025984468 electrons
N(Total)           :       48.000051968936 electrons
E(X)               :      -27.049015873569 Eh       
E(C)               :       -1.989015977947 Eh       
NL Energy, E(C,NL) :        0.187640267473 Eh       
E(XC)              :      -28.850391584042 Eh       

---------------
SCF CONVERGENCE
---------------

  Last Energy change         ...    3.4897e-08  Tolerance :   1.0000e-07
  Last MAX-Density change    ...    2.8678e-05  Tolerance :   1.0000e-05
  Last RMS-Density change    ...    6.0858e-07  Tolerance :   1.0000e-06
  Last DIIS Error            ...    1.5073e-03  Tolerance :   1.0000e-07
  Last Orbital Gradient      ...    1.9023e-05  Tolerance :   1.0000e-04
  Last Orbital Rotation      ...    2.3863e-05  Tolerance :   1.0000e-04


----------------
ORBITAL ENERGIES
----------------

  NO   OCC          E(Eh)            E(eV) 
   0   2.0000     -19.261501      -524.1321 
   1   2.0000     -19.196605      -522.3662 
   2   2.0000     -10.400445      -283.0105 
   3   2.0000     -10.326658      -281.0027 
   4   2.0000     -10.287798      -279.9452 
   5   2.0000     -10.268924      -279.4316 
   6   2.0000      -1.237336       -33.6696 
   7   2.0000      -1.145566       -31.1724 
   8   2.0000      -0.929197       -25.2847 
   9   2.0000      -0.850440       -23.1417 
  10   2.0000      -0.780376       -21.2351 
  11   2.0000      -0.685756       -18.6604 
  12   2.0000      -0.619308       -16.8522 
  13   2.0000      -0.612767       -16.6742 
  14   2.0000      -0.588118       -16.0035 
  15   2.0000      -0.565616       -15.3912 
  16   2.0000      -0.532114       -14.4796 
  17   2.0000      -0.510870       -13.9015 
  18   2.0000      -0.502298       -13.6682 
  19   2.0000      -0.475862       -12.9489 
  20   2.0000      -0.469108       -12.7651 
  21   2.0000      -0.455214       -12.3870 
  22   2.0000      -0.412549       -11.2260 
  23   2.0000      -0.381904       -10.3921 
  24   0.0000       0.096553         2.6273 
  25   0.0000       0.109841         2.9889 
  26   0.0000       0.134745         3.6666 
  27   0.0000       0.155660         4.2357 
  28   0.0000       0.174354         4.7444 
  29   0.0000       0.177803         4.8383 
  30   0.0000       0.183863         5.0032 
  31   0.0000       0.194398         5.2898 
  32   0.0000       0.203604         5.5404 
  33   0.0000       0.216828         5.9002 
  34   0.0000       0.250666         6.8210 
*Only the first 10 virtual orbitals were printed.

                    ********************************
                    * MULLIKEN POPULATION ANALYSIS *
                    ********************************

-----------------------
MULLIKEN ATOMIC CHARGES
-----------------------
   0 C :   -0.319873
   1 C :   -0.176126
   2 C :    0.296959
   3 O :   -0.344671
   4 O :   -0.235980
   5 C :   -0.194086
   6 H :    0.114908
   7 H :    0.116021
   8 H :    0.112236
   9 H :    0.119106
  10 H :    0.125815
  11 H :    0.130198
  12 H :    0.127351
  13 H :    0.128142
Sum of atomic charges:   -0.0000000

--------------------------------
MULLIKEN REDUCED ORBITAL CHARGES
--------------------------------
  0 C s       :     3.213914  s :     3.213914
      pz      :     1.039243  p :     3.044949
      px      :     1.045296
      py      :     0.960410
      dz2     :     0.016555  d :     0.057662
      dxz     :     0.002789
      dyz     :     0.010959
      dx2y2   :     0.016749
      dxy     :     0.010609
      f0      :     0.000626  f :     0.003348
      f+1     :     0.000266
      f-1     :     0.000562
      f+2     :     0.000348
      f-2     :     0.000229
      f+3     :     0.000849
      f-3     :     0.000468

  1 C s       :     3.157971  s :     3.157971
      pz      :     1.033080  p :     2.927658
      px      :     0.902206
      py      :     0.992371
      dz2     :     0.020950  d :     0.085304
      dxz     :     0.008333
      dyz     :     0.012114
      dx2y2   :     0.022044
      dxy     :     0.021863
      f0      :     0.000793  f :     0.005193
      f+1     :     0.000356
      f-1     :     0.000647
      f+2     :     0.000641
      f-2     :     0.000368
      f+3     :     0.001285
      f-3     :     0.001103

  2 C s       :     3.105579  s :     3.105579
      pz      :     0.726166  p :     2.300114
      px      :     0.850773
      py      :     0.723175
      dz2     :     0.020178  d :     0.273248
      dxz     :     0.030049
      dyz     :     0.063754
      dx2y2   :     0.084898
      dxy     :     0.074368
      f0      :     0.002065  f :     0.024101
      f+1     :     0.001479
      f-1     :     0.002595
      f+2     :     0.002415
      f-2     :     0.003413
      f+3     :     0.004123
      f-3     :     0.008011

  3 O s       :     3.792844  s :     3.792844
      pz      :     1.416013  p :     4.518093
      px      :     1.696736
      py      :     1.405344
      dz2     :     0.003537  d :     0.031826
      dxz     :     0.002265
      dyz     :     0.009232
      dx2y2   :     0.008496
      dxy     :     0.008296
      f0      :     0.000151  f :     0.001907
      f+1     :     0.000061
      f-1     :     0.000238
      f+2     :     0.000230
      f-2     :     0.000275
      f+3     :     0.000433
      f-3     :     0.000520

  4 O s       :     3.744022  s :     3.744022
      pz      :     1.697169  p :     4.451208
      px      :     1.233771
      py      :     1.520268
      dz2     :     0.004543  d :     0.038747
      dxz     :     0.005221
      dyz     :     0.005361
      dx2y2   :     0.011489
      dxy     :     0.012133
      f0      :     0.000259  f :     0.002004
      f+1     :     0.000315
      f-1     :     0.000203
      f+2     :     0.000195
      f-2     :     0.000226
      f+3     :     0.000427
      f-3     :     0.000378

  5 C s       :     3.238499  s :     3.238499
      pz      :     1.094012  p :     2.860557
      px      :     0.684874
      py      :     1.081670
      dz2     :     0.008148  d :     0.087870
      dxz     :     0.029099
      dyz     :     0.010037
      dx2y2   :     0.017836
      dxy     :     0.022749
      f0      :     0.001071  f :     0.007161
      f+1     :     0.000813
      f-1     :     0.000457
      f+2     :     0.001659
      f-2     :     0.000056
      f+3     :     0.001525
      f-3     :     0.001578

  6 H s       :     0.863996  s :     0.863996
      pz      :     0.005721  p :     0.021097
      px      :     0.005742
      py      :     0.009633

  7 H s       :     0.862902  s :     0.862902
      pz      :     0.004228  p :     0.021077
      px      :     0.012564
      py      :     0.004285

  8 H s       :     0.866785  s :     0.866785
      pz      :     0.012195  p :     0.020978
      px      :     0.004624
      py      :     0.004159

  9 H s       :     0.859185  s :     0.859185
      pz      :     0.012688  p :     0.021709
      px      :     0.004734
      py      :     0.004287

 10 H s       :     0.852644  s :     0.852644
      pz      :     0.005590  p :     0.021541
      px      :     0.005972
      py      :     0.009980

 11 H s       :     0.849590  s :     0.849590
      pz      :     0.007869  p :     0.020212
      px      :     0.003036
      py      :     0.009307

 12 H s       :     0.852338  s :     0.852338
      pz      :     0.005020  p :     0.020310
      px      :     0.004260
      py      :     0.011031

 13 H s       :     0.851703  s :     0.851703
      pz      :     0.011491  p :     0.020155
      px      :     0.003903
      py      :     0.004761


------------------------
MULLIKEN OVERLAP CHARGES
------------------------
B(  0-C ,  1-C ) :   0.5024 B(  0-C ,  2-C ) :  -0.0787 B(  0-C ,  6-H ) :   0.8037 
B(  0-C ,  7-H ) :   0.8061 B(  0-C ,  8-H ) :   0.8238 B(  0-C ,  9-H ) :  -0.0506 
B(  0-C , 10-H ) :  -0.0641 B(  1-C ,  2-C ) :   0.6596 B(  1-C ,  3-O ) :  -0.1642 
B(  1-C ,  4-O ) :  -0.2261 B(  1-C ,  7-H ) :  -0.0739 B(  1-C ,  8-H ) :  -0.0663 
B(  1-C ,  9-H ) :   0.7778 B(  1-C , 10-H ) :   0.8438 B(  2-C ,  3-O ) :   1.3816 
B(  2-C ,  4-O ) :   0.7299 B(  2-C ,  5-C ) :  -0.0915 B(  2-C , 10-H ) :  -0.0798 
B(  3-O ,  4-O ) :  -0.1956 B(  4-O ,  5-C ) :   0.4732 B(  4-O , 11-H ) :  -0.0714 
B(  4-O , 12-H ) :  -0.0687 B(  4-O , 13-H ) :  -0.0686 B(  5-C , 11-H ) :   0.8438 
B(  5-C , 12-H ) :   0.7915 B(  5-C , 13-H ) :   0.8372 B( 11-H , 12-H ) :  -0.0510 
B( 11-H , 13-H ) :  -0.0729 B( 12-H , 13-H ) :  -0.0514 


                     *******************************
                     * LOEWDIN POPULATION ANALYSIS *
                     *******************************

----------------------
LOEWDIN ATOMIC CHARGES
----------------------
   0 C :   -0.301165
   1 C :   -0.248574
   2 C :   -0.468440
   3 O :    0.094243
   4 O :    0.224148
   5 C :   -0.294612
   6 H :    0.119892
   7 H :    0.118215
   8 H :    0.119665
   9 H :    0.153342
  10 H :    0.151399
  11 H :    0.111411
  12 H :    0.109459
  13 H :    0.111017

-------------------------------
LOEWDIN REDUCED ORBITAL CHARGES
-------------------------------
  0 C s       :     2.827011  s :     2.827011
      pz      :     1.072296  p :     3.188275
      px      :     1.065275
      py      :     1.050704
      dz2     :     0.071691  d :     0.261040
      dxz     :     0.014338
      dyz     :     0.053103
      dx2y2   :     0.075200
      dxy     :     0.046708
      f0      :     0.002920  f :     0.024839
      f+1     :     0.002555
      f-1     :     0.003488
      f+2     :     0.003272
      f-2     :     0.004439
      f+3     :     0.005109
      f-3     :     0.003057

  1 C s       :     2.777061  s :     2.777061
      pz      :     1.032030  p :     3.067831
      px      :     0.999853
      py      :     1.035948
      dz2     :     0.083062  d :     0.367098
      dxz     :     0.042784
      dyz     :     0.054196
      dx2y2   :     0.093068
      dxy     :     0.093988
      f0      :     0.004609  f :     0.036584
      f+1     :     0.003703
      f-1     :     0.003841
      f+2     :     0.004991
      f-2     :     0.005046
      f+3     :     0.007421
      f-3     :     0.006974

  2 C s       :     2.761405  s :     2.761405
      pz      :     0.725729  p :     2.623219
      px      :     0.973582
      py      :     0.923908
      dz2     :     0.082260  d :     0.933433
      dxz     :     0.094570
      dyz     :     0.185372
      dx2y2   :     0.290486
      dxy     :     0.280745
      f0      :     0.009426  f :     0.150383
      f+1     :     0.008728
      f-1     :     0.013443
      f+2     :     0.016625
      f-2     :     0.022516
      f+3     :     0.026826
      f-3     :     0.052818

  3 O s       :     3.396832  s :     3.396832
      pz      :     1.341931  p :     4.436122
      px      :     1.594824
      py      :     1.499367
      dz2     :     0.007937  d :     0.066751
      dxz     :     0.003311
      dyz     :     0.013687
      dx2y2   :     0.020435
      dxy     :     0.021380
      f0      :     0.000469  f :     0.006053
      f+1     :     0.000201
      f-1     :     0.000782
      f+2     :     0.000655
      f-2     :     0.000602
      f+3     :     0.001662
      f-3     :     0.001683

  4 O s       :     3.263494  s :     3.263494
      pz      :     1.576032  p :     4.400816
      px      :     1.296189
      py      :     1.528595
      dz2     :     0.010785  d :     0.105057
      dxz     :     0.017703
      dyz     :     0.009711
      dx2y2   :     0.032421
      dxy     :     0.034437
      f0      :     0.000597  f :     0.006485
      f+1     :     0.000586
      f-1     :     0.000424
      f+2     :     0.000844
      f-2     :     0.000631
      f+3     :     0.001405
      f-3     :     0.001997

  5 C s       :     2.863573  s :     2.863573
      pz      :     1.115573  p :     3.019625
      px      :     0.797809
      py      :     1.106243
      dz2     :     0.044325  d :     0.360229
      dxz     :     0.095349
      dyz     :     0.042416
      dx2y2   :     0.084346
      dxy     :     0.093792
      f0      :     0.006013  f :     0.051185
      f+1     :     0.007812
      f-1     :     0.001972
      f+2     :     0.009427
      f-2     :     0.002037
      f+3     :     0.011112
      f-3     :     0.012813

  6 H s       :     0.819125  s :     0.819125
      pz      :     0.017780  p :     0.060983
      px      :     0.017432
      py      :     0.025771

  7 H s       :     0.821482  s :     0.821482
      pz      :     0.013358  p :     0.060303
      px      :     0.034249
      py      :     0.012696

  8 H s       :     0.819767  s :     0.819767
      pz      :     0.033616  p :     0.060568
      px      :     0.014372
      py      :     0.012579

  9 H s       :     0.787990  s :     0.787990
      pz      :     0.032560  p :     0.058668
      px      :     0.013398
      py      :     0.012710

 10 H s       :     0.789891  s :     0.789891
      pz      :     0.016865  p :     0.058710
      px      :     0.016095
      py      :     0.025750

 11 H s       :     0.826998  s :     0.826998
      pz      :     0.024103  p :     0.061591
      px      :     0.009435
      py      :     0.028053

 12 H s       :     0.830157  s :     0.830157
      pz      :     0.015843  p :     0.060385
      px      :     0.012137
      py      :     0.032405

 13 H s       :     0.827579  s :     0.827579
      pz      :     0.034641  p :     0.061404
      px      :     0.011783
      py      :     0.014981


---------------------------------
LOEWDIN BOND ORDERS (THRESH 0.050000)
---------------------------------
B(  0-C ,  1-C ) :   1.2833 B(  0-C ,  2-C ) :   0.1354 B(  0-C ,  6-H ) :   0.9075 
B(  0-C ,  7-H ) :   0.9049 B(  0-C ,  8-H ) :   0.9077 B(  0-C ,  9-H ) :   0.0724 
B(  0-C , 10-H ) :   0.0717 B(  1-C ,  2-C ) :   1.1751 B(  1-C ,  3-O ) :   0.1650 
B(  1-C ,  4-O ) :   0.1242 B(  1-C ,  6-H ) :   0.0775 B(  1-C ,  7-H ) :   0.0838 
B(  1-C ,  8-H ) :   0.0774 B(  1-C ,  9-H ) :   0.8273 B(  1-C , 10-H ) :   0.8330 
B(  2-C ,  3-O ) :   2.6545 B(  2-C ,  4-O ) :   1.6564 B(  2-C ,  5-C ) :   0.1992 
B(  2-C ,  9-H ) :   0.0925 B(  2-C , 10-H ) :   0.0893 B(  3-O ,  4-O ) :   0.1734 
B(  3-O ,  5-C ) :   0.0679 B(  4-O ,  5-C ) :   1.3761 B(  4-O , 12-H ) :   0.0517 
B(  5-C , 11-H ) :   0.9367 B(  5-C , 12-H ) :   0.9402 B(  5-C , 13-H ) :   0.9373 


------------------------------------------
LOEWDIN REDUCED ORBITAL POPULATIONS PER MO
-------------------------------------------
THRESHOLD FOR PRINTING IS 0.1%%
                      0         1         2         3         4         5   
                 -19.26150 -19.19661 -10.40045 -10.32666 -10.28780 -10.26892
                   2.00000   2.00000   2.00000   2.00000   2.00000   2.00000
                  --------  --------  --------  --------  --------  --------
 0 C  s               0.0       0.0       0.0       0.0       0.0      99.4
 1 C  s               0.0       0.0       0.0       0.0      99.2       0.0
 1 C  dx2y2           0.0       0.0       0.1       0.0       0.0       0.1
 2 C  s               0.0       0.0      99.0       0.0       0.0       0.0
 2 C  dx2y2           0.0       0.0       0.0       0.0       0.1       0.0
 3 O  s               0.0      99.6       0.0       0.0       0.0       0.0
 3 O  py              0.0       0.0       0.2       0.0       0.0       0.0
 4 O  s              99.7       0.0       0.0       0.0       0.0       0.0
 4 O  px              0.0       0.0       0.0       0.1       0.0       0.0
 5 C  s               0.0       0.0       0.0      99.6       0.0       0.0

                      6         7         8         9        10        11   
                  -1.23734  -1.14557  -0.92920  -0.85044  -0.78038  -0.68576
                   2.00000   2.00000   2.00000   2.00000   2.00000   2.00000
                  --------  --------  --------  --------  --------  --------
 0 C  s               0.1       0.0      15.8       7.2      17.7       0.3
 0 C  pz              0.0       0.0       0.5       0.0       0.8       0.3
 0 C  px              0.3       0.0       0.5       0.1       0.6       0.1
 0 C  py              0.1       0.0       2.5       0.1       3.7       0.9
 0 C  dyz             0.0       0.0       0.3       0.0       0.2       0.1
 0 C  dx2y2           0.0       0.0       0.2       0.0       0.2       0.1
 0 C  dxy             0.0       0.0       0.2       0.0       0.2       0.0
 1 C  s               1.1       0.2      25.0       2.0       7.1       1.6
 1 C  pz              0.0       0.0       0.3       0.1       1.7       0.5
 1 C  px              2.3       0.2       0.1       2.4       2.3       3.7
 1 C  py              0.0       0.6       1.1       0.6       8.3       1.2
 1 C  dz2             0.1       0.0       0.1       0.0       0.0       0.2
 1 C  dyz             0.0       0.0       0.2       0.1       0.5       0.0
 1 C  dx2y2           0.3       0.0       0.0       0.6       0.7       0.3
 1 C  dxy             0.0       0.4       0.1       0.2       0.1       0.0
 1 C  f+3             0.0       0.0       0.1       0.0       0.0       0.0
 2 C  s              17.9       3.6       3.7       2.2       2.1       4.1
 2 C  pz              0.1       1.7       0.0       0.3       0.2       0.4
 2 C  px              4.4       0.1       9.9       0.4       8.1       0.8
 2 C  py              0.2      22.1       2.3       3.0       0.1       3.1
 2 C  dz2             1.2       0.1       0.1       0.0       0.0       0.2
 2 C  dxz             0.1       0.4       0.0       0.0       0.1       0.0
 2 C  dyz             0.8       0.0       0.0       0.0       0.1       0.1
 2 C  dx2y2           0.7       0.5       0.6       0.4       1.3       0.1
 2 C  dxy             0.3       4.5       0.1       0.3       0.0       0.1
 2 C  f0              0.0       0.2       0.0       0.0       0.0       0.0
 2 C  f-1             0.0       0.2       0.0       0.0       0.0       0.0
 2 C  f-2             0.2       0.0       0.0       0.0       0.0       0.0
 2 C  f+3             0.7       0.1       0.0       0.1       0.0       0.0
 3 O  s              13.7      36.3       1.3       0.4       1.4       2.1
 3 O  pz              0.2       0.1       0.0       0.0       0.0       0.4
 3 O  px              0.2       0.9       0.5       0.0       1.4       0.2
 3 O  py              3.1       2.2       0.2       0.3       0.3       3.4
 3 O  dx2y2           0.2       0.0       0.0       0.0       0.0       0.1
 3 O  dxy             0.0       0.2       0.0       0.0       0.1       0.0
 4 O  s              33.7      17.5       0.1       1.0       0.7       5.0
 4 O  pz              0.2       0.0       0.1       0.5       0.0       1.7
 4 O  px              0.0       0.3       5.8      16.9       0.1       9.7
 4 O  py              2.6       0.4       0.2       1.5       0.1      15.5
 4 O  dx2y2           0.0       0.1       0.0       0.5       0.1       0.1
 4 O  dxy             0.0       0.0       0.1       0.3       0.0       0.2
 5 C  s               4.3       2.3       3.2      25.4       3.3       4.0
 5 C  px              5.6       1.9       0.2       0.7       1.0      12.4
 5 C  py              0.0       0.3       0.0       0.1       0.0       5.3
 5 C  dz2             0.6       0.2       0.0       0.0       0.1       0.5
 5 C  dx2y2           1.4       0.7       0.0       0.2       0.1       0.6
 5 C  dxy             0.0       0.1       0.0       0.0       0.0       0.8
 5 C  f+1             0.1       0.1       0.0       0.0       0.0       0.0
 5 C  f+3             0.2       0.1       0.0       0.0       0.0       0.0
 5 C  f-3             0.0       0.0       0.0       0.0       0.0       0.2
 6 H  s               0.0       0.0       3.1       1.6       6.8       0.4
 6 H  pz              0.0       0.0       0.0       0.0       0.2       0.0
 6 H  px              0.0       0.0       0.0       0.0       0.2       0.0
 6 H  py              0.0       0.0       0.2       0.1       0.3       0.0
 7 H  s               0.0       0.0       3.1       2.2       7.0       0.0
 7 H  px              0.0       0.0       0.3       0.2       0.7       0.0
 8 H  s               0.0       0.0       3.1       1.7       6.8       0.4
 8 H  pz              0.0       0.0       0.3       0.2       0.6       0.0
 9 H  s               0.2       0.0       5.2       0.6       3.5       1.9
 9 H  pz              0.0       0.0       0.5       0.1       0.3       0.2
10 H  s               0.2       0.1       5.0       0.7       3.4       2.3
10 H  pz              0.0       0.0       0.1       0.0       0.1       0.1
10 H  px              0.0       0.0       0.1       0.0       0.2       0.0
10 H  py              0.0       0.0       0.3       0.1       0.1       0.1
11 H  s               0.6       0.2       0.6       6.8       1.2       5.9
11 H  pz              0.0       0.0       0.0       0.3       0.1       0.3
11 H  py              0.0       0.0       0.0       0.4       0.1       0.2
12 H  s               0.5       0.3       0.7       8.2       1.5       0.8
12 H  px              0.0       0.0       0.0       0.1       0.0       0.1
12 H  py              0.0       0.0       0.1       0.6       0.1       0.2
13 H  s               0.6       0.2       0.6       6.8       1.3       5.6
13 H  pz              0.0       0.0       0.1       0.6       0.1       0.5

                     12        13        14        15        16        17   
                  -0.61931  -0.61277  -0.58812  -0.56562  -0.53211  -0.51087
                   2.00000   2.00000   2.00000   2.00000   2.00000   2.00000
                  --------  --------  --------  --------  --------  --------
 0 C  s               0.1       0.0       0.2       0.0       0.0       0.1
 0 C  pz              2.6       2.1       1.3      11.6       0.7       5.9
 0 C  px              3.7       0.4       1.3       0.1      13.4      18.4
 0 C  py              2.2       2.3       2.0       4.4       1.5       5.7
 0 C  dz2             0.0       0.0       0.0       0.0       0.2       0.0
 0 C  dxz             0.0       0.1       0.0       0.2       0.0       0.1
 0 C  dyz             0.3       0.0       0.1       0.0       0.0       0.1
 0 C  dx2y2           0.1       0.1       0.0       0.0       0.2       1.0
 1 C  s               1.0       0.1       0.4       0.0       0.1       0.5
 1 C  pz              2.9       8.3       0.0      16.6       0.0       2.2
 1 C  px             14.1       2.0       0.9       0.4       6.5       0.8
 1 C  py              0.1       2.3       1.9       3.3       0.1      13.3
 1 C  dz2             0.3       0.0       0.1       0.0       0.0       0.0
 1 C  dxz             0.0       0.1       0.1       0.3       0.0       0.2
 1 C  dx2y2           0.1       0.0       0.1       0.0       0.1       0.8
 1 C  dxy             0.1       0.0       0.4       0.2       0.0       0.0
 2 C  s               0.8       0.0       2.9       0.1       0.2       0.1
 2 C  pz              0.9      15.4       0.9       0.3       0.1       3.0
 2 C  px             10.6       0.2       0.3       0.0       4.2       2.1
 2 C  py              0.3       1.6       5.7       0.2       0.1       1.3
 2 C  dz2             0.0       0.0       0.3       0.2       0.1       0.0
 2 C  dxz             0.0       0.1       0.0       1.3       0.0       0.1
 2 C  dyz             0.1       0.0       0.3       0.0       0.0       0.3
 2 C  dx2y2           1.3       0.3       1.2       0.0       0.8       0.1
 2 C  dxy             0.1       0.0       1.2       0.2       0.0       1.5
 2 C  f0              0.0       0.2       0.0       0.0       0.0       0.0
 2 C  f-1             0.0       0.2       0.0       0.0       0.0       0.0
 2 C  f-3             0.0       0.0       0.1       0.0       0.2       0.0
 3 O  s               0.0       0.1      12.3       0.3       0.3       0.5
 3 O  pz              0.1       8.0       0.9       0.0       0.3       7.2
 3 O  px              5.7       0.0      11.8       0.2       0.0       1.0
 3 O  py              1.3       0.0      31.5       1.3       3.2       4.4
 3 O  dz2             0.0       0.0       0.1       0.0       0.0       0.0
 3 O  dyz             0.0       0.2       0.0       0.0       0.0       0.1
 3 O  dx2y2           0.1       0.0       0.1       0.0       0.1       0.0
 3 O  dxy             0.1       0.0       0.3       0.0       0.0       0.0
 4 O  s               0.8       0.1       0.4       0.0       0.2       0.3
 4 O  pz              4.7      18.1       0.5       6.4       0.0       0.1
 4 O  px              2.5       0.1       9.3       0.0       7.9       0.7
 4 O  py             11.4       5.8       0.5       0.4       0.5       0.1
 4 O  dxz             0.0       0.0       0.0       0.2       0.0       0.1
 4 O  dyz             0.0       0.1       0.0       0.0       0.0       0.0
 4 O  dx2y2           0.1       0.0       0.0       0.0       0.2       0.0
 4 O  dxy             0.1       0.0       0.0       0.0       0.4       0.0
 5 C  s               0.2       0.0       0.2       0.0       0.1       0.0
 5 C  pz              3.5      10.3       0.7      17.8       2.0       1.7
 5 C  px              1.5       0.8       3.4       0.3       6.9       0.0
 5 C  py              7.8       3.4       0.8       0.7      18.0       5.1
 5 C  dz2             0.1       0.1       0.0       0.1       0.2       0.0
 5 C  dxz             0.1       0.2       0.0       0.0       0.1       0.0
 5 C  dyz             0.0       0.1       0.0       0.2       0.2       0.2
 5 C  dx2y2           0.1       0.0       0.1       0.0       0.2       0.0
 5 C  dxy             0.1       0.1       0.0       0.0       0.6       0.2
 6 H  s               0.8       1.8       0.1       4.4       2.3       0.6
 6 H  px              0.0       0.0       0.0       0.1       0.0       0.1
 6 H  py              0.0       0.0       0.0       0.1       0.1       0.2
 7 H  s               0.7       0.0       0.9       0.0       6.2      10.3
 7 H  pz              0.0       0.0       0.0       0.1       0.0       0.1
 7 H  px              0.0       0.0       0.0       0.0       0.1       0.2
 8 H  s               1.8       0.4       0.7       3.7       1.6       1.2
 8 H  px              0.0       0.0       0.0       0.0       0.1       0.3
 9 H  s               4.7       1.5       0.4       6.0       0.2       0.4
 9 H  pz              0.3       0.0       0.0       0.1       0.0       0.0
 9 H  py              0.0       0.0       0.0       0.1       0.0       0.2
10 H  s               1.5       4.0       0.0       5.4       0.6       0.8
10 H  pz              0.1       0.0       0.0       0.0       0.0       0.1
10 H  py              0.1       0.2       0.0       0.2       0.0       0.0
11 H  s               0.0       3.4       1.7       4.4       1.1       3.7
11 H  pz              0.0       0.0       0.0       0.0       0.2       0.1
11 H  px              0.0       0.1       0.0       0.1       0.1       0.0
11 H  py              0.1       0.1       0.0       0.2       0.0       0.0
12 H  s               5.7       0.6       0.2       0.0      14.8       1.2
12 H  pz              0.0       0.1       0.0       0.2       0.0       0.1
12 H  py              0.2       0.0       0.0       0.0       0.3       0.0
13 H  s               0.8       3.2       0.2       6.4       0.8       0.1
13 H  px              0.1       0.0       0.0       0.1       0.2       0.0
13 H  py              0.0       0.1       0.0       0.1       0.1       0.1

                     18        19        20        21        22        23   
                  -0.50230  -0.47586  -0.46911  -0.45521  -0.41255  -0.38190
                   2.00000   2.00000   2.00000   2.00000   2.00000   2.00000
                  --------  --------  --------  --------  --------  --------
 0 C  s               0.0       0.2       0.0       0.0       0.0       0.1
 0 C  pz             10.9       4.0       1.0      11.0       0.8       0.0
 0 C  px              3.0       9.0       0.1       0.6       0.0       1.8
 0 C  py              7.6      13.2       2.6       2.7       0.1       0.8
 0 C  dz2             0.7       0.5       0.1       1.6       0.1       0.2
 0 C  dyz             0.3       0.1       0.0       1.0       0.0       0.0
 0 C  dx2y2           0.0       0.7       0.0       0.7       0.0       0.3
 0 C  dxy             0.0       1.3       0.0       0.1       0.0       0.2
 1 C  s               0.1       0.2       0.0       0.0       0.0       0.2
 1 C  pz              0.1       3.4       0.9      13.9       0.5       0.1
 1 C  px              0.1       5.2       2.7       0.2       0.0       6.0
 1 C  py              1.9      12.2       0.8       2.9       0.1       1.1
 1 C  dz2             0.4       0.5       0.1       2.1       0.1       0.0
 1 C  dxz             0.6       0.2       0.1       0.4       0.0       0.0
 1 C  dyz             0.7       0.1       0.0       0.8       0.0       0.1
 1 C  dx2y2           0.0       0.6       0.1       0.4       0.0       0.3
 1 C  dxy             0.1       2.6       0.0       0.3       0.0       0.0
 1 C  f-2             0.0       0.1       0.0       0.1       0.0       0.0
 2 C  s               0.0       0.5       0.4       0.0       0.0       0.4
 2 C  pz              9.9       0.1       0.9       1.5       0.7       0.0
 2 C  px              1.2       4.0       0.3       0.0       0.0       1.7
 2 C  py              1.0       0.2       4.0       0.4       0.0       0.3
 2 C  dz2             0.1       0.0       0.0       0.1       1.5       0.0
 2 C  dxz             0.4       0.1       0.2       1.7       0.0       0.2
 2 C  dyz             0.4       0.0       0.3       0.0       6.1       0.6
 2 C  dx2y2           0.3       0.0       1.6       0.2       0.5       4.5
 2 C  dxy             0.3       0.3       0.1       0.3       0.0       4.7
 2 C  f+1             0.0       0.0       0.0       0.0       0.2       0.0
 2 C  f+2             0.1       0.1       0.0       0.2       0.0       0.2
 2 C  f-2             0.0       0.0       0.0       0.0       0.7       0.0
 2 C  f-3             0.0       0.4       0.2       0.0       0.0       1.5
 3 O  s               0.0       0.1       1.2       0.0       0.0       0.0
 3 O  pz             13.7       0.6       0.0       4.7      29.2       1.6
 3 O  px              1.7       1.3       3.0       0.2       0.1      51.4
 3 O  py              4.2       1.6       8.3       0.0       1.9       7.6
 3 O  dyz             0.1       0.0       0.0       0.0       0.0       0.0
 4 O  s               0.1       0.2       3.1       0.1       0.0       0.2
 4 O  pz              1.0       0.1       0.4       7.4      36.5       1.0
 4 O  px              0.3       3.0       7.1       0.3       0.3       0.3
 4 O  py              0.0       0.5      25.5       0.1       3.3       7.9
 4 O  dz2             0.0       0.0       0.1       0.0       0.0       0.0
 4 O  dxz             0.3       0.0       0.0       0.1       0.1       0.0
 4 O  dx2y2           0.0       0.2       0.2       0.0       0.0       0.0
 4 O  dxy             0.0       0.0       0.5       0.0       0.0       0.0
 5 C  s               0.0       0.1       0.2       0.0       0.0       0.1
 5 C  pz             11.4       0.0       0.1       4.3       3.8       0.0
 5 C  px              0.2       1.7       2.1       0.1       0.0       0.7
 5 C  py              0.1       0.2      13.1       0.0       0.3       0.2
 5 C  dz2             0.1       0.0       0.2       0.0       0.0       0.0
 5 C  dxz             0.6       0.0       0.1       0.9       2.8       0.0
 5 C  dyz             0.1       0.0       0.3       0.1       0.8       0.0
 5 C  dx2y2           0.1       0.0       0.0       0.0       0.2       0.2
 5 C  dxy             0.0       0.0       2.3       0.0       0.2       0.1
 5 C  f0              0.0       0.0       0.0       0.0       0.1       0.0
 5 C  f+2             0.0       0.0       0.0       0.1       0.3       0.0
 5 C  f+3             0.0       0.0       0.1       0.0       0.0       0.0
 5 C  f-3             0.0       0.0       0.2       0.0       0.0       0.1
 6 H  s               4.7       6.1       0.3       7.7       0.3       0.0
 6 H  pz              0.0       0.3       0.0       0.0       0.0       0.0
 6 H  px              0.2       0.0       0.0       0.0       0.0       0.0
 6 H  py              0.0       0.0       0.0       0.1       0.0       0.0
 7 H  s               2.9       6.0       0.0       0.1       0.0       1.5
 7 H  pz              0.1       0.0       0.0       0.2       0.0       0.0
 7 H  py              0.1       0.2       0.0       0.0       0.0       0.0
 8 H  s               6.8       4.7       0.8       6.6       0.4       0.1
 8 H  pz              0.1       0.1       0.0       0.0       0.0       0.0
 8 H  py              0.1       0.2       0.0       0.0       0.0       0.0
 9 H  s               0.0       4.3       0.3       9.6       0.3       0.2
 9 H  px              0.0       0.0       0.1       0.1       0.0       0.1
 9 H  py              0.0       0.2       0.0       0.1       0.0       0.0
10 H  s               0.3       6.4       0.1       8.2       0.2       0.1
10 H  pz              0.0       0.3       0.0       0.0       0.0       0.0
10 H  px              0.0       0.0       0.0       0.1       0.0       0.1
10 H  py              0.0       0.0       0.0       0.1       0.0       0.0
11 H  s               1.8       0.0       5.3       1.1       3.4       0.1
11 H  pz              0.0       0.0       0.2       0.0       0.0       0.0
11 H  py              0.1       0.0       0.0       0.1       0.0       0.0
12 H  s               0.8       0.4       5.4       0.2       0.0       0.1
12 H  pz              0.1       0.0       0.0       0.1       0.1       0.0
12 H  px              0.0       0.0       0.1       0.0       0.0       0.0
13 H  s               6.1       0.1       2.0       2.9       3.5       0.1
13 H  py              0.0       0.0       0.1       0.0       0.0       0.0

                     24        25        26        27        28        29   
                   0.09655   0.10984   0.13475   0.15566   0.17435   0.17780
                   0.00000   0.00000   0.00000   0.00000   0.00000   0.00000
                  --------  --------  --------  --------  --------  --------
 0 C  s               1.1       4.3       1.5       4.7       0.7       0.0
 0 C  pz              0.3       0.1       0.0       2.5       0.0       6.9
 0 C  px              0.0       0.2       0.8       0.4       6.7       0.0
 0 C  py              0.0       1.0       0.1       7.4       0.1       2.8
 0 C  dz2             0.0       0.1       0.0       0.0       0.0       2.0
 0 C  dxz             0.3       0.0       0.0       0.0       0.0       0.0
 0 C  dyz             0.2       0.6       0.0       0.9       0.0       1.1
 0 C  dx2y2           0.0       0.4       0.2       0.9       0.3       0.5
 0 C  dxy             0.1       0.2       0.0       0.0       0.2       0.1
 1 C  s               0.6       3.6       0.2       4.3       0.2       0.0
 1 C  pz              0.5       0.2       0.0       1.5       0.1       7.5
 1 C  px              0.0       0.3       0.8       1.0       3.5       0.1
 1 C  py              0.0       0.8       0.2       2.5       0.4       1.9
 1 C  dz2             1.7       0.0       0.0       0.2       0.1       1.6
 1 C  dxz             5.9       1.0       0.0       0.0       0.0       0.0
 1 C  dyz             0.2       0.9       0.2       0.2       0.0       1.0
 1 C  dx2y2           0.1       0.2       0.1       0.9       0.2       0.4
 1 C  dxy             0.5       0.5       0.4       0.0       0.2       0.1
 1 C  f0              0.2       0.0       0.0       0.1       0.0       0.0
 1 C  f+2             0.2       0.0       0.0       0.0       0.0       0.0
 2 C  s               0.5       3.5       0.9       0.8       1.8       0.1
 2 C  pz             31.8       4.3       0.1       0.9       0.1       5.3
 2 C  px              0.1       1.1       0.6       0.2       0.8       0.0
 2 C  py              2.1       0.7       1.0       1.3       0.2       1.0
 2 C  dz2             0.9       1.5       0.3       0.6       1.0       0.1
 2 C  dxz             2.0       0.0       0.0       0.1       0.0       0.1
 2 C  dyz             0.6       1.2       0.1       0.0       0.2       0.1
 2 C  dx2y2           0.1       0.3       0.1       0.1       0.1       0.1
 2 C  dxy             0.0       0.1       0.3       0.0       0.0       0.1
 2 C  f0              0.5       0.1       0.0       0.0       0.0       0.1
 2 C  f-1             0.5       0.1       0.0       0.0       0.0       0.0
 2 C  f+2             0.2       0.0       0.0       0.0       0.0       0.0
 2 C  f+3             0.0       0.2       0.0       0.0       0.1       0.0
 3 O  s               0.0       0.3       0.4       0.5       0.3       0.1
 3 O  pz             15.7       1.9       0.0       0.1       0.0       1.4
 3 O  px              0.1       0.3       0.2       0.3       0.2       0.1
 3 O  py              0.9       0.5       0.1       0.2       0.1       0.4
 3 O  dz2             0.4       0.0       0.0       0.0       0.0       0.0
 3 O  dxz             0.4       0.0       0.0       0.0       0.0       0.0
 3 O  dyz             1.5       0.3       0.0       0.0       0.0       0.0
 3 O  dx2y2           0.1       0.1       0.0       0.0       0.0       0.0
 4 O  s               0.1       1.4       0.3       0.1       3.5       0.0
 4 O  pz              5.9       1.0       0.0       0.0       0.0       0.5
 4 O  px              0.1       0.0       0.7       0.0       3.6       0.0
 4 O  py              0.5       0.3       0.0       0.3       0.3       0.2
 4 O  dz2             0.3       0.1       0.2       0.0       0.1       0.0
 4 O  dxz             0.5       0.1       0.0       0.0       0.0       0.0
 4 O  dyz             0.7       0.1       0.0       0.0       0.0       0.0
 4 O  dx2y2           0.0       0.0       0.5       0.0       0.2       0.0
 4 O  dxy             0.1       0.0       0.1       0.0       0.0       0.1
 5 C  s               0.1       1.0      11.6       0.3       1.2       0.0
 5 C  pz              0.1       0.0       0.0       0.3       0.1       1.0
 5 C  px              0.4       4.3       4.1       0.0      36.5       0.1
 5 C  py              0.1       0.6       0.1       1.1       1.8       1.9
 5 C  dz2             0.0       0.8       0.1       0.0       3.6       0.1
 5 C  dxz             0.7       0.3       0.0       0.0       0.2       0.0
 5 C  dyz             0.5       0.0       0.0       0.0       0.1       0.3
 5 C  dx2y2           0.3       0.4       0.0       0.1       5.9       0.0
 5 C  dxy             0.0       0.1       0.0       0.0       0.2       0.1
 5 C  f+1             0.0       0.0       0.1       0.0       0.1       0.0
 5 C  f+3             0.0       0.0       0.1       0.0       0.2       0.0
 6 H  s               1.1       8.0       1.0       9.5       0.4      13.5
 6 H  pz              0.0       0.4       0.0       0.2       0.0       0.0
 6 H  px              0.0       0.3       0.1       0.1       0.0       0.2
 6 H  py              0.1       0.3       0.1       0.9       0.0       1.2
 7 H  s               1.3       6.8       4.5       4.5      15.1       0.2
 7 H  pz              0.0       0.0       0.0       0.0       0.0       0.1
 7 H  px              0.2       0.9       0.5       0.6       1.4       0.0
 8 H  s               2.0       7.8       1.0      12.5       0.0      10.4
 8 H  pz              0.2       0.8       0.2       1.6       0.0       0.9
 8 H  py              0.0       0.0       0.0       0.1       0.0       0.2
 9 H  s               9.6       8.0       0.4      17.4       0.6      12.2
 9 H  pz              0.7       0.7       0.1       2.1       0.1       1.0
 9 H  px              0.3       0.0       0.0       0.0       0.0       0.1
 9 H  py              0.0       0.1       0.0       0.0       0.0       0.2
10 H  s               1.5      14.6       1.4      10.2       2.3      13.0
10 H  pz              0.0       0.6       0.1       0.3       0.1       0.0
10 H  px              0.1       0.4       0.1       0.1       0.0       0.3
10 H  py              0.0       0.6       0.0       1.0       0.2       1.1
11 H  s               1.0       1.7      20.1       0.0       0.3       2.5
[...]
 5 C  dx2y2           0.0       0.2       0.0       0.0       0.1       0.0
 5 C  dxy             0.0       0.0       0.1       0.0       0.1       0.0
 5 C  f+2             0.0       0.0       0.0       0.2       0.0       0.1
 5 C  f+3             0.0       0.1       0.0       0.0       0.1       0.0
 5 C  f-3             0.0       0.1       0.0       0.0       0.1       0.0
12 H  s               0.0       0.0       0.1       0.0       0.0       0.0

                    222       223       224       225       226       227   
                   6.96007   6.98161   7.10324   7.21614   7.35162   7.49065
                   0.00000   0.00000   0.00000   0.00000   0.00000   0.00000
                  --------  --------  --------  --------  --------  --------
 1 C  s               0.2       0.0       0.1       0.1       0.0       0.0
 1 C  py              0.0       0.0       0.1       0.0       0.0       0.1
 1 C  dx2y2           0.1       0.0       0.0       0.1       0.0       0.0
 1 C  dxy             0.3       0.0       0.0       0.0       0.2       0.1
 1 C  f+3             0.2       0.0       0.1       0.0       0.0       0.1
 1 C  f-3             0.3       0.0       0.0       0.0       0.1       0.0
 2 C  s               0.2       0.0       0.4       3.7       1.7       0.1
 2 C  pz              0.0       0.1       0.1       0.1       0.0       0.0
 2 C  px              0.0       0.0       0.9       0.8       0.5       0.1
 2 C  py              0.0       0.0       1.0       1.3       0.2       0.1
 2 C  dz2             0.0       0.5       0.0       0.1       0.0       0.0
 2 C  dxz             0.1       0.0       0.1       0.0       0.1       0.1
 2 C  dyz             0.2       1.9       0.0       0.2       0.2       0.1
 2 C  dx2y2           0.5       0.2       0.5       0.4       0.8       1.5
 2 C  dxy             2.0       0.0       1.4       0.1       2.3       0.6
 2 C  f0              0.0       0.0       0.1       0.1       0.1       0.0
 2 C  f+1             0.0       0.1       0.0       0.0       0.1       0.0
 2 C  f-1             0.1       0.0       0.1       0.2       0.0       0.0
 2 C  f+2             1.0       0.0       0.0       0.3       0.5       0.4
 2 C  f-2             0.0       0.2       0.0       0.2       0.2       0.0
 2 C  f+3             0.5       0.0       0.0       1.3       1.1       0.4
 2 C  f-3             7.8       0.0       0.0       1.6       2.6       1.3
 3 O  s               0.1       0.0       0.3       1.8       0.0       0.5
 3 O  pz              0.1       1.0       0.0       0.2       0.1       0.0
 3 O  px              0.8       0.0       1.6       0.1       1.9       0.0
 3 O  py              0.1       0.1       0.0       3.0       0.2       0.1
 3 O  dz2             2.4       3.8       3.7       8.4       0.9       0.7
 3 O  dxz             0.5       7.7       1.3       0.9       0.2       0.1
 3 O  dyz             1.7      21.0       0.2       7.9       0.1       0.7
 3 O  dx2y2           5.8       2.2       7.1      32.2       1.8       1.3
 3 O  dxy             3.6       0.1      37.0      11.9       6.9       1.2
 3 O  f0              0.0       1.5       0.0       1.4       0.0       0.1
 3 O  f+1             0.5       0.4       0.6       0.1       1.2       0.2
 3 O  f-1             0.2       2.5       0.4       2.1       0.2       0.2
 3 O  f+2             1.3       2.1       0.3       2.6       0.9       0.0
 3 O  f-2             0.0       2.4       0.5       0.5       0.3       0.0
 3 O  f+3             0.7       0.1       3.9       2.4       1.9       0.2
 3 O  f-3             9.9       0.6       4.3       6.5      10.5       0.7
 4 O  s               1.0       0.0       0.7       0.2       1.0       2.2
 4 O  px              2.8       0.0       0.1       0.0       0.6       0.2
 4 O  py              0.8       0.0       0.2       0.1       0.6       0.2
 4 O  dz2             9.9       4.0      11.2       2.6       0.9       7.6
 4 O  dxz             0.2      32.5       2.0       0.1       3.5       2.0
 4 O  dyz             0.6       3.7       5.6       1.2       1.7       0.5
 4 O  dx2y2           3.4       0.0       0.6       0.4       0.5      59.4
 4 O  dxy            25.2       3.4      11.5       0.2      40.4       0.9
 4 O  f0              0.1       0.0       0.3       0.2       0.2       0.0
 4 O  f+1             2.0       0.3       0.0       0.1       0.1       0.5
 4 O  f-1             0.4       0.9       0.3       0.2       0.1       0.0
 4 O  f+2             2.3       2.1       0.2       0.1       1.2       0.6
 4 O  f-2             0.0       2.6       0.1       0.0       0.7       0.2
 4 O  f+3             2.9       0.6       0.4       0.3       5.2       1.3
 4 O  f-3             4.4       0.1       0.1       1.1       3.7       8.6
 5 C  s               0.8       0.0       0.0       0.0       0.1       1.3
 5 C  px              0.8       0.0       0.0       0.0       0.1       1.7
 5 C  py              0.0       0.0       0.1       0.0       0.1       0.1
 5 C  dz2             0.1       0.0       0.0       0.0       0.0       0.2
 5 C  dxz             0.0       0.3       0.0       0.0       0.0       0.0
 5 C  dx2y2           0.3       0.0       0.1       0.0       0.0       0.6
 5 C  dxy             0.0       0.0       0.0       0.0       0.5       0.1
 5 C  f+2             0.0       0.2       0.0       0.0       0.0       0.0
 5 C  f+3             0.1       0.0       0.0       0.0       0.1       0.0
 5 C  f-3             0.0       0.0       0.0       0.1       0.3       0.0

                    228       229       230       231       232       233   
                  22.37923  22.42827  22.55188  23.34813  43.95652  44.12954
                   0.00000   0.00000   0.00000   0.00000   0.00000   0.00000
                  --------  --------  --------  --------  --------  --------
 0 C  s               5.9      91.6       0.7       0.5       0.0       0.0
 1 C  s               0.2       0.6      97.7       0.2       0.0       0.0
 2 C  s               1.3       0.2       0.2      94.6       0.0       0.0
 2 C  px              0.0       0.0       0.1       0.3       0.0       0.0
 2 C  dz2             0.0       0.0       0.0       0.1       0.0       0.0
 3 O  s               0.0       0.0       0.0       0.9      98.7       1.2
 3 O  px              0.0       0.0       0.0       0.1       0.0       0.0
 3 O  py              0.0       0.0       0.0       0.5       0.0       0.0
 4 O  s               0.2       0.0       0.0       0.4       1.2      98.5
 4 O  px              0.2       0.0       0.0       0.2       0.0       0.0
 4 O  py              0.0       0.0       0.0       0.3       0.0       0.0
 5 C  s              91.0       6.3       0.0       1.0       0.0       0.1
 6 H  s               0.0       0.2       0.0       0.0       0.0       0.0
 7 H  s               0.0       0.2       0.0       0.0       0.0       0.0
 8 H  s               0.0       0.2       0.0       0.0       0.0       0.0
 9 H  s               0.0       0.0       0.2       0.0       0.0       0.0
10 H  s               0.0       0.0       0.2       0.0       0.0       0.0
11 H  s               0.2       0.0       0.0       0.0       0.0       0.0
12 H  s               0.2       0.0       0.0       0.0       0.0       0.0
13 H  s               0.2       0.0       0.0       0.0       0.0       0.0



                      *****************************
                      * MAYER POPULATION ANALYSIS *
                      *****************************

  NA   - Mulliken gross atomic population
  ZA   - Total nuclear charge
  QA   - Mulliken gross atomic charge
  VA   - Mayer's total valence
  BVA  - Mayer's bonded valence
  FA   - Mayer's free valence

  ATOM       NA         ZA         QA         VA         BVA        FA
  0 C      6.3199     6.0000    -0.3199     3.9125     3.9125    -0.0000
  1 C      6.1761     6.0000    -0.1761     3.8554     3.8554    -0.0000
  2 C      5.7030     6.0000     0.2970     4.2341     4.2341    -0.0000
  3 O      8.3447     8.0000    -0.3447     2.1692     2.1692    -0.0000
  4 O      8.2360     8.0000    -0.2360     2.0999     2.0999     0.0000
  5 C      6.1941     6.0000    -0.1941     3.8957     3.8957    -0.0000
  6 H      0.8851     1.0000     0.1149     0.9815     0.9815     0.0000
  7 H      0.8840     1.0000     0.1160     0.9683     0.9683    -0.0000
  8 H      0.8878     1.0000     0.1122     0.9793     0.9793    -0.0000
  9 H      0.8809     1.0000     0.1191     0.9761     0.9761     0.0000
 10 H      0.8742     1.0000     0.1258     0.9813     0.9813    -0.0000
 11 H      0.8698     1.0000     0.1302     0.9726     0.9726    -0.0000
 12 H      0.8726     1.0000     0.1274     0.9655     0.9655     0.0000
 13 H      0.8719     1.0000     0.1281     0.9710     0.9710    -0.0000

  Mayer bond orders larger than 0.100000
B(  0-C ,  1-C ) :   0.9851 B(  0-C ,  6-H ) :   0.9731 B(  0-C ,  7-H ) :   0.9738 
B(  0-C ,  8-H ) :   0.9783 B(  1-C ,  2-C ) :   0.9809 B(  1-C ,  9-H ) :   0.9504 
B(  1-C , 10-H ) :   0.9717 B(  2-C ,  3-O ) :   2.0588 B(  2-C ,  4-O ) :   1.1787 
B(  4-O ,  5-C ) :   0.9132 B(  5-C , 11-H ) :   0.9787 B(  5-C , 12-H ) :   0.9729 
B(  5-C , 13-H ) :   0.9778 

-------
TIMINGS
-------

Total SCF time: 0 days 0 hours 1 min 38 sec 

Total time                  ....      98.868 sec
Sum of individual times     ....      96.960 sec  ( 98.1%)

SCF preparation             ....       0.133 sec  (  0.1%)
Fock matrix formation       ....      96.133 sec  ( 97.2%)
  Startup                   ....       0.005 sec  (  0.0% of F)
  Split-RI-J                ....       3.515 sec  (  3.7% of F)
  Chain of spheres X        ....      84.362 sec  ( 87.8% of F)
  XC integration            ....      10.054 sec  ( 10.5% of F)
    Basis function eval.    ....       2.629 sec  ( 26.2% of XC)
    Density eval.           ....       2.294 sec  ( 22.8% of XC)
    XC-Functional eval.     ....       2.462 sec  ( 24.5% of XC)
    XC-Potential eval.      ....       2.469 sec  ( 24.6% of XC)
Diagonalization             ....       0.000 sec  (  0.0%)
Density matrix formation    ....       0.033 sec  (  0.0%)
Total Energy calculation    ....       0.005 sec  (  0.0%)
Population analysis         ....       0.294 sec  (  0.3%)
Orbital Transformation      ....       0.024 sec  (  0.0%)
Orbital Orthonormalization  ....       0.000 sec  (  0.0%)
DIIS solution               ....       0.087 sec  (  0.1%)
  MO trafo                  ....       0.000 sec  (  0.0 % of DIIS)
  Orb grad                  ....       0.000 sec  (  0.0 % of DIIS)
  Energy W gradient         ....       0.000 sec  (  0.0 % of DIIS)
  DIIS error                ....       0.010 sec  ( 12.0 % of DIIS)
  DIIS work                 ....       0.064 sec  ( 72.6 % of DIIS)
  Form Q                    ....       0.000 sec  (  0.0 % of DIIS)
  Form QpQm                 ....       0.000 sec  (  0.0 % of DIIS)
  Exp/Cayley                ....       0.000 sec  (  0.0 % of DIIS)
  Orb update                ....       0.000 sec  (  0.0 % of DIIS)
  Wake-sleep                ....       0.001 sec  (  0.9 % of DIIS)
SOSCF solution              ....       0.049 sec  (  0.0%)
  MO trafo                  ....       0.025 sec  ( 50.8 % of SOSCF)
  Orb grad                  ....       0.000 sec  (  0.8 % of SOSCF)
  Rot update                ....       0.002 sec  (  3.1 % of SOSCF)
  Step                      ....       0.022 sec  ( 45.2 % of SOSCF)
Grid generation             ....       0.202 sec  (  0.2%)
Finished LeanSCF after  98.9 sec

Maximum memory used throughout the entire LEANSCF-calculation: 28.1 MB
------------------   -----------------
gCP correction             0.009476692
------------------   -----------------

-------------------------   --------------------
FINAL SINGLE POINT ENERGY      -307.719949602974
-------------------------   --------------------


------------------------------------------------------------------------------
                              ORCA PROPERTY CALCULATIONS
------------------------------------------------------------------------------

GBWName                                 ... sp.gbw
Number of atoms                         ...     14
Number of basis functions               ...    234
Max core memory                         ...   1024 MB

Electric properties:
Dipole moment                           ... YES
Quadrupole moment                       ...  NO
Static polarizability (Dipole/Dipole)   ...  NO
Static polarizability (Dipole/Quad.)    ...  NO
Static polarizability (Quad./Quad.)     ...  NO
Static polarizability (Velocity)        ...  NO

Atomic electric properties:
Dipole moment                           ...  NO
Quadrupole moment                       ...  NO
Static polarizability                   ...  NO

Choice of electric origin               ... Center of mass
Position of electric origin             ...     0.019223     0.035628    -0.062034

General magnetic properties:
Magnetizability                         ...  NO

EPR properties:
g-Tensor (aka g-matrix)                 ...  NO
Zero-Field splitting spin-orbit         ...  NO
Zero-field splitting spin-spin          ...  NO
Hyperfine couplings                     ...  NO (   0 nuclei)
Quadrupole couplings                    ...  NO (   0 nuclei)
Contact density                         ...  NO (   0 nuclei)

NMR properties:
Chemical shifts                         ...  NO (   0 nuclei)
Spin-rotation constants                 ...  NO (   0 nuclei)
Spin-spin couplings                     ...  NO (   0 nuclei,    0 pairs)

Choice of magnetic origin               ... GIAO
Position of magnetic origin             ...     0.000000     0.000000     0.000000

Properties with geometric perturbations:
SCF Hessian                             ...  NO
IR spectrum                             ...  NO
VCD spectrum                            ...  NO
X-ray spectroscopy properties:
SCF XES/XAS/RIXS spectra                ...  NO


-------------
DIPOLE MOMENT
-------------

Method             : SCF
Type of density    : Electron Density
Multiplicity       :   1
Irrep              :   0
Energy             :  -307.7294262946737717 Eh
Relativity type    : 
Basis              : AO
                                X                 Y                 Z
Electronic contribution:      2.317404798      -3.218856086      -1.024404739
Nuclear contribution   :     -2.405704077       3.956087992       1.208280347
                        -----------------------------------------
Total Dipole Moment    :     -0.088299279       0.737231906       0.183875608
                        -----------------------------------------
Magnitude (a.u.)       :      0.764929987
Magnitude (Debye)      :      1.944297510



--------------------
Rotational spectrum 
--------------------
 
Rotational constants in cm-1:             0.202749             0.088953             0.064230 
Rotational constants in MHz :          6078.260558          2666.755384          1925.577243 

Dipole components along the rotational axes: 
x,y,z [a.u.] :    -0.238528     0.724579    -0.056635 
x,y,z [Debye]:    -0.606291     1.841733    -0.143955 

 

Dipole moment calculation done in   0.0 sec 

Maximum memory used throughout the entire PROP-calculation: 17.2 MB

--------------------------------
SUGGESTED CITATIONS FOR THIS RUN
--------------------------------

Below you find a list of papers that are relevant to this ORCA run
We neither can nor want to force you to cite these papers, but we appreciate if you do
You receive ORCA, which is the product of decades of hard work by many enthusiastic individuals, for free
The only thing we kindly ask in return is that you cite our papers,
We deeply appreciate it, if you show your appreciation for ORCA by not just citing the generic ORCA reference.

Please note that relegating all ORCA citations to the supporting information does *not* help us.
SI sections are not indexed - citations you put there will not count into any citation statistics
But we need these citations in order to attract the funding resources that allow us to do what we are doing

Therefore, if you are a happy ORCA user, please consider citing a few of the papers listed below in the main body of your paper

In addition to the list printed below, the program has created the file sp.bibtex that contains the list in bibtex format
You can import this file easily into all common literature databanks and citation aid programs


List of essential papers. We consider these as the minimum necessary citations

  1. Neese,F.
     Software update: the ORCA program system, version 5.0
     WIRES Comput. Molec. Sci., 2022 12(1)e1606
     doi.org/10.1002/wcms.1606

List of papers to cite with high priority. The work reported in these papers was absolutely
necessary for this run to complete.
Our perspective: the developers of density functionals and basis sets usually get cited in chemistry papers
Good! But without the algorithms to do something with them, the functionals or basis sets would not do anything.
Hence, in our opinion, the algorithm design and method developments papers are equally worthy of getting cited

  1. Neese,F.
     An improvement of the resolution of the identity approximation for the formation of the Coulomb matrix
     J. Comp. Chem., 2003 24(14)1740-1747
     doi.org/10.1002/jcc.10318
  2. Neese,F.; Wennmohs,F.; Hansen,A.; Becker,U.
     Efficient, approximate and parallel Hartree-Fock and hybrid DFT calculations. A 'chain-of-spheres' algorithm for the Hartree-Fock exchange
     Chem. Phys., 2009 356(1-3)98-109
     doi.org/10.1016/j.chemphys.2008.10.036
  3. Helmich-Paris,B.; de Souza,B.; Neese,F.; Izsák,R.
     An improved chain of spheres for exchange algorithm
     J. Chem. Phys., 2021 155 104109
     doi.org/doi: 10.1063/5.0058766.
  4. Neese,F.
     The SHARK Integral Generation and Digestion System
     J. Comp. Chem., 2022  1-16
     doi.org/10.1002/jcc.26942

List of suggested additional citations. These are papers that are important in the 'surrounding' of 
of this run, or papers that preceded the highly important papers. If you like your results we are grateful for a citation.

  1. Izsak,R.; Neese,F.
     An overlap fitted chain of spheres exchange method
     J. Chem. Phys., 2011 135 144105
     doi.org/10.1063/1.3646921
  2. Izsak,R.; Hansen,A.; Neese,F.
     The resolution of identity and chain of spheres approximations for the LPNO-CCSD singles Fock term
     Molec. Phys., 2012 110 2413-2417
     doi.org/10.1080/00268976.2012.687466
  3. Neese,F.
     The ORCA program system
     WIRES Comput. Molec. Sci., 2012 2(1)73-78
     doi.org/10.1002/wcms.81
  4. Izsak,R.; Neese,F.; Klopper,W.
     Robust fitting techniques in the chain of spheres approximation to the Fock exchange: The role of the complementary space
     J. Chem. Phys., 2013 139 
     doi.org/10.1063/1.4819264
  5. Neese,F.
     Software update: the ORCA program system, version 4.0
     WIRES Comput. Molec. Sci., 2018 8(1)1-6
     doi.org/10.1002/wcms.1327
  6. Neese,F.; Wennmohs,F.; Becker,U.; Riplinger,C.
     The ORCA quantum chemistry program package
     J. Chem. Phys., 2020 152 Art. No. L224108
     doi.org/10.1063/5.0004608

List of optional additional citations

  1. Neese,F.
     Approximate second-order SCF convergence for spin unrestricted wavefunctions
     Chem. Phys. Lett., 2000 325(1-3)93-98
     doi.org/10.1016/s0009-2614(00)00662-x

Timings for individual modules:

Sum of individual times          ...      100.542 sec (=   1.676 min)
Startup calculation              ...        1.367 sec (=   0.023 min)   1.4 %
SCF iterations                   ...       99.056 sec (=   1.651 min)  98.5 %
Property calculations            ...        0.119 sec (=   0.002 min)   0.1 %
                             ****ORCA TERMINATED NORMALLY****
TOTAL RUN TIME: 0 days 0 hours 1 minutes 40 seconds 662 msec
