
                                 *****************
                                 * O   R   C   A *
                                 *****************

                                            #,                                       
                                            ###                                      
                                            ####                                     
                                            #####                                    
                                            ######                                   
                                           ########,                                 
                                     ,,################,,,,,                         
                               ,,#################################,,                 
                          ,,##########################################,,             
                       ,#########################################, ''#####,          
                    ,#############################################,,   '####,        
                  ,##################################################,,,,####,       
                ,###########''''           ''''###############################       
              ,#####''   ,,,,##########,,,,          '''####'''          '####       
            ,##' ,,,,###########################,,,                        '##       
           ' ,,###''''                  '''############,,,                           
         ,,##''                                '''############,,,,        ,,,,,,###''
      ,#''                                            '''#######################'''  
     '                                                          ''''####''''         
             ,#######,   #######,   ,#######,      ##                                
            ,#'     '#,  ##    ##  ,#'     '#,    #''#        ,####,   ,####,        
            ##       ##  ##   ,#'  ##            #'  '#       #'       #'  '#        
            ##       ##  #######   ##           ,######,      #####,   #    #        
            '#,     ,#'  ##    ##  '#,     ,#' ,#      #,     #,   #   #,  ,#        
             '#######'   ##     ##  '#######'  #'      '#     '####' # '####'        



                #########################################################
                #                        -***-                          #
                #          Department of theory and spectroscopy        #
                #                                                       #
                #                      Frank Neese                      #
                #                                                       #
                #     Directorship, Architecture, Infrastructure        #
                #                    SHARK, DRIVERS                     #
                #        Core code/Algorithms in most modules           #
                #                                                       #
                #        Max Planck Institute fuer Kohlenforschung      #
                #                Kaiser Wilhelm Platz 1                 #
                #                 D-45470 Muelheim/Ruhr                 #
                #                      Germany                          #
                #                                                       #
                #                  All rights reserved                  #
                #                        -***-                          #
                #########################################################


                         Program Version 6.0.1  -  RELEASE   -


 With contributions from (in alphabetic order):
[Max-Planck-Institut fuer Kohlenforschung]                               
  Daniel Aravena         : Magnetic Suceptibility                        
  Michael Atanasov       : Ab Initio Ligand Field Theory (pilot matlab implementation)
  Alexander A. Auer      : GIAO ZORA, VPT2 properties, NMR spectrum      
  Ute Becker             : All parallelization in ORCA, NUMFREQ, NUMCALC 
  Giovanni Bistoni       : ED, misc. LED, open-shell LED, HFLD           
  Martin Brehm           : Molecular dynamics                            
  Dmytro Bykov           : pre 5.0 version of the SCF Hessian            
  Marcos Casanova-Páez   : Triplet and SCS-CIS(D). UHF-(DLPNO)-IP/EA/STEOM-CCSD. UHF-CVS-IP/STEOM-CCSD   
  Vijay G. Chilkuri      : MRCI spin determinant printing, contributions to CSF-ICE 
  Pauline Colinet        : FMM embedding                                 
  Dipayan Datta          : RHF DLPNO-CCSD density                        
  Achintya Kumar Dutta   : EOM-CC, STEOM-CC                              
  Nicolas Foglia         : Exact transition moments, OPA infrastructure, MCD improvements    
  Dmitry Ganyushin       : Spin-Orbit,Spin-Spin,Magnetic field MRCI      
  Miquel Garcia-Rates    : C-PCM and meta-GGA Hessian, CCSD/C-PCM, Gaussian charge scheme 
  Tiago L. C. Gouveia    : GS-ROHF, GS-ROCIS                             
  Yang Guo               : DLPNO-NEVPT2, F12-NEVPT2, CIM, IAO-localization        
  Andreas Hansen         : Spin unrestricted coupled pair/coupled cluster methods 
  Ingolf Harden          : AUTO-CI MPn and infrastructure                
  Benjamin Helmich-Paris : MC-RPA, TRAH-(SCF,CASSCF), AVAS, COSX integrals, SCF dyn. polar. 
  Lee Huntington         : MR-EOM, pCC                                   
  Robert Izsak           : Overlap fitted RIJCOSX, COSX-SCS-MP3, EOM     
  Riya Kayal             : Wick's Theorem for AUTO-CI, AUTO-CI UHF-CCSDT 
  Emily Kempfer          : AUTO-CI, RHF CISDT and CCSDT                  
  Christian Kollmar      : KDIIS, OOCD, Brueckner-CCSD(T), CCSD density, CASPT2, CASPT2-K, improved NEVPT2 
  Axel Koslowski         : Symmetry handling                             
  Simone Kossmann        : meta-GGA functionals, TD-DFT gradient, OOMP2, (MP2 Hessian; deprecated post 5.0) 
  Lucas Lang             : DCDCAS                                        
  Marvin Lechner         : AUTO-CI (C++ implementation), FIC-MRCC        
  Spencer Leger          : CASSCF response                               
  Dagmar Lenk            : GEPOL surface, SMD, ORCA-2-JSON               
  Dimitrios Liakos       : Extrapolation schemes; Compound Job, initial MDCI parallelization 
  Dimitrios Manganas     : Further ROCIS development; embedding schemes. LFT, Crystal Embedding 
  Dimitrios Pantazis     : SARC Basis sets                               
  Anastasios Papadopoulos: AUTO-CI, single reference methods and gradients 
  Taras Petrenko         : pre 6.0 DFT Hessian and TD-DFT gradient, (ASA, deprecated), ECA, 1-Electron XAS/XES, NRVS 
  Peter Pinski           : DLPNO-MP2, DLPNO-MP2 Gradient                 
  Christoph Reimann      : Effective Core Potentials                     
  Marius Retegan         : Local ZFS, SOC                                
  Christoph Riplinger    : Optimizer, TS searches, QM/MM, DLPNO-CCSD(T), (RO)-DLPNO pert. Triples 
  Michael Roemelt        : Original ROCIS implementation                 
  Masaaki Saitow         : Open-shell DLPNO-CCSD energy and density      
  Barbara Sandhoefer     : DKH picture change effects                    
  Kantharuban Sivalingam : CASSCF convergence/infrastructure, NEVPT2 and variants, FIC-MRCI 
  Bernardo de Souza      : ESD, SOC TD-DFT                               
  Georgi L. Stoychev     : AutoAux, RI-MP2 NMR, DLPNO-MP2 response, X2C  
  Van Anh Tran           : RI-MP2 g-tensors                              
  Willem Van den Heuvel  : Paramagnetic NMR                              
  Zikuan Wang            : NOTCH, Electric field optimization            
  Frank Wennmohs         : Technical directorship and infrastructure     
  Hang Xu                : AUTO-CI-Response properties                   
                                                                         
[FACCTs GmbH]                                                            
  Markus Bursch, Miquel Garcia-Rates, Christoph Riplinger, Bernardo de Souza, Georgi L. Stoychev 
                                                                 
  APM, Basis sets (HGBS, AHGBS, def-TZVP (Ac-Lr), def2-XVPD (La-Lu)), CI-OPT, improved COSX, DLPNO-Multilevel,           
  DOCKER, DRACO, updates on ESD, GOAT, IRC, LR-CPCM, MBIS, meta-GGA TD-DFT gradient, ML-optimized integration grids, 
  MM, NACMEs, nearIR, NEB, NEB-TS, NL-DFT gradient (VV10), 2- and 3-layer-ONIOM, interface openCOSMO-RS, QMMM,   
  Crystal-QMMM, SF, symmetry and pop. for TD-DFT, r2SCAN hybrids, SOLVATOR                                   
                                                                         
[Other institutions]                                                     
  V. Asgeirsson          : NEB                                           
  Christoph Bannwarth    : sTDA-DFT, sTD-DFT, PBEh-3c, B97-3c, D3        
  Sebastian Ehlert       : rSCAN, r2SCAN, r2SCAN-3c, D4, dhf basis sets  
  Marvin Friede          : D4 for Fr, Ra, Ac-Lr                          
  Lars Goerigk           : TD-DFT with DH, B97 family of functionals     
  Stefan Grimme          : VdW corrections, initial TS optimization, DFT functionals, gCP, sTDA/sTD-DF 
  Waldemar Hujo          : DFT-NL                                        
  H. Jonsson             : NEB                                           
  Holger Kruse           : gCP                                           
  Marcel Mueller         : wB97X-3c, vDZP basis set                      
  Hagen Neugebauer       : wr2SCAN                                       
  Tobias Risthaus        : range-separated hybrid DFT                    
  Lukas Wittmann         : regularized MP2, r2SCAN double-hybrids, wr2SCAN        
                                                                         
We gratefully acknowledge several colleagues who have allowed us to      
interface, adapt or use parts of their codes:                            
  Ed Valeev, F. Pavosevic, A. Kumar             : LibInt (2-el integral package), F12 methods 
  Garnet Chan, S. Sharma, J. Yang, R. Olivares  : DMRG                   
  Ulf Ekstrom                                   : XCFun DFT Library      
  Mihaly Kallay                                 : mrcc  (arbitrary order and MRCC methods)
  Frank Weinhold                                : gennbo (NPA and NBO analysis)           
  Simon Mueller                                 : openCOSMO-RS                            
  Christopher J. Cramer and Donald G. Truhlar   : smd solvation model                     
  S Lehtola, MJT Oliveira, MAL Marques          : LibXC Library                           
  Liviu Ungur et al                             : ANISO software                          


 Your calculation uses the libint2 library for the computation of 2-el integrals
 For citations please refer to: http://libint.valeyev.net

 Your ORCA version has been built with support for libXC version: 6.2.2
 For citations please refer to: https://libxc.gitlab.io

 This ORCA versions uses:
   CBLAS   interface :  Fast vector & matrix operations
   LAPACKE interface :  Fast linear algebra routines
   SCALAPACK package :  Parallel linear algebra routines
   Shared memory     :  Shared parallel matrices
   BLAS/LAPACK       :  OpenBLAS 0.3.27  USE64BITINT DYNAMIC_ARCH NO_AFFINITY Zen SINGLE_THREADED
        Core in use  :  Zen
   Copyright (c) 2011-2014, The OpenBLAS Project


Your calculation utilizes the geometrical counterpoise correction gCP
Please cite in your paper:
H.Kruse, S. Grimme J.Chem.Phys., 136, (2012), 154101 
   

Your calculation utilizes the atom-pairwise dispersion correction
based on EEQ partial charges (D4)


================================================================================

----- Orbital basis set information -----
Your calculation utilizes the basis: def2-SV(P)
   F. Weigend and R. Ahlrichs, Phys. Chem. Chem. Phys. 7, 3297 (2005).

----- AuxJ basis set information -----
Your calculation utilizes the auxiliary basis: def2/J
   F. Weigend, Phys. Chem. Chem. Phys. 8, 1057 (2006).

================================================================================
                                        WARNINGS
                       Please study these warnings very carefully!
================================================================================

WARNING: Old DensityContainer found on disk!
         Will remove this file - 
         If you want to keep old densities, please start your calculation with a different basename. 


================================================================================
                                       INPUT FILE
================================================================================
NAME = sp.inp
|  1> ! pbe def2-sv(p) def2/J RI DEFGRID1 loosescf d4 GCP(DFT/SV(P)) printgap
|  2> %output
|  3>     printlevel normal
|  4> end
|  5> * xyz 0 1
|  6> C 0.5832495886 1.7104703221 -0.0143721752
|  7> C 1.3940029032 0.4284371256 -0.2419449676
|  8> H 1.6389663079 0.3252653019 -1.304910551
|  9> C 0.5485435405 -0.7770805774 0.1928474688
| 10> H 0.3540090518 -0.7037746103 1.2783973244
| 11> C -0.7947268812 -0.7542728089 -0.5432735958
| 12> H -0.6132982056 -0.8867250576 -1.6195294934
| 13> C -1.4731611665 0.6112581384 -0.303650108
| 14> H -2.3680706612 0.6924724208 -0.9398074168
| 15> O -0.6530606297 1.662335838 -0.698628953
| 16> O -1.8188774599 0.7340231715 1.0477814127
| 17> O -1.6607413369 -1.7481882233 -0.0538914313
| 18> O 1.1982125799 -1.9965557817 -0.0857100735
| 19> O 2.6306872564 0.4343824487 0.4303732811
| 20> H 1.1087574043 2.578157455 -0.415487573
| 21> H 0.4112824335 1.8517605919 1.0618512353
| 22> H -2.2417875356 -0.0985583962 1.297803144
| 23> H -1.1703595008 -2.5798315202 -0.0593762272
| 24> H 2.14614427 -1.8542556464 0.034528305
| 25> H 2.483099737 0.6599512276 1.3574043933
| 26> *
| 27> 
| 28>                          ****END OF INPUT****
================================================================================

                       ****************************
                       * Single Point Calculation *
                       ****************************

---------------------------------
CARTESIAN COORDINATES (ANGSTROEM)
---------------------------------
  C      0.583250    1.710470   -0.014372
  C      1.394003    0.428437   -0.241945
  H      1.638966    0.325265   -1.304911
  C      0.548544   -0.777081    0.192847
  H      0.354009   -0.703775    1.278397
  C     -0.794727   -0.754273   -0.543274
  H     -0.613298   -0.886725   -1.619529
  C     -1.473161    0.611258   -0.303650
  H     -2.368071    0.692472   -0.939807
  O     -0.653061    1.662336   -0.698629
  O     -1.818877    0.734023    1.047781
  O     -1.660741   -1.748188   -0.053891
  O      1.198213   -1.996556   -0.085710
  O      2.630687    0.434382    0.430373
  H      1.108757    2.578157   -0.415488
  H      0.411282    1.851761    1.061851
  H     -2.241788   -0.098558    1.297803
  H     -1.170360   -2.579832   -0.059376
  H      2.146144   -1.854256    0.034528
  H      2.483100    0.659951    1.357404

----------------------------
CARTESIAN COORDINATES (A.U.)
----------------------------
  NO LB      ZA    FRAG     MASS         X           Y           Z
   0 C     6.0000    0    12.011    1.102182    3.232320   -0.027159
   1 C     6.0000    0    12.011    2.634284    0.809629   -0.457210
   2 H     1.0000    0     1.008    3.097197    0.614662   -2.465924
   3 C     6.0000    0    12.011    1.036597   -1.468469    0.364429
   4 H     1.0000    0     1.008    0.668980   -1.329941    2.415821
   5 C     6.0000    0    12.011   -1.501816   -1.425369   -1.026638
   6 H     1.0000    0     1.008   -1.158966   -1.675668   -3.060467
   7 C     6.0000    0    12.011   -2.783871    1.155110   -0.573816
   8 H     1.0000    0     1.008   -4.475005    1.308583   -1.775979
   9 O     8.0000    0    15.999   -1.234106    3.141359   -1.320217
  10 O     8.0000    0    15.999   -3.437180    1.387103    1.980020
  11 O     8.0000    0    15.999   -3.138346   -3.303597   -0.101840
  12 O     8.0000    0    15.999    2.264294   -3.772944   -0.161969
  13 O     8.0000    0    15.999    4.971278    0.820864    0.813288
  14 H     1.0000    0     1.008    2.095248    4.872012   -0.785158
  15 H     1.0000    0     1.008    0.777211    3.499320    2.006608
  16 H     1.0000    0     1.008   -4.236364   -0.186248    2.452493
  17 H     1.0000    0     1.008   -2.211659   -4.875175   -0.112205
  18 H     1.0000    0     1.008    4.055625   -3.504035    0.065249
  19 H     1.0000    0     1.008    4.692378    1.247127    2.565123

--------------------------------
INTERNAL COORDINATES (ANGSTROEM)
--------------------------------
 C      0   0   0     0.000000000000     0.00000000     0.00000000
 C      1   0   0     1.533857695454     0.00000000     0.00000000
 H      2   1   0     1.095694905683   109.92614797     0.00000000
 C      2   1   3     1.535291154464   108.85651336   240.79770786
 H      4   2   1     1.105276400318   108.84383309   296.42535034
 C      4   2   1     1.531917047972   109.57838265    54.88040305
 H      6   4   2     1.099448370609   108.89869021    64.62214236
 C      6   4   2     1.543491905845   108.90436145   305.46894667
 H      8   6   4     1.100979057435   109.44078732   172.09776562
 O      8   6   4     1.390445075885   111.43360042    56.36225532
 O      8   6   4     1.400342159622   109.62727784   293.46227031
 O      6   4   2     1.406180568559   111.23948321   187.17517149
 O      4   2   1     1.409533234454   111.68766890   175.49895725
 O      2   1   3     1.407634669881   112.95360891   117.53830809
 H      1   2   3     1.090840495817   110.83299631   305.53967706
 H      1   2   3     1.098996120139   109.60032423   184.61234153
 H     11   8   6     0.966724296335   106.38517540   313.69528937
 H     12   6   4     0.965471388205   107.10106220   309.11222748
 H     13   4   2     0.966064741757   107.47114350    34.35757727
 H     14   2   1     0.965427383537   108.98416172    51.21559627

---------------------------
INTERNAL COORDINATES (A.U.)
---------------------------
 C      0   0   0     0.000000000000     0.00000000     0.00000000
 C      1   0   0     2.898570972816     0.00000000     0.00000000
 H      2   1   0     2.070563298074   109.92614797     0.00000000
 C      2   1   3     2.901279817768   108.85651336   240.79770786
 H      4   2   1     2.088669698887   108.84383309   296.42535034
 C      4   2   1     2.894903680551   109.57838265    54.88040305
 H      6   4   2     2.077656318837   108.89869021    64.62214236
 C      6   4   2     2.916776991972   108.90436145   305.46894667
 H      8   6   4     2.080548897734   109.44078732   172.09776562
 O      8   6   4     2.627560397683   111.43360042    56.36225532
 O      8   6   4     2.646263175470   109.62727784   293.46227031
 O      6   4   2     2.657296169419   111.23948321   187.17517149
 O      4   2   1     2.663631789778   111.68766890   175.49895725
 O      2   1   3     2.660044022688   112.95360891   117.53830809
 H      1   2   3     2.061389792885   110.83299631   305.53967706
 H      1   2   3     2.076801689306   109.60032423   184.61234153
 H     11   8   6     1.826844167081   106.38517540   313.69528937
 H     12   6   4     1.824476513843   107.10106220   309.11222748
 H     13   4   2     1.825597789559   107.47114350    34.35757727
 H     14   2   1     1.824393357074   108.98416172    51.21559627

---------------------
BASIS SET INFORMATION
---------------------
There are 3 groups of distinct atoms

 Group   1 Type C   : 7s4p1d contracted to 3s2p1d pattern {511/31/1}
 Group   2 Type H   : 4s contracted to 2s pattern {31}
 Group   3 Type O   : 7s4p1d contracted to 3s2p1d pattern {511/31/1}

Atom   0C    basis set group =>   1
Atom   1C    basis set group =>   1
Atom   2H    basis set group =>   2
Atom   3C    basis set group =>   1
Atom   4H    basis set group =>   2
Atom   5C    basis set group =>   1
Atom   6H    basis set group =>   2
Atom   7C    basis set group =>   1
Atom   8H    basis set group =>   2
Atom   9O    basis set group =>   3
Atom  10O    basis set group =>   3
Atom  11O    basis set group =>   3
Atom  12O    basis set group =>   3
Atom  13O    basis set group =>   3
Atom  14H    basis set group =>   2
Atom  15H    basis set group =>   2
Atom  16H    basis set group =>   2
Atom  17H    basis set group =>   2
Atom  18H    basis set group =>   2
Atom  19H    basis set group =>   2
---------------------------------
AUXILIARY/J BASIS SET INFORMATION
---------------------------------
There are 3 groups of distinct atoms

 Group   1 Type C   : 12s5p4d2f1g contracted to 6s4p3d1f1g pattern {711111/2111/211/2/1}
 Group   2 Type H   : 5s2p1d contracted to 3s1p1d pattern {311/2/1}
 Group   3 Type O   : 12s5p4d2f1g contracted to 6s4p3d1f1g pattern {711111/2111/211/2/1}

Atom   0C    basis set group =>   1
Atom   1C    basis set group =>   1
Atom   2H    basis set group =>   2
Atom   3C    basis set group =>   1
Atom   4H    basis set group =>   2
Atom   5C    basis set group =>   1
Atom   6H    basis set group =>   2
Atom   7C    basis set group =>   1
Atom   8H    basis set group =>   2
Atom   9O    basis set group =>   3
Atom  10O    basis set group =>   3
Atom  11O    basis set group =>   3
Atom  12O    basis set group =>   3
Atom  13O    basis set group =>   3
Atom  14H    basis set group =>   2
Atom  15H    basis set group =>   2
Atom  16H    basis set group =>   2
Atom  17H    basis set group =>   2
Atom  18H    basis set group =>   2
Atom  19H    basis set group =>   2

Checking for AutoStart:
The File: sp.gbw exists
Trying to determine its content:
     ... Fine, the file contains calculation information
     ... Fine, the calculation information was read
     ... Fine, the file contains a basis set
     ... Fine, the basis set was read
     ... Fine, the file contains a geometry
     ... Fine, the geometry was read
     ... Fine, the file contains a set of orbitals
     ... Fine, the orbitals can be read
     => possible old guess file was deleted
     => GBW file was renamed to GES file
     => GES file is set as startup file
     => Guess is set to MORead
     ... now leaving AutoStart

------------------------------------------------------------------------------
                             ORCA STARTUP CALCULATIONS
                           -- RI-GTO INTEGRALS CHOSEN --
------------------------------------------------------------------------------
------------------------------------------------------------------------------
                   ___                                                        
                  /   \      - P O W E R E D   B Y -                         
                 /     \                                                     
                 |  |  |   _    _      __       _____    __    __             
                 |  |  |  | |  | |    /  \     |  _  \  |  |  /  |          
                  \  \/   | |  | |   /    \    | | | |  |  | /  /          
                 / \  \   | |__| |  /  /\  \   | |_| |  |  |/  /          
                |  |  |   |  __  | /  /__\  \  |    /   |      \           
                |  |  |   | |  | | |   __   |  |    \   |  |\   \          
                \     /   | |  | | |  |  |  |  | |\  \  |  | \   \       
                 \___/    |_|  |_| |__|  |__|  |_| \__\ |__|  \__/        
                                                                              
                      - O R C A' S   B I G   F R I E N D -                    
                                      &                                       
                       - I N T E G R A L  F E E D E R -                       
                                                                              
 v1 FN, 2020, v2 2021, v3 2022-2024                                           
------------------------------------------------------------------------------


----------------------
SHARK INTEGRAL PACKAGE
----------------------

Number of atoms                             ...     20
Number of basis functions                   ...    160
Number of shells                            ...     80
Maximum angular momentum                    ...      2
Integral batch strategy                     ... SHARK/LIBINT Hybrid
RI-J (if used) integral strategy            ... SPLIT-RIJ (Revised 2003 algorithm where possible)
Printlevel                                  ...      1
Contraction scheme used                     ... SEGMENTED contraction
Prescreening option                         ... SCHWARTZ
   Thresh                                   ... 1.000e-09
   Tcut                                     ... 1.000e-10
   Tpresel                                  ... 1.000e-10 
Coulomb Range Separation                    ... NOT USED
Exchange Range Separation                   ... NOT USED
Multipole approximations                    ... NOT USED
Finite Nucleus Model                        ... NOT USED
CABS basis                                  ... NOT available
Auxiliary Coulomb fitting basis             ... AVAILABLE
   # of basis functions in Aux-J            ...    600
   # of shells in Aux-J                     ...    200
   Maximum angular momentum in Aux-J        ...      4
Auxiliary J/K fitting basis                 ... NOT available
Auxiliary Correlation fitting basis         ... NOT available
Auxiliary 'external' fitting basis          ... NOT available

Checking pre-screening integrals            ... done (  0.0 sec) Dimension = 80
Check shell pair data                       ... done (  0.0 sec)
Shell pair information
Shell pair cut-off parameter TPreSel        ...   1.0e-10
Total number of shell pairs                 ...      3240
Shell pairs after pre-screening             ...      3034
Total number of primitive shell pairs       ...     13040
Primitive shell pairs kept                  ...      8504
          la=0 lb=0:   1182 shell pairs
          la=1 lb=0:    954 shell pairs
          la=1 lb=1:    206 shell pairs
          la=2 lb=0:    452 shell pairs
          la=2 lb=1:    191 shell pairs
          la=2 lb=2:     49 shell pairs

Calculating one electron integrals          ... done (  0.0 sec)
Calculating RI/J V-Matrix + Cholesky decomp.... done (  0.0 sec)
Calculating Nuclear repulsion               ... done (  0.0 sec) ENN=    626.029350999611 Eh

Diagonalization of the overlap matrix:
Smallest eigenvalue                        ... 8.990e-04
Time for diagonalization                   ...    0.002 sec
Threshold for overlap eigenvalues          ... 1.000e-07
Number of eigenvalues below threshold      ... 0
Time for construction of square roots      ...    0.001 sec
Total time needed                          ...    0.005 sec

-------------------
DFT GRID GENERATION
-------------------

General Integration Accuracy     IntAcc      ... 4.159
Radial Grid Type                 RadialGrid  ... OptM3 with GC (2021)
Angular Grid (max. ang.)         AngularGrid ... 3 (Lebedev-194)
Angular grid pruning method      GridPruning ... 4 (adaptive)
Weight generation scheme         WeightScheme... mBecke (2022)
Basis function cutoff            BFCut       ... 1.0000e-10
Integration weight cutoff        WCut        ... 1.0000e-14
Partially contracted basis set               ... off
Rotationally invariant grid construction     ... off
Angular grids for H and He will be reduced by one unit

Total number of grid points                  ...    46525
Total number of batches                      ...      738
Average number of points per batch           ...       63
Average number of grid points per atom       ...     2326
Initializing property integral containers    ... done (  0.0 sec)

SHARK setup successfully completed in   0.5 seconds

Maximum memory used throughout the entire STARTUP-calculation: 23.8 MB
-------------------------------------------------------------------------------
                                 ORCA GUESS
                   Start orbitals & Density for SCF / CASSCF
-------------------------------------------------------------------------------

------------
SCF SETTINGS
------------
Hamiltonian:
 Density Functional     Method          .... DFT(GTOs)
 Exchange Functional    Exchange        .... PBE
   PBE kappa parameter   XKappa         ....  0.804000
   PBE mue parameter    XMuePBE         ....  0.219520
 Correlation Functional Correlation     .... PBE
   PBE beta parameter  CBetaPBE         ....  0.066725
 LDA part of GGA corr.  LDAOpt          .... PW91-LDA
 Gradients option       PostSCFGGA      .... off
   NL short-range parameter             ....  6.400000
 RI-approximation to the Coulomb term is turned on
   Number of AuxJ basis functions       .... 600


General Settings:
 Integral files         IntName         .... sp
 Hartree-Fock type      HFTyp           .... RHF
 Total Charge           Charge          ....    0
 Multiplicity           Mult            ....    1
 Number of Electrons    NEL             ....   80
 Basis Dimension        Dim             ....  160
 Nuclear Repulsion      ENuc            ....    626.0293509996 Eh

Convergence Acceleration:
 AO-DIIS                CNVDIIS         .... on
   Start iteration      DIISMaxIt       ....    12
   Startup error        DIISStart       ....  0.200000
   # of expansion vecs  DIISMaxEq       ....     5
   Bias factor          DIISBfac        ....   1.050
   Max. coefficient     DIISMaxC        ....  10.000
 MO-DIIS                CNVKDIIS        .... off
 Trust-Rad. Augm. Hess. CNVTRAH         .... auto
   Auto Start mean grad. ratio tolernc. ....  1.125000
   Auto Start start iteration           ....     1
   Auto Start num. interpolation iter.  ....    10
   Max. Number of Micro iterations      ....    24
   Max. Number of Macro iterations      .... Maxiter - #DIIS iter
   Number of Davidson start vectors     ....     2
   Converg. threshold    (grad. norm)   ....   1.000e-04
   Grad. Scal. Fac. for Micro threshold ....   0.100
   Minimum threshold for Micro iter.    ....   1.000e-02
   NR start threshold (gradient norm)   ....   1.000e-04
   Initial trust radius                 ....   0.400
   Minimum AH scaling param. (alpha)    ....   1.000
   Maximum AH scaling param. (alpha)    .... 1000.000
   Quad. conv. algorithm                .... NR
   White noise on init. David. guess    .... on
   Maximum white noise                  ....   0.010
   Pseudo random numbers                .... off
   Inactive MOs                         .... canonical
   Orbital update algorithm             .... Taylor
   Preconditioner                       .... Diag
   Full preconditioner red. dimension   ....   250
 SOSCF                  CNVSOSCF        .... on
   Start iteration      SOSCFMaxIt      ....   150
   Startup grad/error   SOSCFStart      ....  0.003300
   Hessian update       SOSCFHessUp     .... L-BFGS
 Level Shifting         CNVShift        .... on
   Level shift para.    LevelShift      ....    0.2500
   Turn off err/grad.   ShiftErr        ....    0.0010
 Zerner damping         CNVZerner       .... off
 Static damping         CNVDamp         .... on
   Fraction old density DampFac         ....    0.7000
   Max. Damping (<1)    DampMax         ....    0.9800
   Min. Damping (>=0)   DampMin         ....    0.0000
   Turn off err/grad.   DampErr         ....    0.1000

SCF Procedure:
 Maximum # iterations   MaxIter         ....   125
 SCF integral mode      SCFMode         .... Direct
   Integral package                     .... SHARK and LIBINT hybrid scheme
 Reset frequency        DirectResetFreq ....    20
 Integral Threshold     Thresh          ....  1.000e-09 Eh
 Primitive CutOff       TCut            ....  1.000e-10 Eh

Convergence Tolerance:
 Convergence Check Mode ConvCheckMode   .... Total+1el-Energy
 Convergence forced     ConvForced      .... 0
 Energy Change          TolE            ....  1.000e-05 Eh
 1-El. energy change                    ....  1.000e-02 Eh
 Orbital Gradient       TolG            ....  1.000e-04
 Orbital Rotation angle TolX            ....  1.000e-04
 DIIS Error             TolErr          ....  5.000e-04

---------------------
INITIAL GUESS: MOREAD
---------------------
Guess MOs are being read from file: sp.ges
Input Geometry matches current geometry (good)
Input basis set matches current basis set (good)
Occupation numbers will be reassigned to an Aufbau configuration
MOs were renormalized
MOs were reorthogonalized (Cholesky)
                      ------------------
                      INITIAL GUESS DONE (   0.2 sec)
                      ------------------
             **** ENERGY FILE WAS UPDATED (sp.en.tmp) ****
Finished Guess after   0.3 sec
Maximum memory used throughout the entire GUESS-calculation: 11.7 MB

-------------------------------------------------------------------------------------------
                                      ORCA LEAN-SCF
                              memory conserving SCF solver
-------------------------------------------------------------------------------------------

----------------------------------------D-I-I-S--------------------------------------------
Iteration    Energy (Eh)           Delta-E    RMSDP     MaxDP     DIISErr   Damp  Time(sec)
-------------------------------------------------------------------------------------------
               ***  Starting incremental Fock matrix formation  ***
                              *** Initializing SOSCF ***
---------------------------------------S-O-S-C-F--------------------------------------
Iteration    Energy (Eh)           Delta-E    RMSDP     MaxDP     MaxGrad    Time(sec)
--------------------------------------------------------------------------------------
    1    -571.5293660895939638     0.00e+00  1.51e-05  2.49e-04  1.50e-05     0.7
               *** Restarting incremental Fock matrix formation ***
    2    -571.5293661860788461    -9.65e-08  2.21e-05  4.79e-04  5.15e-05     0.6
    3    -571.5293656799639166     5.06e-07  1.47e-05  3.58e-04  1.05e-04     0.5
                 **** Energy Check signals convergence ****

               *****************************************************
               *                     SUCCESS                       *
               *           SCF CONVERGED AFTER   3 CYCLES          *
               *****************************************************

             **** ENERGY FILE WAS UPDATED (sp.en.tmp) ****

----------------
TOTAL SCF ENERGY
----------------

Total Energy       :       -571.52936567996392 Eh          -15552.10469 eV

Components:
Nuclear Repulsion  :        626.02935099961144 Eh           17035.12469 eV
Electronic Energy  :      -1197.55871667957535 Eh          -32587.22938 eV
One Electron Energy:      -2026.00372615603283 Eh          -55130.36416 eV
Two Electron Energy:        828.44500947645759 Eh           22543.13478 eV

Virial components:
Potential Energy   :      -1139.13562136666451 Eh          -30997.45614 eV
Kinetic Energy     :        567.60625568670059 Eh           15445.35144 eV
Virial Ratio       :          2.00691167504579

DFT components:
N(Alpha)           :       40.000580865758 electrons
N(Beta)            :       40.000580865758 electrons
N(Total)           :       80.001161731517 electrons
E(X)               :      -70.506750182832 Eh       
E(C)               :       -2.735401929761 Eh       
E(XC)              :      -73.242152112592 Eh       

---------------
SCF CONVERGENCE
---------------

  Last Energy change         ...   -5.0611e-07  Tolerance :   1.0000e-05
  Last MAX-Density change    ...    3.5778e-04  Tolerance :   1.0000e-03
  Last RMS-Density change    ...    1.4723e-05  Tolerance :   1.0000e-04
  Last DIIS Error            ...    1.9588e-04  Tolerance :   5.0000e-04
  Last Orbital Gradient      ...    1.0537e-04  Tolerance :   1.0000e-04
  Last Orbital Rotation      ...    5.5088e-05  Tolerance :   1.0000e-04


----------------
ORBITAL ENERGIES
----------------

  NO   OCC          E(Eh)            E(eV) 
   0   2.0000     -18.774088      -510.8689 
   1   2.0000     -18.772046      -510.8133 
   2   2.0000     -18.765879      -510.6455 
   3   2.0000     -18.759052      -510.4598 
   4   2.0000     -18.754110      -510.3253 
   5   2.0000      -9.986054      -271.7343 
   6   2.0000      -9.949448      -270.7382 
   7   2.0000      -9.943327      -270.5717 
   8   2.0000      -9.942973      -270.5621 
   9   2.0000      -9.939159      -270.4583 
  10   2.0000      -0.984798       -26.7977 
  11   2.0000      -0.955881       -26.0108 
  12   2.0000      -0.945444       -25.7268 
  13   2.0000      -0.924385       -25.1538 
  14   2.0000      -0.911015       -24.7900 
  15   2.0000      -0.705009       -19.1843 
  16   2.0000      -0.682024       -18.5588 
  17   2.0000      -0.590374       -16.0649 
  18   2.0000      -0.582523       -15.8513 
  19   2.0000      -0.538003       -14.6398 
  20   2.0000      -0.496366       -13.5068 
  21   2.0000      -0.488143       -13.2831 
  22   2.0000      -0.476453       -12.9649 
  23   2.0000      -0.449039       -12.2190 
  24   2.0000      -0.437052       -11.8928 
  25   2.0000      -0.433139       -11.7863 
  26   2.0000      -0.407969       -11.1014 
  27   2.0000      -0.388595       -10.5742 
  28   2.0000      -0.368706       -10.0330 
  29   2.0000      -0.356809        -9.7093 
  30   2.0000      -0.325073        -8.8457 
  31   2.0000      -0.318316        -8.6618 
  32   2.0000      -0.307642        -8.3714 
  33   2.0000      -0.299326        -8.1451 
  34   2.0000      -0.284635        -7.7453 
  35   2.0000      -0.261797        -7.1239 
  36   2.0000      -0.238091        -6.4788 
  37   2.0000      -0.235225        -6.4008 
  38   2.0000      -0.226002        -6.1498 
  39   2.0000      -0.208823        -5.6824 
  40   0.0000       0.008176         0.2225 
  41   0.0000       0.031391         0.8542 
  42   0.0000       0.042311         1.1514 
  43   0.0000       0.050322         1.3693 
  44   0.0000       0.072888         1.9834 
  45   0.0000       0.084844         2.3087 
  46   0.0000       0.091180         2.4811 
  47   0.0000       0.101884         2.7724 
  48   0.0000       0.115516         3.1434 
  49   0.0000       0.119656         3.2560 
  50   0.0000       0.129064         3.5120 
*Only the first 10 virtual orbitals were printed.

                    ********************************
                    * MULLIKEN POPULATION ANALYSIS *
                    ********************************

-----------------------
MULLIKEN ATOMIC CHARGES
-----------------------
   0 C :    0.086745
   1 C :   -0.030398
   2 H :    0.077626
   3 C :    0.046042
   4 H :    0.036550
   5 C :    0.032510
   6 H :    0.067227
   7 C :    0.186109
   8 H :    0.073065
   9 O :   -0.298703
  10 O :   -0.414421
  11 O :   -0.424575
  12 O :   -0.425964
  13 O :   -0.417180
  14 H :    0.103711
  15 H :    0.068122
  16 H :    0.308277
  17 H :    0.318079
  18 H :    0.305851
  19 H :    0.301327
Sum of atomic charges:   -0.0000000

--------------------------------
MULLIKEN REDUCED ORBITAL CHARGES
--------------------------------
  0 C s       :     3.003683  s :     3.003683
      pz      :     0.990180  p :     2.848356
      px      :     0.809579
      py      :     1.048597
      dz2     :     0.015538  d :     0.061216
      dxz     :     0.013428
      dyz     :     0.005365
      dx2y2   :     0.012241
      dxy     :     0.014643

  1 C s       :     3.060583  s :     3.060583
      pz      :     1.037439  p :     2.901398
      px      :     0.849449
      py      :     1.014510
      dz2     :     0.015609  d :     0.068417
      dxz     :     0.014337
      dyz     :     0.006303
      dx2y2   :     0.013805
      dxy     :     0.018362

  2 H s       :     0.922374  s :     0.922374

  3 C s       :     3.056014  s :     3.056014
      pz      :     1.034432  p :     2.830391
      px      :     0.974030
      py      :     0.821929
      dz2     :     0.015943  d :     0.067554
      dxz     :     0.008926
      dyz     :     0.011705
      dx2y2   :     0.015280
      dxy     :     0.015700

  4 H s       :     0.963450  s :     0.963450

  5 C s       :     3.052075  s :     3.052075
      pz      :     1.029165  p :     2.848986
      px      :     0.904746
      py      :     0.915076
      dz2     :     0.016504  d :     0.066429
      dxz     :     0.011428
      dyz     :     0.009108
      dx2y2   :     0.012983
      dxy     :     0.016406

  6 H s       :     0.932773  s :     0.932773

  7 C s       :     3.038073  s :     3.038073
      pz      :     0.819795  p :     2.673896
      px      :     0.987989
      py      :     0.866111
      dz2     :     0.025123  d :     0.101922
      dxz     :     0.025963
      dyz     :     0.017529
      dx2y2   :     0.016784
      dxy     :     0.016523

  8 H s       :     0.926935  s :     0.926935

  9 O s       :     3.754241  s :     3.754241
      pz      :     1.668167  p :     4.528189
      px      :     1.300962
      py      :     1.559060
      dz2     :     0.002325  d :     0.016273
      dxz     :     0.003902
      dyz     :     0.002719
      dx2y2   :     0.003778
      dxy     :     0.003550

 10 O s       :     3.777991  s :     3.777991
      pz      :     1.354284  p :     4.621065
      px      :     1.756108
      py      :     1.510674
      dz2     :     0.005018  d :     0.015365
      dxz     :     0.001769
      dyz     :     0.002647
      dx2y2   :     0.002489
      dxy     :     0.003442

 11 O s       :     3.779609  s :     3.779609
      pz      :     1.817832  p :     4.629596
      px      :     1.580342
      py      :     1.231423
      dz2     :     0.002798  d :     0.015369
      dxz     :     0.002215
      dyz     :     0.000975
      dx2y2   :     0.002362
      dxy     :     0.007019

 12 O s       :     3.773249  s :     3.773249
      pz      :     1.867762  p :     4.637571
      px      :     1.263030
      py      :     1.506779
      dz2     :     0.002514  d :     0.015144
      dxz     :     0.000997
      dyz     :     0.002243
      dx2y2   :     0.006615
      dxy     :     0.002776

 13 O s       :     3.792560  s :     3.792560
      pz      :     1.264845  p :     4.609031
      px      :     1.490635
      py      :     1.853552
      dz2     :     0.005964  d :     0.015590
      dxz     :     0.002997
      dyz     :     0.001312
      dx2y2   :     0.003178
      dxy     :     0.002139

 14 H s       :     0.896289  s :     0.896289

 15 H s       :     0.931878  s :     0.931878

 16 H s       :     0.691723  s :     0.691723

 17 H s       :     0.681921  s :     0.681921

 18 H s       :     0.694149  s :     0.694149

 19 H s       :     0.698673  s :     0.698673


------------------------
MULLIKEN OVERLAP CHARGES
------------------------
B(  0-C ,  1-C ) :   0.4269 B(  0-C ,  3-C ) :  -0.1168 B(  0-C ,  7-C ) :  -0.1950 
B(  0-C ,  9-O ) :   0.6004 B(  0-C , 13-O ) :  -0.0531 B(  0-C , 14-H ) :   0.6865 
B(  0-C , 15-H ) :   0.6451 B(  1-C ,  2-H ) :   0.6277 B(  1-C ,  3-C ) :   0.4568 
B(  1-C ,  4-H ) :  -0.0870 B(  1-C ,  5-C ) :  -0.0716 B(  1-C ,  7-C ) :   0.0688 
B(  1-C ,  9-O ) :  -0.0721 B(  1-C , 12-O ) :  -0.0731 B(  1-C , 13-O ) :   0.5441 
B(  1-C , 19-H ) :  -0.1088 B(  2-H ,  3-C ) :  -0.0933 B(  2-H , 13-O ) :  -0.0745 
B(  3-C ,  4-H ) :   0.5830 B(  3-C ,  5-C ) :   0.1574 B(  3-C ,  6-H ) :  -0.0781 
B(  3-C ,  7-C ) :   0.0663 B(  3-C , 11-O ) :  -0.0587 B(  3-C , 12-O ) :   0.6750 
B(  3-C , 13-O ) :  -0.0898 B(  3-C , 15-H ) :  -0.0528 B(  3-C , 18-H ) :  -0.1018 
B(  4-H ,  5-C ) :  -0.0525 B(  4-H , 12-O ) :  -0.0820 B(  5-C ,  6-H ) :   0.6329 
B(  5-C ,  7-C ) :   0.1802 B(  5-C ,  8-H ) :  -0.0776 B(  5-C ,  9-O ) :  -0.0586 
B(  5-C , 11-O ) :   0.5515 B(  5-C , 12-O ) :  -0.1302 B(  5-C , 17-H ) :  -0.1113 
B(  6-H ,  7-C ) :  -0.0620 B(  6-H , 11-O ) :  -0.0703 B(  7-C ,  8-H ) :   0.6707 
B(  7-C ,  9-O ) :   0.6604 B(  7-C , 10-O ) :   0.5202 B(  7-C , 11-O ) :  -0.0989 
B(  7-C , 16-H ) :  -0.1045 B(  8-H ,  9-O ) :  -0.0686 B(  8-H , 10-O ) :  -0.0649 
B(  9-O , 10-O ) :  -0.1036 B(  9-O , 15-H ) :  -0.0612 B( 10-O , 16-H ) :   0.5283 
B( 11-O , 16-H ) :   0.0671 B( 11-O , 17-H ) :   0.5450 B( 12-O , 18-H ) :   0.5352 
B( 13-O , 18-H ) :   0.0601 B( 13-O , 19-H ) :   0.5360 B( 14-H , 15-H ) :  -0.0809 



                     *******************************
                     * LOEWDIN POPULATION ANALYSIS *
                     *******************************

----------------------
LOEWDIN ATOMIC CHARGES
----------------------
   0 C :   -0.125535
   1 C :   -0.091418
   2 H :    0.119082
   3 C :   -0.089072
   4 H :    0.095264
   5 C :   -0.091811
   6 H :    0.109322
   7 C :    0.010915
   8 H :    0.100762
   9 O :   -0.129540
  10 O :   -0.323007
  11 O :   -0.321279
  12 O :   -0.332408
  13 O :   -0.310914
  14 H :    0.121136
  15 H :    0.105031
  16 H :    0.287315
  17 H :    0.294459
  18 H :    0.285249
  19 H :    0.286449

-------------------------------
LOEWDIN REDUCED ORBITAL CHARGES
-------------------------------
  0 C s       :     2.925307  s :     2.925307
      pz      :     1.072245  p :     3.060498
      px      :     0.899711
      py      :     1.088542
      dz2     :     0.037165  d :     0.139730
      dxz     :     0.029500
      dyz     :     0.010624
      dx2y2   :     0.026589
      dxy     :     0.035851

  1 C s       :     2.894087  s :     2.894087
      pz      :     1.052455  p :     3.037548
      px      :     0.914251
      py      :     1.070842
      dz2     :     0.036422  d :     0.159783
      dxz     :     0.031404
      dyz     :     0.012431
      dx2y2   :     0.030970
      dxy     :     0.048556

  2 H s       :     0.880918  s :     0.880918

  3 C s       :     2.896747  s :     2.896747
      pz      :     1.088065  p :     3.033269
      px      :     1.023298
      py      :     0.921906
      dz2     :     0.037031  d :     0.159056
      dxz     :     0.022439
      dyz     :     0.025664
      dx2y2   :     0.035626
      dxy     :     0.038296

  4 H s       :     0.904736  s :     0.904736

  5 C s       :     2.901925  s :     2.901925
      pz      :     1.071394  p :     3.032636
      px      :     0.992891
      py      :     0.968351
      dz2     :     0.038980  d :     0.157251
      dxz     :     0.027728
      dyz     :     0.020266
      dx2y2   :     0.031206
      dxy     :     0.039071

  6 H s       :     0.890678  s :     0.890678

  7 C s       :     2.883782  s :     2.883782
      pz      :     0.907277  p :     2.878544
      px      :     1.011873
      py      :     0.959395
      dz2     :     0.059910  d :     0.226758
      dxz     :     0.056996
      dyz     :     0.033798
      dx2y2   :     0.036374
      dxy     :     0.039681

  8 H s       :     0.899238  s :     0.899238

  9 O s       :     3.463329  s :     3.463329
      pz      :     1.694611  p :     4.635157
      px      :     1.354389
      py      :     1.586157
      dz2     :     0.003756  d :     0.031054
      dxz     :     0.007643
      dyz     :     0.003854
      dx2y2   :     0.007960
      dxy     :     0.007840

 10 O s       :     3.536447  s :     3.536447
      pz      :     1.432341  p :     4.759636
      px      :     1.764162
      py      :     1.563133
      dz2     :     0.010043  d :     0.026924
      dxz     :     0.003449
      dyz     :     0.004450
      dx2y2   :     0.003631
      dxy     :     0.005350

 11 O s       :     3.529878  s :     3.529878
      pz      :     1.837671  p :     4.764437
      px      :     1.630097
      py      :     1.296670
      dz2     :     0.004390  d :     0.026964
      dxz     :     0.003067
      dyz     :     0.002230
      dx2y2   :     0.004439
      dxy     :     0.012837

 12 O s       :     3.529986  s :     3.529986
      pz      :     1.882484  p :     4.775887
      px      :     1.334686
      py      :     1.558717
      dz2     :     0.003912  d :     0.026534
      dxz     :     0.001697
      dyz     :     0.003217
      dx2y2   :     0.012131
      dxy     :     0.005577

 13 O s       :     3.537650  s :     3.537650
      pz      :     1.346376  p :     4.745970
      px      :     1.552596
      py      :     1.846998
      dz2     :     0.010777  d :     0.027294
      dxz     :     0.005889
      dyz     :     0.002416
      dx2y2   :     0.005245
      dxy     :     0.002967

 14 H s       :     0.878864  s :     0.878864

 15 H s       :     0.894969  s :     0.894969

 16 H s       :     0.712685  s :     0.712685

 17 H s       :     0.705541  s :     0.705541

 18 H s       :     0.714751  s :     0.714751

 19 H s       :     0.713551  s :     0.713551


---------------------------------
LOEWDIN BOND ORDERS (THRESH 0.050000)
---------------------------------
B(  0-C ,  1-C ) :   1.0536 B(  0-C ,  3-C ) :   0.0599 B(  0-C ,  7-C ) :   0.0665 
B(  0-C ,  9-O ) :   1.1566 B(  0-C , 13-O ) :   0.0793 B(  0-C , 14-H ) :   0.9121 
B(  0-C , 15-H ) :   0.8988 B(  1-C ,  2-H ) :   0.8712 B(  1-C ,  3-C ) :   1.0261 
B(  1-C ,  5-C ) :   0.0599 B(  1-C ,  9-O ) :   0.0705 B(  1-C , 12-O ) :   0.0723 
B(  1-C , 13-O ) :   1.2152 B(  3-C ,  4-H ) :   0.8603 B(  3-C ,  5-C ) :   1.0226 
B(  3-C ,  7-C ) :   0.0553 B(  3-C , 11-O ) :   0.0771 B(  3-C , 12-O ) :   1.2170 
B(  3-C , 13-O ) :   0.0795 B(  5-C ,  6-H ) :   0.8674 B(  5-C ,  7-C ) :   1.0127 
B(  5-C ,  9-O ) :   0.0690 B(  5-C , 10-O ) :   0.0771 B(  5-C , 11-O ) :   1.2138 
B(  5-C , 12-O ) :   0.0649 B(  7-C ,  8-H ) :   0.8819 B(  7-C ,  9-O ) :   1.2247 
B(  7-C , 10-O ) :   1.2416 B(  7-C , 11-O ) :   0.0606 B(  9-O , 10-O ) :   0.0715 
B( 10-O , 16-H ) :   0.8576 B( 11-O , 17-H ) :   0.8718 B( 12-O , 18-H ) :   0.8670 
B( 13-O , 19-H ) :   0.8817 

------------------------------------------
LOEWDIN REDUCED ORBITAL POPULATIONS PER MO
-------------------------------------------
THRESHOLD FOR PRINTING IS 0.1%%
                      0         1         2         3         4         5   
                 -18.77409 -18.77205 -18.76588 -18.75905 -18.75411  -9.98605
                   2.00000   2.00000   2.00000   2.00000   2.00000   2.00000
                  --------  --------  --------  --------  --------  --------
 7 C  s               0.0       0.0       0.0       0.0       0.0      99.6
 9 O  s               0.0      99.9       0.0       0.0       0.0       0.0
10 O  s               0.0       0.0       0.0       0.0      99.9       0.0
10 O  pz              0.0       0.0       0.0       0.0       0.0       0.1
11 O  s               0.0       0.0      99.9       0.0       0.0       0.0
12 O  s               0.0       0.0       0.0      99.9       0.0       0.0
13 O  s              99.9       0.0       0.0       0.0       0.0       0.0

                      6         7         8         9        10        11   
                  -9.94945  -9.94333  -9.94297  -9.93916  -0.98480  -0.95588
                   2.00000   2.00000   2.00000   2.00000   2.00000   2.00000
                  --------  --------  --------  --------  --------  --------
 0 C  s               0.0       0.0       0.0      99.6       4.9       0.0
 0 C  pz              0.0       0.0       0.0       0.0       0.7       0.1
 0 C  px              0.0       0.0       0.0       0.0       3.1       1.5
 0 C  py              0.1       0.0       0.0       0.0       0.3       0.4
 0 C  dxz             0.0       0.0       0.0       0.0       0.2       0.0
 0 C  dx2y2           0.0       0.0       0.0       0.0       0.2       0.0
 1 C  s              99.6       0.0       0.0       0.0       1.4       7.5
 1 C  pz              0.0       0.0       0.0       0.0       0.1       1.9
 1 C  px              0.0       0.0       0.0       0.0       0.2       3.5
 1 C  py              0.0       0.0       0.1       0.1       0.1       0.5
 1 C  dxz             0.0       0.0       0.0       0.0       0.0       0.3
 1 C  dx2y2           0.0       0.0       0.0       0.0       0.0       0.2
 2 H  s               0.1       0.0       0.0       0.0       0.2       0.9
 3 C  s               0.0       0.1      99.4       0.0       1.3       5.0
 3 C  pz              0.0       0.0       0.0       0.0       0.1       0.2
 3 C  px              0.0       0.1       0.0       0.0       0.1       1.7
 3 C  py              0.1       0.0       0.0       0.0       0.0       0.6
 4 H  s               0.0       0.0       0.1       0.0       0.3       0.6
 5 C  s               0.0      99.4       0.1       0.0       3.5       0.6
 5 C  pz              0.0       0.0       0.0       0.0       0.5       0.1
 5 C  px              0.0       0.0       0.1       0.0       0.3       0.3
 5 C  py              0.0       0.0       0.0       0.0       0.5       0.8
 6 H  s               0.0       0.1       0.0       0.0       0.5       0.1
 7 C  s               0.0       0.0       0.0       0.0      14.9       1.0
 7 C  pz              0.0       0.0       0.0       0.0       0.9       0.1
 7 C  px              0.0       0.0       0.0       0.0       1.3       0.0
 7 C  py              0.0       0.1       0.0       0.0       1.4       0.6
 7 C  dxz             0.0       0.0       0.0       0.0       0.1       0.0
 7 C  dxy             0.0       0.0       0.0       0.0       0.2       0.0
 8 H  s               0.0       0.0       0.0       0.0       1.7       0.1
 9 O  s               0.0       0.0       0.0       0.0      28.8       2.7
 9 O  pz              0.0       0.0       0.0       0.0       1.1       0.1
 9 O  py              0.0       0.0       0.0       0.0       1.4       0.1
10 O  s               0.0       0.0       0.0       0.0      15.4       2.1
10 O  pz              0.0       0.0       0.0       0.0       1.3       0.1
10 O  py              0.0       0.0       0.0       0.0       0.3       0.0
11 O  s               0.0       0.0       0.0       0.0       3.7       1.8
11 O  px              0.0       0.0       0.0       0.0       0.2       0.1
12 O  s               0.0       0.0       0.0       0.0       1.0      14.2
12 O  py              0.0       0.0       0.1       0.0       0.1       0.9
13 O  s               0.0       0.0       0.0       0.0       1.4      34.9
13 O  pz              0.0       0.0       0.0       0.0       0.0       0.2
13 O  px              0.1       0.0       0.0       0.0       0.1       1.9
14 H  s               0.0       0.0       0.0       0.1       0.6       0.0
15 H  s               0.0       0.0       0.0       0.1       0.8       0.0
16 H  s               0.0       0.0       0.0       0.0       3.2       0.3
17 H  s               0.0       0.0       0.0       0.0       0.8       0.5
18 H  s               0.0       0.0       0.0       0.0       0.2       3.5
19 H  s               0.0       0.0       0.0       0.0       0.3       7.1

                     12        13        14        15        16        17   
                  -0.94544  -0.92438  -0.91102  -0.70501  -0.68202  -0.59037
                   2.00000   2.00000   2.00000   2.00000   2.00000   2.00000
                  --------  --------  --------  --------  --------  --------
 0 C  s               1.6       0.1       2.6       4.5      15.7       3.0
 0 C  pz              0.1       0.1       0.6       0.0       0.1       0.1
 0 C  px              0.2       0.6       1.4       1.7       0.2       1.4
 0 C  py              0.1       0.0       0.0       2.3       0.1       3.0
 0 C  dxz             0.0       0.0       0.1       0.0       0.0       0.0
 0 C  dx2y2           0.0       0.0       0.1       0.1       0.0       0.0
 1 C  s               1.7       0.4       0.1      13.6       2.7      10.9
 1 C  pz              0.4       0.4       0.0       0.0       0.1       1.3
 1 C  px              1.1       2.3       0.3       5.2       0.4       1.2
 1 C  py              0.4       0.5       0.3       0.1       3.1       1.1
 1 C  dxz             0.1       0.1       0.0       0.1       0.0       0.0
 1 C  dx2y2           0.1       0.1       0.0       0.0       0.0       0.0
 1 C  dxy             0.0       0.0       0.0       0.0       0.1       0.0
 2 H  s               0.2       0.0       0.0       2.9       0.6       4.9
 3 C  s               1.1       4.0       0.0      14.0       1.1       0.2
 3 C  pz              0.1       0.1       0.0       0.5       0.2       0.0
 3 C  px              0.7       1.8       0.2       0.8       2.3       5.4
 3 C  py              1.8       4.7       0.2       5.3       0.1       2.2
 3 C  dx2y2           0.0       0.1       0.0       0.0       0.1       0.0
 3 C  dxy             0.0       0.4       0.0       0.1       0.0       0.1
 4 H  s               0.2       0.3       0.0       2.7       0.2       0.2
 5 C  s               6.4       0.6       0.5       7.0       9.8       5.3
 5 C  pz              1.0       0.1       0.0       0.2       0.1       0.0
 5 C  px              1.4       2.3       0.1       3.4       0.0       0.3
 5 C  py              4.5       0.6       0.9       0.8       3.1       0.2
 5 C  dyz             0.1       0.0       0.0       0.0       0.0       0.0
 5 C  dxy             0.3       0.1       0.1       0.0       0.1       0.0
 6 H  s               0.7       0.0       0.1       1.4       2.2       1.3
 7 C  s               0.0       0.0       0.7       0.0      11.6       1.9
 7 C  pz              0.2       0.4       9.1       0.0       2.7       0.3
 7 C  px              0.3       0.3       3.4       0.5       0.4       0.6
 7 C  py              2.6       0.6       0.8       3.7       0.9       4.0
 7 C  dz2             0.0       0.0       0.9       0.0       0.1       0.0
 7 C  dxy             0.1       0.0       0.2       0.2       0.0       0.1
 8 H  s               0.0       0.0       0.1       0.0       2.9       1.1
 9 O  s               5.6       2.2      14.5       3.5       0.0       0.0
 9 O  pz              0.2       0.0       0.2       0.1       0.4       0.2
 9 O  px              0.1       0.0       0.5       1.3      10.5       8.0
 9 O  py              0.1       0.0       0.1       0.0       3.7       2.3
10 O  s               0.3       1.4      40.2       0.1       2.6       0.0
10 O  pz              0.0       0.0       0.5       0.0       2.1       1.1
10 O  px              0.0       0.0       0.1       0.0       0.4       0.1
10 O  py              0.1       0.1       1.7       0.1       0.3       0.8
11 O  s              36.5      10.1       6.8       1.9       2.0       1.3
11 O  pz              0.2       0.0       0.0       0.0       0.2       0.2
11 O  px              2.0       0.4       0.3       0.2       0.1       0.4
11 O  py              0.0       0.0       0.0       1.4       3.0       5.0
12 O  s               4.2      37.9       1.4       3.5       0.2       0.1
12 O  pz              0.0       0.1       0.0       0.0       0.0       0.0
12 O  px              0.0       0.4       0.0       2.1       0.4       1.4
12 O  py              0.2       1.5       0.0       1.1       0.1       0.0
13 O  s              10.9      11.5       0.1       3.4       0.9       1.0
13 O  pz              0.1       0.2       0.0       2.0       0.6      12.5
13 O  px              0.5       0.4       0.0       1.2       0.3       3.7
13 O  py              0.0       0.0       0.0       0.0       0.0       0.6
13 O  dxz             0.0       0.0       0.0       0.0       0.0       0.1
14 H  s               0.2       0.0       0.3       0.7       4.0       1.4
15 H  s               0.2       0.0       0.1       0.9       3.1       1.2
16 H  s               0.3       0.5       8.1       0.0       1.4       0.5
17 H  s               7.5       1.7       1.5       0.9       1.5       1.8
18 H  s               0.6       7.3       0.3       1.8       0.2       0.3
19 H  s               2.2       2.4       0.0       1.6       0.4       5.2

                     18        19        20        21        22        23   
                  -0.58252  -0.53800  -0.49637  -0.48814  -0.47645  -0.44904
                   2.00000   2.00000   2.00000   2.00000   2.00000   2.00000
                  --------  --------  --------  --------  --------  --------
 0 C  s               5.7       3.3       0.9       0.2       0.8       0.1
 0 C  pz              0.2       6.7       0.0       0.0       0.2      13.2
 0 C  px              2.5       1.1       0.8       2.2       4.6       0.5
 0 C  py              0.1       0.0       5.3       1.0       0.3       0.2
 0 C  dxz             0.1       0.2       0.0       0.0       0.0       0.1
 1 C  s               0.4       0.5       0.1       0.1       0.0       0.3
 1 C  pz              0.4       4.3       1.5       2.1       1.9       5.9
 1 C  px              0.2       3.7       6.9       2.9       0.2       2.6
 1 C  py              6.5       1.2       1.5       1.7       1.1       2.5
 1 C  dx2y2           0.0       0.1       0.0       0.1       0.1       0.1
 1 C  dxy             0.1       0.0       0.0       0.0       0.0       0.0
 2 H  s               0.3       2.2       0.4       0.6       0.5       2.6
 3 C  s              10.9       0.7       0.1       0.9       0.6       0.4
 3 C  pz              0.8       3.0       1.9       9.6       3.7       0.8
 3 C  px              0.0       0.0       0.3       0.5       1.3       3.4
 3 C  py              0.2       0.1      13.4       0.0       0.7       0.2
 3 C  dx2y2           0.0       0.0       0.1       0.0       0.1       0.0
 4 H  s               4.1       1.6       1.1       4.0       1.7       0.2
 5 C  s               2.3       2.4       0.1       0.5       1.1       1.0
 5 C  pz              1.3       1.7       0.8       9.8       0.0       0.0
 5 C  px              8.5       0.1       0.4       6.6       2.4       0.9
 5 C  py              1.8       0.6       2.7       0.6       0.1       1.0
 5 C  dxz             0.2       0.0       0.0       0.0       0.0       0.0
 6 H  s               0.8       2.2       0.6       5.3       0.6       0.7
 7 C  s               4.3       3.9       0.5       0.0       0.7       1.1
 7 C  pz              0.5       1.8       0.3       2.5      15.4       0.5
 7 C  px              0.6       0.5       3.3       0.4       4.8       9.0
 7 C  py              4.7       1.2       1.1       0.2       0.0       2.5
 7 C  dz2             0.0       0.1       0.1       0.0       0.1       0.1
 7 C  dyz             0.0       0.0       0.0       0.0       0.3       0.0
 7 C  dxy             0.1       0.0       0.0       0.0       0.0       0.1
 8 H  s               2.1       1.0       1.0       0.1       7.3       3.6
 9 O  s               2.5       3.7       0.0       0.5       0.4       0.0
 9 O  pz              0.1       2.4       0.1       0.7       5.1       1.0
 9 O  px              0.3       1.9       0.3       0.5       3.6       7.8
 9 O  py              0.2       0.9       1.6       2.8       0.1       3.3
10 O  s               1.0       0.4       0.0       0.6       0.4       0.6
10 O  pz              1.9      10.1       3.3       2.2       6.1       8.1
10 O  px              0.1       3.5       0.1       0.9       8.7       0.2
10 O  py              0.0       4.6       2.4       0.0       6.0       0.0
10 O  dz2             0.0       0.2       0.1       0.0       0.1       0.1
11 O  s               0.0       0.1       0.7       0.4       0.2       0.4
11 O  pz              0.7       0.5       0.4       0.1       0.2       0.2
11 O  px              0.2       0.0       1.0       0.3       1.0       2.0
11 O  py              6.1       4.6       0.0      19.3       0.5       0.2
11 O  dxy             0.1       0.1       0.0       0.2       0.0       0.0
12 O  s               1.8       0.0       0.2       0.4       0.0       0.3
12 O  pz              0.2       0.3       0.1       1.6       1.0       0.0
12 O  px              9.3       0.2      21.9       0.2       2.7       0.2
12 O  py              3.4       0.0       1.5       0.6       1.0       2.4
12 O  dx2y2           0.1       0.0       0.1       0.0       0.0       0.0
13 O  s               0.1       0.4       0.4       0.0       0.7       0.0
13 O  pz              0.7       6.3       7.2       5.3       0.7       7.0
13 O  px              0.1       0.1       0.1       1.4       0.6       3.3
13 O  py              0.2       0.5       0.2       1.4       0.4       0.2
14 H  s               2.5       0.7       3.0       0.1       1.5       0.3
15 H  s               1.6       5.0       0.3       0.0       0.4       5.0
16 H  s               0.5       5.5       1.5       0.5       5.9       0.6
17 H  s               1.8       1.5       0.0       5.4       0.1       0.0
18 H  s               4.1       0.1       6.3       0.0       1.1       0.2
19 H  s               0.2       1.8       1.7       2.1       0.1       2.3

                     24        25        26        27        28        29   
                  -0.43705  -0.43314  -0.40797  -0.38859  -0.36871  -0.35681
                   2.00000   2.00000   2.00000   2.00000   2.00000   2.00000
                  --------  --------  --------  --------  --------  --------
 0 C  s               0.0       0.2       0.1       0.5       0.0       0.2
 0 C  pz              3.8       0.8       4.9       5.5       2.4       2.3
 0 C  px              0.4       2.7       5.3       0.1       3.4       5.5
 0 C  py              0.1       9.4       2.6      10.2       2.6       4.8
 0 C  dxz             0.0       0.0       0.0       0.3       0.1       0.0
 0 C  dyz             0.0       0.1       0.0       0.0       0.0       0.2
 0 C  dxy             0.0       0.0       0.0       0.2       0.2       0.0
 1 C  s               0.3       1.7       0.0       0.4       0.3       0.1
 1 C  pz              1.1       4.0       0.8       7.9       2.2       7.5
 1 C  px              1.7       2.1       0.0       0.4       0.4       0.3
 1 C  py              4.9       5.8       0.8       5.3       0.1       0.4
 1 C  dxz             0.0       0.0       0.0       0.1       0.0       0.3
 1 C  dx2y2           0.1       0.1       0.0       0.0       0.1       0.1
 1 C  dxy             0.0       0.0       0.0       0.1       0.0       0.1
 2 H  s               0.0       2.8       0.5       3.5       0.8       4.3
 3 C  s               0.1       0.5       0.8       0.2       0.0       0.1
 3 C  pz              2.1       0.7       2.9       5.5       6.9       6.7
 3 C  px              7.9       0.1       6.9       0.2       3.6       0.4
 3 C  py              1.3       1.2       1.5       0.2       1.2       0.3
 3 C  dz2             0.0       0.1       0.2       0.0       0.1       0.2
 3 C  dx2y2           0.0       0.2       0.3       0.2       0.0       0.0
 3 C  dxy             0.2       0.0       0.1       0.0       0.2       0.0
 4 H  s               0.9       0.9       4.2       1.2       3.2       4.5
 5 C  s               0.1       0.9       0.5       0.1       0.0       0.1
 5 C  pz              9.8       4.5       1.0       6.1       5.7       1.0
 5 C  px              0.5       0.9       3.4       0.9       2.6       0.4
 5 C  py              8.8       3.1       4.1       0.6       1.2       1.0
 5 C  dxy             0.3       0.2       0.1       0.0       0.0       0.0
 6 H  s               4.3       3.4       0.0       3.0       2.4       0.3
 7 C  s               0.9       0.7       0.3       0.0       0.0       0.1
 7 C  pz              0.0       1.0       0.0       0.4       0.0       1.5
 7 C  px              2.9       1.3       2.6       0.9       9.4       3.2
 7 C  py              5.5       2.8       4.3       0.4       0.1       0.2
 7 C  dxz             0.0       0.0       0.0       0.0       0.1       0.1
 7 C  dyz             0.1       0.1       0.0       0.1       0.1       0.1
 7 C  dx2y2           0.0       0.0       0.0       0.1       0.1       0.1
 7 C  dxy             0.0       0.2       0.0       0.0       0.0       0.0
 8 H  s               0.2       2.0       0.4       0.1       4.4       3.7
 9 O  s               0.2       0.0       0.9       0.1       0.3       1.0
 9 O  pz              0.5       0.0       4.9       0.7       0.4       4.5
 9 O  px              2.2       1.8       3.1       6.5       0.3       1.3
 9 O  py              1.9       3.8       3.8       0.0       3.7       0.6
10 O  s               1.1       0.1       0.5       0.3       1.7       0.0
10 O  pz              0.1       0.0       0.2       1.2       1.8       0.8
10 O  px              0.4       0.3       0.2       0.0       5.4       1.5
10 O  py              5.1       0.3       2.5       0.9       2.2       0.5
11 O  s               0.1       0.4       1.1       0.6       0.5       0.3
11 O  pz              7.4       0.0       0.1       4.2       1.9       1.5
11 O  px              0.0       0.0       7.5       0.5       3.8       0.8
11 O  py              4.8      14.2       0.1       0.7       0.1       0.0
11 O  dxy             0.0       0.1       0.0       0.0       0.0       0.0
12 O  s               1.0       1.0       0.4       0.6       1.1       0.0
12 O  pz              0.4       0.2       0.3       1.7       7.2       3.5
12 O  px              0.9       3.7       9.8       1.2       0.1       0.0
12 O  py              3.0       0.2       4.0       1.8       5.9       1.4
12 O  dx2y2           0.0       0.0       0.1       0.0       0.0       0.0
13 O  s               0.9       0.3       0.0       1.0       0.0       2.3
13 O  pz              4.4       4.3       0.1       0.0       0.0       1.9
13 O  px              0.6       0.5       0.3      10.9       2.2      19.0
13 O  py              0.8       4.3       0.4       1.5       0.1       0.1
14 H  s               0.2       1.2       4.3       3.3       5.2       5.7
15 H  s               2.0       1.2       2.1       5.5       0.6       2.2
16 H  s               0.3       0.0       0.5       0.8       0.5       0.0
17 H  s               2.0       3.6       0.0       0.3       0.1       0.0
18 H  s               0.0       1.2       3.6       0.4       0.0       0.1
19 H  s               0.8       1.9       0.1       0.1       0.1       0.3

                     30        31        32        33        34        35   
                  -0.32507  -0.31832  -0.30764  -0.29933  -0.28463  -0.26180
                   2.00000   2.00000   2.00000   2.00000   2.00000   2.00000
                  --------  --------  --------  --------  --------  --------
 0 C  s               0.3       0.8       0.0       0.2       0.2       0.3
 0 C  pz              0.1       3.0       0.2       0.5       3.7       1.1
 0 C  px              0.2       0.7       0.5       1.6       0.7       0.3
 0 C  py              0.1       1.8       1.4       0.2       2.4       1.4
 0 C  dz2             0.0       0.0       0.0       0.0       0.3       0.3
 0 C  dx2y2           0.0       0.1       0.0       0.2       0.1       0.0
 0 C  dxy             0.1       0.1       0.1       0.1       0.3       0.0
 1 C  s               0.0       0.7       0.1       0.0       0.1       0.0
 1 C  pz              0.0       5.8       0.1       1.1       0.3       0.1
 1 C  px              0.1       2.3       0.1       2.6       1.4       0.1
 1 C  py              0.0       0.7       3.5       1.5       0.2       0.4
 1 C  dz2             0.0       1.1       0.1       0.1       0.1       0.1
 1 C  dxz             0.0       0.0       0.0       0.0       0.1       0.0
 1 C  dyz             0.0       0.0       0.0       0.1       0.0       0.0
 1 C  dxy             0.1       0.0       0.0       0.1       0.0       0.7
 2 H  s               0.0      11.6       0.5       1.0       0.2       0.2
 3 C  s               0.4       0.6       0.4       0.1       0.0       1.2
 3 C  pz              0.1       2.5       0.0       0.3       0.1       0.0
 3 C  px              2.3       0.1       0.2       0.7       0.9       0.2
 3 C  py              1.4       0.2       0.5       3.0       0.2       2.5
 3 C  dz2             0.1       0.1       0.1       0.0       0.0       0.0
 3 C  dxz             0.0       0.0       0.0       0.0       0.0       0.2
 3 C  dyz             0.0       0.0       0.0       0.0       0.0       0.1
 3 C  dx2y2           0.1       0.0       0.0       0.2       0.1       0.0
 3 C  dxy             0.0       0.0       0.1       0.2       0.0       0.0
 4 H  s               1.1       1.8       0.1       0.1       0.2       0.7
 5 C  s               0.2       0.0       0.1       0.5       0.0       0.2
 5 C  pz              1.1       0.7       2.0       0.8       0.1       0.4
 5 C  px              1.1       1.0       2.8       0.4       1.7       1.3
 5 C  py              1.8       0.1       0.9       1.3       0.5       0.0
 5 C  dz2             0.1       0.1       0.2       0.0       0.0       0.4
 5 C  dxz             0.0       0.0       0.0       0.0       0.0       0.2
 5 C  dx2y2           0.5       0.1       0.2       0.0       0.0       0.0
 5 C  dxy             0.0       0.0       0.0       0.1       0.0       0.0
 6 H  s               1.2       0.9       3.2       0.1       0.3       2.3
 7 C  s               0.7       0.0       0.5       0.1       0.2       0.4
 7 C  pz              0.0       1.1       3.8       1.4       0.3       0.4
 7 C  px              0.3       0.4       0.2       0.4       0.5       0.1
 7 C  py              0.1       0.8       1.4       0.8       4.0       0.1
 7 C  dz2             0.0       0.0       0.0       0.0       0.4       0.1
 7 C  dxz             0.0       0.0       0.2       0.1       0.0       0.3
 7 C  dyz             0.1       0.0       0.1       0.1       0.1       0.0
 7 C  dx2y2           0.0       0.2       0.0       0.0       0.1       0.0
 7 C  dxy             0.1       0.0       0.1       0.2       0.1       0.0
 8 H  s               0.1       1.1       1.3       1.4       0.3       0.6
 9 O  s               0.3       0.8       0.5       0.0       3.8       0.3
 9 O  pz              0.4       0.6       0.6       0.1      30.6       9.1
 9 O  px              0.4       2.6       1.5       1.0       0.5       0.1
 9 O  py              5.3       6.2       0.6       1.6      10.0       0.2
10 O  s               0.7       1.5       3.9       1.3       0.4       0.0
10 O  pz              0.9       1.2      13.6       4.8       0.1       2.7
10 O  px              0.1       1.5       2.3       0.0       9.4       0.8
10 O  py              6.6      10.2      12.9       9.0       0.2       0.4
11 O  s               5.0       0.7       0.8       0.1       0.4       0.2
11 O  pz              2.0       0.3       0.1       6.3       1.4      21.6
11 O  px             39.9       0.5       7.4       0.0       1.5       0.0
11 O  py              0.3       0.6       0.0       0.1       0.4       0.8
12 O  s               2.4       0.4       1.5       2.3       0.0       0.3
12 O  pz              1.4       0.8       0.7       1.8       0.3      12.5
12 O  px              1.7       0.7       3.6       4.9       0.1       0.1
12 O  py             13.3       4.6       7.7      15.3       1.0       0.1
13 O  s               0.1       4.0       0.3       1.3       0.7       0.0
13 O  pz              0.4       5.9       2.1       0.2       1.8       1.4
13 O  px              0.0       8.4       2.5       6.3       8.1       0.7
13 O  py              1.3       1.5       8.0      15.6       1.0      28.3
14 H  s               0.1       0.4       0.5       2.7       3.0       1.0
15 H  s               0.1       1.7       0.2       0.5       3.1       1.8
16 H  s               0.8       0.5       1.5       0.7       0.9       0.1
17 H  s               1.9       0.6       0.4       0.1       0.4       0.2
18 H  s               0.6       0.3       0.9       1.4       0.1       0.3
19 H  s               0.0       2.9       0.2       0.7       0.4       0.0

                     36        37        38        39        40        41   
                  -0.23809  -0.23523  -0.22600  -0.20882   0.00818   0.03139
                   2.00000   2.00000   2.00000   2.00000   0.00000   0.00000
                  --------  --------  --------  --------  --------  --------
 0 C  s               0.0       0.1       0.1       0.1       0.8       0.9
 0 C  pz              0.2       2.5       0.2       0.1       0.8       0.8
 0 C  px              0.2       0.2       0.2       1.1       3.4       0.1
 0 C  py              0.0       1.3       1.1       1.7       0.5       0.0
 0 C  dz2             0.4       0.3       0.0       0.1       0.0       0.0
 0 C  dxz             0.0       0.0       0.0       0.0       0.4       0.0
 0 C  dx2y2           0.0       0.0       0.0       0.0       0.5       0.0
 0 C  dxy             0.1       0.1       0.1       0.3       0.0       0.0
 1 C  s               1.2       0.2       0.0       0.0       0.0       0.1
 1 C  pz              0.7       0.4       0.2       0.1       0.7       0.3
 1 C  px              2.6       0.7       0.1       0.1       2.4       0.3
 1 C  py              0.2       1.4       2.8       4.8       0.2       0.5
 1 C  dz2             0.1       0.0       0.0       0.0       0.1       0.0
 1 C  dxz             0.0       0.0       0.1       0.0       0.3       0.0
 1 C  dx2y2           0.0       0.0       0.0       0.1       0.4       0.1
 1 C  dxy             0.1       0.1       0.3       0.3       0.0       0.0
 2 H  s               1.3       0.4       0.1       0.2       0.4       0.5
 3 C  s               0.0       0.3       0.1       0.2       0.1       0.2
 3 C  pz              1.7       0.1       1.3       2.4       2.2       0.1
 3 C  px              1.4       0.5       6.8       0.1       0.7       0.1
 3 C  py              0.9       0.0       1.7       0.8       0.4       1.2
 3 C  dz2             0.6       0.0       0.1       0.1       0.0       0.1
 3 C  dxz             0.2       0.0       0.1       0.1       0.1       0.2
 3 C  dyz             0.5       0.1       0.0       0.2       0.0       0.0
 3 C  dx2y2           0.1       0.0       0.0       0.0       0.1       0.0
 3 C  dxy             0.0       0.0       0.1       0.1       0.3       0.4
 4 H  s               6.0       0.5       1.0       1.6       3.4       0.9
 5 C  s               0.9       0.1       0.1       0.6       0.3       0.6
 5 C  pz              0.1       1.7       2.8       0.0       0.0       1.4
 5 C  px              0.4       0.1       2.6       2.6       0.1       2.0
 5 C  py              2.5       0.6       0.1       3.8       0.9       1.7
 5 C  dz2             0.0       0.4       0.3       0.0       0.1       0.1
 5 C  dxz             0.0       0.1       0.4       0.0       0.0       0.1
 5 C  dyz             0.0       0.0       0.1       0.0       0.1       0.2
 5 C  dx2y2           0.0       0.0       0.1       0.1       0.0       0.2
 5 C  dxy             0.0       0.1       0.0       0.1       0.3       0.5
 6 H  s               0.6       3.1       2.9       0.0       0.6       4.0
 7 C  s               0.0       0.0       0.0       0.0       0.2       0.1
 7 C  pz              0.1       0.2       0.1       0.4       0.3       0.6
 7 C  px              0.5       0.8       0.3       1.4       0.4       0.2
 7 C  py              0.6       0.5       0.0       2.1       0.8       0.5
 7 C  dz2             0.3       0.0       0.0       0.4       0.1       0.1
 7 C  dxz             0.0       1.1       0.4       0.1       0.0       0.0
 7 C  dyz             0.1       0.0       0.1       0.2       0.0       0.0
 7 C  dx2y2           0.3       0.1       0.0       0.5       0.0       0.1
 7 C  dxy             0.1       0.0       0.0       0.1       0.2       0.3
 8 H  s               0.7       2.8       1.6       3.3       0.1       0.5
[...]
12 O  py              0.0       0.1       0.0       0.0       0.1       0.1
12 O  dz2             1.9       2.6       8.4       0.1       0.4       0.4
12 O  dxz             1.2       0.3       0.0       0.0       0.0       0.0
12 O  dyz             4.1       0.7       0.6       0.5       0.1       0.2
12 O  dx2y2           0.5       1.2      36.9       0.6       0.9       0.1
12 O  dxy             1.6       0.0       2.5       2.3       1.2       1.3
13 O  s               0.1       0.8       0.0       0.0       0.0       1.4
13 O  pz              0.0       0.6       0.0       0.0       0.0       0.7
13 O  px              0.0       0.1       0.0       0.0       0.0       0.9
13 O  py              0.3       0.0       0.2       0.0       0.0       0.0
13 O  dz2             0.0      38.4       3.1       0.3       0.3       1.0
13 O  dxz             0.5       0.0       0.6       0.1       0.0      12.2
13 O  dyz             5.5       8.8       1.4       0.1       0.3       0.0
13 O  dx2y2           0.9       0.1       0.0       0.1       0.3       9.5
13 O  dxy            17.1       0.8       8.3       0.1       1.4       0.4
16 H  s               0.5       0.5       0.0       0.4       0.1       0.3
17 H  s               0.3       0.5       0.2       0.0       0.0       0.1
18 H  s               0.0       0.0       2.9       0.0       0.0       0.0
19 H  s               0.1       4.3       0.1       0.1       0.0       0.2

                    156       157       158       159   
                   3.30869   3.31248   3.34822   3.40797
                   0.00000   0.00000   0.00000   0.00000
                  --------  --------  --------  --------
 0 C  s               0.0       0.0       0.1       1.1
 0 C  pz              0.0       0.0       0.0       0.3
 0 C  px              0.2       0.0       0.0       1.5
 0 C  dz2             0.0       0.0       0.0       0.1
 0 C  dxz             0.3       0.1       0.0       1.8
 0 C  dyz             0.1       0.0       0.0       0.2
 0 C  dx2y2           0.0       0.3       0.0       2.2
 0 C  dxy             0.7       0.0       0.0       0.2
 1 C  s               1.0       0.0       0.6       0.1
 1 C  pz              0.3       0.0       0.2       0.0
 1 C  px              1.7       0.0       0.3       0.2
 1 C  dxz             3.2       0.1       1.1       0.3
 1 C  dx2y2           4.2       0.3       0.4       0.1
 1 C  dxy             0.0       0.0       0.2       0.1
 3 C  s               0.0       0.8       0.9       0.0
 3 C  px              0.1       0.6       0.3       0.0
 3 C  py              0.1       1.3       1.5       0.0
 3 C  dz2             0.0       0.8       1.1       0.0
 3 C  dxz             0.1       0.3       0.2       0.0
 3 C  dyz             0.0       0.1       1.4       0.0
 3 C  dx2y2           0.3       2.4       0.8       0.0
 3 C  dxy             1.1       4.0       2.0       0.0
 5 C  s               0.0       0.5       1.2       0.0
 5 C  pz              0.0       0.1       0.3       0.1
 5 C  px              0.1       0.8       0.3       0.0
 5 C  py              0.0       0.7       1.2       0.0
 5 C  dz2             0.1       0.3       0.3       0.0
 5 C  dxz             0.1       0.7       0.3       0.1
 5 C  dyz             0.2       0.6       1.9       0.0
 5 C  dx2y2           0.1       0.5       0.0       0.2
 5 C  dxy             0.1       4.6       3.3       0.0
 7 C  s               1.2       0.1       0.2       0.9
 7 C  pz              1.3       0.2       0.1       0.9
 7 C  px              0.1       0.0       0.0       1.3
 7 C  py              0.0       0.0       0.2       1.3
 7 C  dz2             3.6       0.5       0.6       3.8
 7 C  dxz             1.3       0.2       0.6       0.1
 7 C  dyz             0.1       0.1       0.0       0.6
 7 C  dx2y2           0.1       1.0       0.3       0.2
 7 C  dxy             0.0       0.1       0.4       4.5
 9 O  s               0.0       0.2       0.0       0.2
 9 O  px              0.1       0.0       0.0       4.3
 9 O  py              0.0       0.0       0.1       1.4
 9 O  dz2             0.0       0.1       0.7       1.5
 9 O  dxz             0.1       0.0       0.1      22.6
 9 O  dyz             0.6       0.2       0.0       5.6
 9 O  dx2y2           2.6       1.8       1.2      13.6
 9 O  dxy             0.6       1.1       0.3      17.0
10 O  s               2.1       0.0       0.3       0.2
10 O  pz              1.5       0.1       0.2       0.6
10 O  px              0.2       0.0       0.0       0.2
10 O  dz2            20.0       3.1       2.9       5.2
10 O  dxz             4.7       0.0       0.1       1.3
10 O  dyz             1.2       0.0       0.1       0.1
10 O  dx2y2           0.1       0.2       0.1       0.3
10 O  dxy             0.3       0.0       0.0       0.3
11 O  s               0.0       1.5       2.5       0.1
11 O  pz              0.0       0.2       0.1       0.0
11 O  px              0.0       0.3       0.4       0.0
11 O  py              0.0       1.5       1.7       0.0
11 O  dz2             0.0       1.1       3.0       0.1
11 O  dxz             0.1       4.1       2.3       0.0
11 O  dyz             0.2       4.2       3.6       0.1
11 O  dx2y2           0.8       0.1       0.0       0.4
11 O  dxy             0.0      17.0      17.0       0.1
12 O  s               0.1       1.8       3.0       0.0
12 O  px              0.1       1.3       0.8       0.0
12 O  py              0.1       1.2       1.2       0.0
12 O  dz2             0.0       3.5       6.8       0.0
12 O  dxz             0.1       1.5       0.2       0.0
12 O  dyz             0.5       3.1       1.1       0.0
12 O  dx2y2           0.5      10.6       5.7       0.0
12 O  dxy             1.6      15.3      11.6       0.2
13 O  s               2.5       0.1       0.9       0.2
13 O  pz              1.0       0.0       0.2       0.1
13 O  px              1.4       0.0       0.4       0.1
13 O  dz2             1.8       0.3       0.9       0.2
13 O  dxz            16.9       0.0       3.3       0.5
13 O  dx2y2          15.0       0.1       3.6       0.7
13 O  dxy             0.0       0.0       0.0       0.2
16 H  s               0.3       0.1       0.0       0.2
17 H  s               0.0       0.4       0.3       0.0
18 H  s               0.1       0.6       0.1       0.0
19 H  s               0.3       0.0       0.1       0.0


                      *****************************
                      * MAYER POPULATION ANALYSIS *
                      *****************************

  NA   - Mulliken gross atomic population
  ZA   - Total nuclear charge
  QA   - Mulliken gross atomic charge
  VA   - Mayer's total valence
  BVA  - Mayer's bonded valence
  FA   - Mayer's free valence

  ATOM       NA         ZA         QA         VA         BVA        FA
  0 C      5.9133     6.0000     0.0867     3.9685     3.9685     0.0000
  1 C      6.0304     6.0000    -0.0304     4.0780     4.0780    -0.0000
  2 H      0.9224     1.0000     0.0776     0.9697     0.9697    -0.0000
  3 C      5.9540     6.0000     0.0460     4.0380     4.0380    -0.0000
  4 H      0.9634     1.0000     0.0366     1.0069     1.0069    -0.0000
  5 C      5.9675     6.0000     0.0325     4.0323     4.0323    -0.0000
  6 H      0.9328     1.0000     0.0672     0.9716     0.9716    -0.0000
  7 C      5.8139     6.0000     0.1861     4.1324     4.1324    -0.0000
  8 H      0.9269     1.0000     0.0731     0.9619     0.9619    -0.0000
  9 O      8.2987     8.0000    -0.2987     2.1928     2.1928     0.0000
 10 O      8.4144     8.0000    -0.4144     2.0221     2.0221     0.0000
 11 O      8.4246     8.0000    -0.4246     2.0220     2.0220     0.0000
 12 O      8.4260     8.0000    -0.4260     2.0224     2.0224    -0.0000
 13 O      8.4172     8.0000    -0.4172     2.0118     2.0118    -0.0000
 14 H      0.8963     1.0000     0.1037     0.9528     0.9528    -0.0000
 15 H      0.9319     1.0000     0.0681     0.9861     0.9861     0.0000
 16 H      0.6917     1.0000     0.3083     0.9123     0.9123    -0.0000
 17 H      0.6819     1.0000     0.3181     0.8864     0.8864    -0.0000
 18 H      0.6941     1.0000     0.3059     0.9036     0.9036    -0.0000
 19 H      0.6987     1.0000     0.3013     0.8869     0.8869    -0.0000

  Mayer bond orders larger than 0.100000
B(  0-C ,  1-C ) :   1.0552 B(  0-C ,  9-O ) :   1.0040 B(  0-C , 14-H ) :   0.9245 
B(  0-C , 15-H ) :   0.8874 B(  1-C ,  2-H ) :   0.8699 B(  1-C ,  3-C ) :   1.0204 
B(  1-C , 13-O ) :   1.0141 B(  3-C ,  4-H ) :   0.8669 B(  3-C ,  5-C ) :   0.9918 
B(  3-C , 12-O ) :   1.0905 B(  5-C ,  6-H ) :   0.8785 B(  5-C ,  7-C ) :   1.0044 
B(  5-C , 11-O ) :   1.0676 B(  7-C ,  8-H ) :   0.9046 B(  7-C ,  9-O ) :   1.0864 
B(  7-C , 10-O ) :   1.0434 B( 10-O , 16-H ) :   0.8194 B( 11-O , 17-H ) :   0.8364 
B( 12-O , 18-H ) :   0.8296 B( 13-O , 19-H ) :   0.8472 

-------
TIMINGS
-------

Total SCF time: 0 days 0 hours 0 min 2 sec 

Total time                  ....       2.050 sec
Sum of individual times     ....       2.033 sec  ( 99.2%)

SCF preparation             ....       0.039 sec  (  1.9%)
Fock matrix formation       ....       1.853 sec  ( 90.4%)
  Startup                   ....       0.002 sec  (  0.1% of F)
  Split-RI-J                ....       0.974 sec  ( 52.6% of F)
  XC integration            ....       0.873 sec  ( 47.1% of F)
    Basis function eval.    ....       0.351 sec  ( 40.2% of XC)
    Density eval.           ....       0.215 sec  ( 24.6% of XC)
    XC-Functional eval.     ....       0.056 sec  (  6.4% of XC)
    XC-Potential eval.      ....       0.221 sec  ( 25.3% of XC)
Diagonalization             ....       0.000 sec  (  0.0%)
Density matrix formation    ....       0.002 sec  (  0.1%)
Total Energy calculation    ....       0.000 sec  (  0.0%)
Population analysis         ....       0.120 sec  (  5.9%)
Orbital Transformation      ....       0.005 sec  (  0.2%)
Orbital Orthonormalization  ....       0.000 sec  (  0.0%)
DIIS solution               ....       0.005 sec  (  0.2%)
  MO trafo                  ....       0.000 sec  (  0.0 % of DIIS)
  Orb grad                  ....       0.000 sec  (  0.0 % of DIIS)
  Energy W gradient         ....       0.000 sec  (  0.0 % of DIIS)
  DIIS error                ....       0.001 sec  ( 12.6 % of DIIS)
  DIIS work                 ....       0.004 sec  ( 86.2 % of DIIS)
  Form Q                    ....       0.000 sec  (  0.0 % of DIIS)
  Form QpQm                 ....       0.000 sec  (  0.0 % of DIIS)
  Exp/Cayley                ....       0.000 sec  (  0.0 % of DIIS)
  Orb update                ....       0.000 sec  (  0.0 % of DIIS)
  Wake-sleep                ....       0.000 sec  (  1.2 % of DIIS)
SOSCF solution              ....       0.009 sec  (  0.4%)
  MO trafo                  ....       0.005 sec  ( 61.7 % of SOSCF)
  Orb grad                  ....       0.000 sec  (  0.9 % of SOSCF)
  Rot update                ....       0.000 sec  (  2.6 % of SOSCF)
  Step                      ....       0.003 sec  ( 34.0 % of SOSCF)
Finished LeanSCF after   2.1 sec

Maximum memory used throughout the entire LEANSCF-calculation: 15.4 MB


-------------------------------------------------------------------------------
                          DFT DISPERSION CORRECTION                            
                                                                               
                                DFTD4 V3.4.0                                   
-------------------------------------------------------------------------------
The PBE functional is recognized
Active option DFTDOPT                   ...         5   

-------------------------   ----------------
Dispersion correction           -0.019271242
-------------------------   ----------------

------------------   -----------------
gCP correction             0.129050108
------------------   -----------------

-------------------------   --------------------
FINAL SINGLE POINT ENERGY      -571.419586814303
-------------------------   --------------------


------------------------------------------------------------------------------
                              ORCA PROPERTY CALCULATIONS
------------------------------------------------------------------------------

GBWName                                 ... sp.gbw
Number of atoms                         ...     20
Number of basis functions               ...    160
Max core memory                         ...   1024 MB

Electric properties:
Dipole moment                           ... YES
Quadrupole moment                       ...  NO
Static polarizability (Dipole/Dipole)   ...  NO
Static polarizability (Dipole/Quad.)    ...  NO
Static polarizability (Quad./Quad.)     ...  NO
Static polarizability (Velocity)        ...  NO

Atomic electric properties:
Dipole moment                           ...  NO
Quadrupole moment                       ...  NO
Static polarizability                   ...  NO

Choice of electric origin               ... Center of mass
Position of electric origin             ...     0.000004     0.000005    -0.000002

General magnetic properties:
Magnetizability                         ...  NO

EPR properties:
g-Tensor (aka g-matrix)                 ...  NO
Zero-Field splitting spin-orbit         ...  NO
Zero-field splitting spin-spin          ...  NO
Hyperfine couplings                     ...  NO (   0 nuclei)
Quadrupole couplings                    ...  NO (   0 nuclei)
Contact density                         ...  NO (   0 nuclei)

NMR properties:
Chemical shifts                         ...  NO (   0 nuclei)
Spin-rotation constants                 ...  NO (   0 nuclei)
Spin-spin couplings                     ...  NO (   0 nuclei,    0 pairs)

Choice of magnetic origin               ... GIAO
Position of magnetic origin             ...     0.000000     0.000000     0.000000

Properties with geometric perturbations:
SCF Hessian                             ...  NO
IR spectrum                             ...  NO
VCD spectrum                            ...  NO
X-ray spectroscopy properties:
SCF XES/XAS/RIXS spectra                ...  NO


-------------
DIPOLE MOMENT
-------------

Method             : SCF
Type of density    : Electron Density
Multiplicity       :   1
Irrep              :   0
Energy             :  -571.5293656799639166 Eh
Relativity type    : 
Basis              : AO
                                X                 Y                 Z
Electronic contribution:     -1.148358645      -0.370265241      -0.262931473
Nuclear contribution   :      1.636118369      -0.028117989       0.657636688
                        -----------------------------------------
Total Dipole Moment    :      0.487759724      -0.398383230       0.394705215
                        -----------------------------------------
Magnitude (a.u.)       :      0.743243536
Magnitude (Debye)      :      1.889174933



--------------------
Rotational spectrum 
--------------------
 
Rotational constants in cm-1:             0.057523             0.044840             0.029215 
Rotational constants in MHz :          1724.491425          1344.274298           875.830576 

Dipole components along the rotational axes: 
x,y,z [a.u.] :     0.484712     0.406761     0.389886 
x,y,z [Debye]:     1.232039     1.033903     0.991012 

 

Dipole moment calculation done in   0.0 sec 

Maximum memory used throughout the entire PROP-calculation: 10.1 MB

--------------------------------
SUGGESTED CITATIONS FOR THIS RUN
--------------------------------

Below you find a list of papers that are relevant to this ORCA run
We neither can nor want to force you to cite these papers, but we appreciate if you do
You receive ORCA, which is the product of decades of hard work by many enthusiastic individuals, for free
The only thing we kindly ask in return is that you cite our papers,
We deeply appreciate it, if you show your appreciation for ORCA by not just citing the generic ORCA reference.

Please note that relegating all ORCA citations to the supporting information does *not* help us.
SI sections are not indexed - citations you put there will not count into any citation statistics
But we need these citations in order to attract the funding resources that allow us to do what we are doing

Therefore, if you are a happy ORCA user, please consider citing a few of the papers listed below in the main body of your paper

In addition to the list printed below, the program has created the file sp.bibtex that contains the list in bibtex format
You can import this file easily into all common literature databanks and citation aid programs


List of essential papers. We consider these as the minimum necessary citations

  1. Neese,F.
     Software update: the ORCA program system, version 5.0
     WIRES Comput. Molec. Sci., 2022 12(1)e1606
     doi.org/10.1002/wcms.1606

List of papers to cite with high priority. The work reported in these papers was absolutely
necessary for this run to complete.
Our perspective: the developers of density functionals and basis sets usually get cited in chemistry papers
Good! But without the algorithms to do something with them, the functionals or basis sets would not do anything.
Hence, in our opinion, the algorithm design and method developments papers are equally worthy of getting cited

  1. Neese,F.
     An improvement of the resolution of the identity approximation for the formation of the Coulomb matrix
     J. Comp. Chem., 2003 24(14)1740-1747
     doi.org/10.1002/jcc.10318
  2. Neese,F.
     The SHARK Integral Generation and Digestion System
     J. Comp. Chem., 2022  1-16
     doi.org/10.1002/jcc.26942
  3. Caldeweyher,E.; Bannwarth,C.; Grimme,S.
     Extension of the D3 dispersion coefficient model
     J. Chem. Phys., 2017 147 034112
     doi.org/10.1063/1.4993215
  4. Caldeweyher,E.; Ehlert,S.; Hansen,A.; Neugebauer,H.; Spicher,S.; Bannwarth,C.; Grimme,S.
     A generally applicable atomic-charge dependent London dispersion correction
     J. Chem. Phys., 2019 150 154122
     doi.org/10.1063/1.5090222
  5. Caldeweyher,E.; Mewes,J.; Ehlert,S.; Grimme,S.
     Extension and evaluation of the D4 London-dispersion model for periodic systems
     Phys. Chem. Chem. Phys., 2020 22(16)8499-8512
     doi.org/10.1039/D0CP00502A
  6. Wittmann,L.; Gordiy,I.; Friede,M.; Helmich-Paris,B.; Grimme,S.; Hansen,A.; Bursch,M.
     Extension of the D3 and D4 London Dispersion Corrections to the full Actinides Series
     Phys. Chem. Chem. Phys., 2024 26(32)21379-21394
     doi.org/https://doi.org/10.1039/D4CP01514B 

List of suggested additional citations. These are papers that are important in the 'surrounding' of 
of this run, or papers that preceded the highly important papers. If you like your results we are grateful for a citation.

  1. Neese,F.
     The ORCA program system
     WIRES Comput. Molec. Sci., 2012 2(1)73-78
     doi.org/10.1002/wcms.81
  2. Neese,F.
     Software update: the ORCA program system, version 4.0
     WIRES Comput. Molec. Sci., 2018 8(1)1-6
     doi.org/10.1002/wcms.1327
  3. Neese,F.; Wennmohs,F.; Becker,U.; Riplinger,C.
     The ORCA quantum chemistry program package
     J. Chem. Phys., 2020 152 Art. No. L224108
     doi.org/10.1063/5.0004608

List of optional additional citations

  1. Neese,F.
     Approximate second-order SCF convergence for spin unrestricted wavefunctions
     Chem. Phys. Lett., 2000 325(1-3)93-98
     doi.org/10.1016/s0009-2614(00)00662-x

Timings for individual modules:

Sum of individual times          ...        2.950 sec (=   0.049 min)
Startup calculation              ...        0.508 sec (=   0.008 min)  17.2 %
SCF iterations                   ...        2.383 sec (=   0.040 min)  80.8 %
Property calculations            ...        0.059 sec (=   0.001 min)   2.0 %
                             ****ORCA TERMINATED NORMALLY****
TOTAL RUN TIME: 0 days 0 hours 0 minutes 3 seconds 121 msec
