      -----------------------------------------------------------      
     |                   =====================                   |     
     |                           x T B                           |     
     |                   =====================                   |     
     |                         S. Grimme                         |     
     |          Mulliken Center for Theoretical Chemistry        |     
     |                    University of Bonn                     |     
      -----------------------------------------------------------      

   * xtb version 6.7.1 (41059b4) compiled by 'michael@archlinux' on 2025-03-24

   xtb is free software: you can redistribute it and/or modify it under
   the terms of the GNU Lesser General Public License as published by
   the Free Software Foundation, either version 3 of the License, or
   (at your option) any later version.
   
   xtb is distributed in the hope that it will be useful,
   but WITHOUT ANY WARRANTY; without even the implied warranty of
   MERCHANTABILITY or FITNESS FOR A PARTICULAR PURPOSE.  See the
   GNU Lesser General Public License for more details.
   
   Cite this work as:
   * C. Bannwarth, E. Caldeweyher, S. Ehlert, A. Hansen, P. Pracht,
     J. Seibert, S. Spicher, S. Grimme, WIREs Comput. Mol. Sci., 2020, 11,
     e01493. DOI: 10.1002/wcms.1493
   
   for GFN2-xTB:
   * C. Bannwarth, S. Ehlert and S. Grimme., J. Chem. Theory Comput., 2019,
     15, 1652-1671. DOI: 10.1021/acs.jctc.8b01176
   for GFN1-xTB:
   * S. Grimme, C. Bannwarth, P. Shushkov, J. Chem. Theory Comput., 2017,
     13, 1989-2009. DOI: 10.1021/acs.jctc.7b00118
   for GFN0-xTB:
   * P. Pracht, E. Caldeweyher, S. Ehlert, S. Grimme, ChemRxiv, 2019, preprint.
     DOI: 10.26434/chemrxiv.8326202.v1
   for GFN-FF:
   * S. Spicher and S. Grimme, Angew. Chem. Int. Ed., 2020, 59, 15665-15673.
     DOI: 10.1002/anie.202004239
   
   for ALPB and GBSA implicit solvation:
   * S. Ehlert, M. Stahn, S. Spicher, S. Grimme, J. Chem. Theory Comput.,
     2021, 17, 4250-4261. DOI: 10.1021/acs.jctc.1c00471
   
   for ddCOSMO and CPCM-X implicit solvation:
   * M. Stahn, S. Ehlert, S. Grimme, J. Phys. Chem. A,
     2023, XX, XXXX-XXXX. DOI: 10.1021/acs.jpca.3c04382
   
   for DFT-D4:
   * E. Caldeweyher, C. Bannwarth and S. Grimme, J. Chem. Phys., 2017,
     147, 034112. DOI: 10.1063/1.4993215
   * E. Caldeweyher, S. Ehlert, A. Hansen, H. Neugebauer, S. Spicher,
     C. Bannwarth and S. Grimme, J. Chem. Phys., 2019, 150, 154122.
     DOI: 10.1063/1.5090222
   * E. Caldeweyher, J.-M. Mewes, S. Ehlert and S. Grimme, Phys. Chem. Chem. Phys.
     2020, 22, 8499-8512. DOI: 10.1039/D0CP00502A
   
   for sTDA-xTB:
   * S. Grimme and C. Bannwarth, J. Chem. Phys., 2016, 145, 054103.
     DOI: 10.1063/1.4959605
   
   in the mass-spec context:
   * V. Asgeirsson, C. Bauer and S. Grimme, Chem. Sci., 2017, 8, 4879.
     DOI: 10.1039/c7sc00601b
   * J. Koopman and S. Grimme, ACS Omega 2019, 4, 12, 15120-15133.
     DOI: 10.1021/acsomega.9b02011
   
   for metadynamics refer to:
   * S. Grimme, J. Chem. Theory Comput., 2019, 155, 2847-2862
     DOI: 10.1021/acs.jctc.9b00143
   
   for SPH calculations refer to:
   * S. Spicher and S. Grimme, J. Chem. Theory Comput., 2021, 17, 1701-1714
     DOI: 10.1021/acs.jctc.0c01306
   
   for ONIOM refer to:
   * C. Plett, A. Katbashev, S. Ehlert, S. Grimme, M. Bursch,
     Phys. Chem. Chem. Phys., 2023, 25, 17860-17868. DOI: 10.1039/D3CP02178E
   
   for DIPRO refer to:
   * J. Kohn, N. Gildemeister, S. Grimme, D. Fazzi, A. Hansen,
     J. Chem. Phys., 2023, just accepted.
   
   for PTB refer to:
   * S. Grimme, M. Mueller, A. Hansen, J. Chem. Phys., 2023, 158, 124111.
     DOI: 10.1063/5.0137838
   
   with help from (in alphabetical order)
   P. Atkinson, C. Bannwarth, F. Bohle, G. Brandenburg, E. Caldeweyher
   M. Checinski, S. Dohm, S. Ehlert, S. Ehrlich, I. Gerasimov, C. Hölzer
   A. Katbashev, J. Kohn, J. Koopman, C. Lavigne, S. Lehtola, F. März, M. Müller,
   F. Musil, H. Neugebauer, J. Pisarek, C. Plett, P. Pracht, F. Pultar,
   J. Seibert, P. Shushkov, S. Spicher, M. Stahn, M. Steiner, T. Strunk,
   J. Stückrath, T. Rose, and J. Unsleber
   
 * started run on 2025/04/09 at 01:53:17.392     
   ID    Z sym.   atoms
    1    6 C      1, 2
    2   17 Cl     3-6
    3    1 H      7, 8

           -------------------------------------------------
          |                Calculation Setup                |
           -------------------------------------------------

          program call               : /usr/bin/xtb xtb_opt.coord --opt normal --orca -I xtb_opt-xcontrol-inp
          coordinate file            : xtb_opt.coord
          omp threads                :                    16

           -------------------------------------------------
          |                   Orca driver                   |
           -------------------------------------------------
orca executable           : /home/michael/Documents/CHEM4561/orca_avx2/orca
orca input file           : xtb_opt.inp
orca input line           : 
orca parallel             : true
orca number of threads    : 16
                         * ORCA takes the control...
  ------------------------------------------------------------------------

                                 *****************
                                 * O   R   C   A *
                                 *****************

                                            #,                                       
                                            ###                                      
                                            ####                                     
                                            #####                                    
                                            ######                                   
                                           ########,                                 
                                     ,,################,,,,,                         
                               ,,#################################,,                 
                          ,,##########################################,,             
                       ,#########################################, ''#####,          
                    ,#############################################,,   '####,        
                  ,##################################################,,,,####,       
                ,###########''''           ''''###############################       
              ,#####''   ,,,,##########,,,,          '''####'''          '####       
            ,##' ,,,,###########################,,,                        '##       
           ' ,,###''''                  '''############,,,                           
         ,,##''                                '''############,,,,        ,,,,,,###''
      ,#''                                            '''#######################'''  
     '                                                          ''''####''''         
             ,#######,   #######,   ,#######,      ##                                
            ,#'     '#,  ##    ##  ,#'     '#,    #''#        ,####,   ,####,        
            ##       ##  ##   ,#'  ##            #'  '#       #'       #'  '#        
            ##       ##  #######   ##           ,######,      #####,   #    #        
            '#,     ,#'  ##    ##  '#,     ,#' ,#      #,     #,   #   #,  ,#        
             '#######'   ##     ##  '#######'  #'      '#     '####' # '####'        



                #########################################################
                #                        -***-                          #
                #          Department of theory and spectroscopy        #
                #                                                       #
                #                      Frank Neese                      #
                #                                                       #
                #     Directorship, Architecture, Infrastructure        #
                #                    SHARK, DRIVERS                     #
                #        Core code/Algorithms in most modules           #
                #                                                       #
                #        Max Planck Institute fuer Kohlenforschung      #
                #                Kaiser Wilhelm Platz 1                 #
                #                 D-45470 Muelheim/Ruhr                 #
                #                      Germany                          #
                #                                                       #
                #                  All rights reserved                  #
                #                        -***-                          #
                #########################################################


                         Program Version 6.0.1  -  RELEASE   -


 With contributions from (in alphabetic order):
[Max-Planck-Institut fuer Kohlenforschung]                               
  Daniel Aravena         : Magnetic Suceptibility                        
  Michael Atanasov       : Ab Initio Ligand Field Theory (pilot matlab implementation)
  Alexander A. Auer      : GIAO ZORA, VPT2 properties, NMR spectrum      
  Ute Becker             : All parallelization in ORCA, NUMFREQ, NUMCALC 
  Giovanni Bistoni       : ED, misc. LED, open-shell LED, HFLD           
  Martin Brehm           : Molecular dynamics                            
  Dmytro Bykov           : pre 5.0 version of the SCF Hessian            
  Marcos Casanova-Páez   : Triplet and SCS-CIS(D). UHF-(DLPNO)-IP/EA/STEOM-CCSD. UHF-CVS-IP/STEOM-CCSD   
  Vijay G. Chilkuri      : MRCI spin determinant printing, contributions to CSF-ICE 
  Pauline Colinet        : FMM embedding                                 
  Dipayan Datta          : RHF DLPNO-CCSD density                        
  Achintya Kumar Dutta   : EOM-CC, STEOM-CC                              
  Nicolas Foglia         : Exact transition moments, OPA infrastructure, MCD improvements    
  Dmitry Ganyushin       : Spin-Orbit,Spin-Spin,Magnetic field MRCI      
  Miquel Garcia-Rates    : C-PCM and meta-GGA Hessian, CCSD/C-PCM, Gaussian charge scheme 
  Tiago L. C. Gouveia    : GS-ROHF, GS-ROCIS                             
  Yang Guo               : DLPNO-NEVPT2, F12-NEVPT2, CIM, IAO-localization        
  Andreas Hansen         : Spin unrestricted coupled pair/coupled cluster methods 
  Ingolf Harden          : AUTO-CI MPn and infrastructure                
  Benjamin Helmich-Paris : MC-RPA, TRAH-(SCF,CASSCF), AVAS, COSX integrals, SCF dyn. polar. 
  Lee Huntington         : MR-EOM, pCC                                   
  Robert Izsak           : Overlap fitted RIJCOSX, COSX-SCS-MP3, EOM     
  Riya Kayal             : Wick's Theorem for AUTO-CI, AUTO-CI UHF-CCSDT 
  Emily Kempfer          : AUTO-CI, RHF CISDT and CCSDT                  
  Christian Kollmar      : KDIIS, OOCD, Brueckner-CCSD(T), CCSD density, CASPT2, CASPT2-K, improved NEVPT2 
  Axel Koslowski         : Symmetry handling                             
  Simone Kossmann        : meta-GGA functionals, TD-DFT gradient, OOMP2, (MP2 Hessian; deprecated post 5.0) 
  Lucas Lang             : DCDCAS                                        
  Marvin Lechner         : AUTO-CI (C++ implementation), FIC-MRCC        
  Spencer Leger          : CASSCF response                               
  Dagmar Lenk            : GEPOL surface, SMD, ORCA-2-JSON               
  Dimitrios Liakos       : Extrapolation schemes; Compound Job, initial MDCI parallelization 
  Dimitrios Manganas     : Further ROCIS development; embedding schemes. LFT, Crystal Embedding 
  Dimitrios Pantazis     : SARC Basis sets                               
  Anastasios Papadopoulos: AUTO-CI, single reference methods and gradients 
  Taras Petrenko         : pre 6.0 DFT Hessian and TD-DFT gradient, (ASA, deprecated), ECA, 1-Electron XAS/XES, NRVS 
  Peter Pinski           : DLPNO-MP2, DLPNO-MP2 Gradient                 
  Christoph Reimann      : Effective Core Potentials                     
  Marius Retegan         : Local ZFS, SOC                                
  Christoph Riplinger    : Optimizer, TS searches, QM/MM, DLPNO-CCSD(T), (RO)-DLPNO pert. Triples 
  Michael Roemelt        : Original ROCIS implementation                 
  Masaaki Saitow         : Open-shell DLPNO-CCSD energy and density      
  Barbara Sandhoefer     : DKH picture change effects                    
  Kantharuban Sivalingam : CASSCF convergence/infrastructure, NEVPT2 and variants, FIC-MRCI 
  Bernardo de Souza      : ESD, SOC TD-DFT                               
  Georgi L. Stoychev     : AutoAux, RI-MP2 NMR, DLPNO-MP2 response, X2C  
  Van Anh Tran           : RI-MP2 g-tensors                              
  Willem Van den Heuvel  : Paramagnetic NMR                              
  Zikuan Wang            : NOTCH, Electric field optimization            
  Frank Wennmohs         : Technical directorship and infrastructure     
  Hang Xu                : AUTO-CI-Response properties                   
                                                                         
[FACCTs GmbH]                                                            
  Markus Bursch, Miquel Garcia-Rates, Christoph Riplinger, Bernardo de Souza, Georgi L. Stoychev 
                                                                 
  APM, Basis sets (HGBS, AHGBS, def-TZVP (Ac-Lr), def2-XVPD (La-Lu)), CI-OPT, improved COSX, DLPNO-Multilevel,           
  DOCKER, DRACO, updates on ESD, GOAT, IRC, LR-CPCM, MBIS, meta-GGA TD-DFT gradient, ML-optimized integration grids, 
  MM, NACMEs, nearIR, NEB, NEB-TS, NL-DFT gradient (VV10), 2- and 3-layer-ONIOM, interface openCOSMO-RS, QMMM,   
  Crystal-QMMM, SF, symmetry and pop. for TD-DFT, r2SCAN hybrids, SOLVATOR                                   
                                                                         
[Other institutions]                                                     
  V. Asgeirsson          : NEB                                           
  Christoph Bannwarth    : sTDA-DFT, sTD-DFT, PBEh-3c, B97-3c, D3        
  Sebastian Ehlert       : rSCAN, r2SCAN, r2SCAN-3c, D4, dhf basis sets  
  Marvin Friede          : D4 for Fr, Ra, Ac-Lr                          
  Lars Goerigk           : TD-DFT with DH, B97 family of functionals     
  Stefan Grimme          : VdW corrections, initial TS optimization, DFT functionals, gCP, sTDA/sTD-DF 
  Waldemar Hujo          : DFT-NL                                        
  H. Jonsson             : NEB                                           
  Holger Kruse           : gCP                                           
  Marcel Mueller         : wB97X-3c, vDZP basis set                      
  Hagen Neugebauer       : wr2SCAN                                       
  Tobias Risthaus        : range-separated hybrid DFT                    
  Lukas Wittmann         : regularized MP2, r2SCAN double-hybrids, wr2SCAN        
                                                                         
We gratefully acknowledge several colleagues who have allowed us to      
interface, adapt or use parts of their codes:                            
  Ed Valeev, F. Pavosevic, A. Kumar             : LibInt (2-el integral package), F12 methods 
  Garnet Chan, S. Sharma, J. Yang, R. Olivares  : DMRG                   
  Ulf Ekstrom                                   : XCFun DFT Library      
  Mihaly Kallay                                 : mrcc  (arbitrary order and MRCC methods)
  Frank Weinhold                                : gennbo (NPA and NBO analysis)           
  Simon Mueller                                 : openCOSMO-RS                            
  Christopher J. Cramer and Donald G. Truhlar   : smd solvation model                     
  S Lehtola, MJT Oliveira, MAL Marques          : LibXC Library                           
  Liviu Ungur et al                             : ANISO software                          


 Your calculation uses the libint2 library for the computation of 2-el integrals
 For citations please refer to: http://libint.valeyev.net

 Your ORCA version has been built with support for libXC version: 6.2.2
 For citations please refer to: https://libxc.gitlab.io

 This ORCA versions uses:
   CBLAS   interface :  Fast vector & matrix operations
   LAPACKE interface :  Fast linear algebra routines
   SCALAPACK package :  Parallel linear algebra routines
   Shared memory     :  Shared parallel matrices
   BLAS/LAPACK       :  OpenBLAS 0.3.27  USE64BITINT DYNAMIC_ARCH NO_AFFINITY Zen SINGLE_THREADED
        Core in use  :  Zen
   Copyright (c) 2011-2014, The OpenBLAS Project




***************************************
The coordinates will be read from file: xtb_opt.xyz
***************************************


Your calculation utilizes the geometrical counterpoise correction gCP
Please cite in your paper:
H.Kruse, S. Grimme J.Chem.Phys., 136, (2012), 154101 
   

Your calculation utilizes the atom-pairwise dispersion correction
based on EEQ partial charges (D4)


================================================================================

----- Orbital basis set information -----
Your calculation utilizes the basis: def2-mTZVPP
   Stefan Grimme, Andreas Hansen, Sebastian Ehlert, and Jan-Michael Mewes 
   J. Chem. Phys. 154, 064103 (2021). DOI: 10.1063/5.0040021

----- AuxJ basis set information -----
Your calculation utilizes the auxiliary basis: def2/J
   F. Weigend, Phys. Chem. Chem. Phys. 8, 1057 (2006).

================================================================================
                                        WARNINGS
                       Please study these warnings very carefully!
================================================================================

WARNING: Old DensityContainer found on disk!
         Will remove this file - 
         If you want to keep old densities, please start your calculation with a different basename. 



WARNING: SCAN, rSCAN, or r2SCAN functional requested.
  ===> : libXC variant has now been activated.



================================================================================
                                       INPUT FILE
================================================================================
NAME = xtb_opt.inp
|  1> ! r2scan-3c def2/J RI DEFGRID2 scfconv7 ENGRAD tightSCF miniprint
|  2> * xyzfile 0 1 xtb_opt.xyz
|  3> 
|  4>                          ****END OF INPUT****
================================================================================

                     *******************************
                     * Energy+Gradient Calculation *
                     *******************************

---------------------------------
CARTESIAN COORDINATES (ANGSTROEM)
---------------------------------
  C      0.701154   -0.000161   -1.167465
  C     -0.371355   -0.000165   -0.095747
  Cl    -1.963204   -0.000227   -0.897985
  Cl    -0.248081   -1.445063    0.924879
  Cl    -0.248459    1.445329    0.924534
  Cl     2.313123    0.000083   -0.422057
  H      0.613611    0.895725   -1.783691
  H      0.613616   -0.896125   -1.783503

----------------------------
CARTESIAN COORDINATES (A.U.)
----------------------------
  NO LB      ZA    FRAG     MASS         X           Y           Z
   0 C     6.0000    0    12.011    1.324990   -0.000304   -2.206190
   1 C     6.0000    0    12.011   -0.701760   -0.000311   -0.180935
   2 Cl   17.0000    0    35.453   -3.709918   -0.000429   -1.696945
   3 Cl   17.0000    0    35.453   -0.468804   -2.730773    1.747769
   4 Cl   17.0000    0    35.453   -0.469519    2.731276    1.747116
   5 Cl   17.0000    0    35.453    4.371169    0.000157   -0.797572
   6 H     1.0000    0     1.008    1.159558    1.692674   -3.370688
   7 H     1.0000    0     1.008    1.159567   -1.693430   -3.370331

------------------------------------------------------------------------------
                   ___                                                        
                  /   \      - P O W E R E D   B Y -                         
                 /     \                                                     
                 |  |  |   _    _      __       _____    __    __             
                 |  |  |  | |  | |    /  \     |  _  \  |  |  /  |          
                  \  \/   | |  | |   /    \    | | | |  |  | /  /          
                 / \  \   | |__| |  /  /\  \   | |_| |  |  |/  /          
                |  |  |   |  __  | /  /__\  \  |    /   |      \           
                |  |  |   | |  | | |   __   |  |    \   |  |\   \          
                \     /   | |  | | |  |  |  |  | |\  \  |  | \   \       
                 \___/    |_|  |_| |__|  |__|  |_| \__\ |__|  \__/        
                                                                              
                      - O R C A' S   B I G   F R I E N D -                    
                                      &                                       
                       - I N T E G R A L  F E E D E R -                       
                                                                              
 v1 FN, 2020, v2 2021, v3 2022-2024                                           
------------------------------------------------------------------------------


----------------------
SHARK INTEGRAL PACKAGE
----------------------

Number of atoms                             ...      8
Number of basis functions                   ...    156
Number of shells                            ...     68
Maximum angular momentum                    ...      2
Integral batch strategy                     ... SHARK/LIBINT Hybrid
RI-J (if used) integral strategy            ... SPLIT-RIJ (Revised 2003 algorithm where possible)
Printlevel                                  ...      1
Contraction scheme used                     ... SEGMENTED contraction
Prescreening option                         ... SCHWARTZ
   Thresh                                   ... 3.000e-11
   Tcut                                     ... 1.000e-12
   Tpresel                                  ... 1.000e-12 
Coulomb Range Separation                    ... NOT USED
Exchange Range Separation                   ... NOT USED
Multipole approximations                    ... NOT USED
Finite Nucleus Model                        ... NOT USED
CABS basis                                  ... NOT available
Auxiliary Coulomb fitting basis             ... AVAILABLE
   # of basis functions in Aux-J            ...    324
   # of shells in Aux-J                     ...    108
   Maximum angular momentum in Aux-J        ...      4
Auxiliary J/K fitting basis                 ... NOT available
Auxiliary Correlation fitting basis         ... NOT available
Auxiliary 'external' fitting basis          ... NOT available

Checking pre-screening integrals            ... done (  0.0 sec) Dimension = 68
Check shell pair data                       ... done (  0.0 sec)
Shell pair information
Shell pair cut-off parameter TPreSel        ...   1.0e-12
Total number of shell pairs                 ...      2346
Shell pairs after pre-screening             ...      2154
Total number of primitive shell pairs       ...     10941
Primitive shell pairs kept                  ...      6891
          la=0 lb=0:    496 shell pairs
          la=1 lb=0:    742 shell pairs
          la=1 lb=1:    289 shell pairs
          la=2 lb=0:    334 shell pairs
          la=2 lb=1:    238 shell pairs
          la=2 lb=2:     55 shell pairs

Calculating one electron integrals          ... done (  0.0 sec)
Calculating RI/J V-Matrix + Cholesky decomp.... done (  0.0 sec)
Calculating Nuclear repulsion               ... done (  0.0 sec) ENN=    536.931225150762 Eh

Diagonalization of the overlap matrix:
Smallest eigenvalue                        ... 5.649e-04
Time for diagonalization                   ...    0.002 sec
Threshold for overlap eigenvalues          ... 1.000e-07
Number of eigenvalues below threshold      ... 0
Time for construction of square roots      ...    0.000 sec
Total time needed                          ...    0.003 sec

-------------------
DFT GRID GENERATION
-------------------

General Integration Accuracy     IntAcc      ... 4.388
Radial Grid Type                 RadialGrid  ... OptM3 with GC (2021)
Angular Grid (max. ang.)         AngularGrid ... 4 (Lebedev-302)
Angular grid pruning method      GridPruning ... 4 (adaptive)
Weight generation scheme         WeightScheme... mBecke (2022)
Basis function cutoff            BFCut       ... 1.0000e-11
Integration weight cutoff        WCut        ... 1.0000e-14
Partially contracted basis set               ... off
Rotationally invariant grid construction     ... off
Angular grids for H and He will be reduced by one unit

Total number of grid points                  ...    47888
Total number of batches                      ...      752
Average number of points per batch           ...       63
Average number of grid points per atom       ...     5986
Initializing property integral containers    ... done (  0.0 sec)

SHARK setup successfully completed in   0.3 seconds

Maximum memory used throughout the entire STARTUP-calculation: 23.1 MB
Occupation numbers will be reassigned to an Aufbau configuration
             **** ENERGY FILE WAS UPDATED (xtb_opt.en.tmp) ****
Finished Guess after   0.0 sec
Maximum memory used throughout the entire GUESS-calculation: 11.3 MB
----------------------------------------D-I-I-S--------------------------------------------
Iteration    Energy (Eh)           Delta-E    RMSDP     MaxDP     DIISErr   Damp  Time(sec)
-------------------------------------------------------------------------------------------
               ***  Starting incremental Fock matrix formation  ***
                              *** Initializing SOSCF ***
---------------------------------------S-O-S-C-F--------------------------------------
Iteration    Energy (Eh)           Delta-E    RMSDP     MaxDP     MaxGrad    Time(sec)
--------------------------------------------------------------------------------------
    1    -1918.0993201894059439     0.00e+00  4.63e-06  1.13e-04  1.79e-05     0.5
               *** Restarting incremental Fock matrix formation ***
    2    -1918.0993201965636672    -7.16e-09  6.42e-06  1.44e-04  5.69e-05     0.5
    3    -1918.0993200465229620     1.50e-07  4.44e-06  9.98e-05  1.30e-04     0.4
    4    -1918.0993202439046854    -1.97e-07  1.52e-06  3.06e-05  1.20e-05     0.4
                  *** Gradient check signals convergence ***

               *****************************************************
               *                     SUCCESS                       *
               *           SCF CONVERGED AFTER   4 CYCLES          *
               *****************************************************

             **** ENERGY FILE WAS UPDATED (xtb_opt.en.tmp) ****

----------------
TOTAL SCF ENERGY
----------------

Total Energy       :      -1918.09932024390469 Eh          -52194.13600 eV

Components:
Nuclear Repulsion  :        536.93122515076243 Eh           14610.64143 eV
Electronic Energy  :      -2455.03054539466666 Eh          -66804.77743 eV
One Electron Energy:      -3715.12640901905706 Eh         -101093.72910 eV
Two Electron Energy:       1260.09586362439018 Eh           34288.95167 eV

Virial components:
Potential Energy   :      -3831.69842681584851 Eh         -104265.81497 eV
Kinetic Energy     :       1913.59910657194382 Eh           52071.67896 eV
Virial Ratio       :          2.00235170138641

DFT components:
N(Alpha)           :       40.999979115062 electrons
N(Beta)            :       40.999979115062 electrons
N(Total)           :       81.999958230125 electrons
E(X)               :     -121.308982058405 Eh       
E(C)               :       -3.112783699728 Eh       
E(XC)              :     -124.421765758133 Eh       

---------------
SCF CONVERGENCE
---------------

  Last Energy change         ...    1.9738e-07  Tolerance :   1.0000e-07
  Last MAX-Density change    ...    3.0566e-05  Tolerance :   1.0000e-07
  Last RMS-Density change    ...    1.5160e-06  Tolerance :   5.0000e-09
  Last DIIS Error            ...    1.1592e-04  Tolerance :   1.0000e-07
  Last Orbital Gradient      ...    1.1960e-05  Tolerance :   1.0000e-04
  Last Orbital Rotation      ...    2.6336e-05  Tolerance :   1.0000e-04


----------------
ORBITAL ENERGIES
----------------

  NO   OCC          E(Eh)            E(eV) 
   0   2.0000    -101.247519     -2755.0851 
   1   2.0000    -101.242094     -2754.9374 
   2   2.0000    -101.242055     -2754.9364 
   3   2.0000    -101.227806     -2754.5486 
   4   2.0000     -10.241321      -278.6805 
   5   2.0000     -10.135934      -275.8128 
   6   2.0000      -9.403530      -255.8831 
   7   2.0000      -9.398251      -255.7394 
   8   2.0000      -9.398209      -255.7383 
   9   2.0000      -9.383712      -255.3438 
  10   2.0000      -7.150471      -194.5742 
  11   2.0000      -7.145314      -194.4339 
  12   2.0000      -7.145273      -194.4328 
  13   2.0000      -7.139250      -194.2689 
  14   2.0000      -7.139164      -194.2665 
  15   2.0000      -7.133931      -194.1241 
  16   2.0000      -7.133889      -194.1230 
  17   2.0000      -7.133752      -194.1193 
  18   2.0000      -7.133711      -194.1181 
  19   2.0000      -7.130496      -194.0307 
  20   2.0000      -7.119632      -193.7350 
  21   2.0000      -7.119277      -193.7254 
  22   2.0000      -0.935469       -25.4554 
  23   2.0000      -0.840795       -22.8792 
  24   2.0000      -0.812168       -22.1002 
  25   2.0000      -0.810912       -22.0660 
  26   2.0000      -0.701501       -19.0888 
  27   2.0000      -0.583451       -15.8765 
  28   2.0000      -0.494510       -13.4563 
  29   2.0000      -0.484452       -13.1826 
  30   2.0000      -0.468356       -12.7446 
  31   2.0000      -0.424028       -11.5384 
  32   2.0000      -0.409586       -11.1454 
  33   2.0000      -0.337647        -9.1878 
  34   2.0000      -0.336194        -9.1483 
  35   2.0000      -0.319527        -8.6948 
  36   2.0000      -0.307258        -8.3609 
  37   2.0000      -0.300942        -8.1891 
  38   2.0000      -0.291587        -7.9345 
  39   2.0000      -0.288940        -7.8625 
  40   2.0000      -0.282795        -7.6952 
  41   0.0000      -0.066853        -1.8192 
  42   0.0000      -0.047858        -1.3023 
  43   0.0000      -0.023097        -0.6285 
  44   0.0000       0.010606         0.2886 
  45   0.0000       0.083686         2.2772 
  46   0.0000       0.096883         2.6363 
  47   0.0000       0.136366         3.7107 
  48   0.0000       0.171693         4.6720 
  49   0.0000       0.175593         4.7781 
  50   0.0000       0.192326         5.2335 
  51   0.0000       0.204615         5.5679 
*Only the first 10 virtual orbitals were printed.
Total SCF time: 0 days 0 hours 0 min 1 sec 
Finished LeanSCF after   2.0 sec

Maximum memory used throughout the entire LEANSCF-calculation: 15.5 MB


-------------------------------------------------------------------------------
                          DFT DISPERSION CORRECTION                            
                                                                               
                                DFTD4 V3.4.0                                   
-------------------------------------------------------------------------------
-------------------------   ----------------
Dispersion correction           -0.003338592
-------------------------   ----------------

------------------   -----------------
gCP correction             0.009921850
------------------   -----------------

-------------------------   --------------------
FINAL SINGLE POINT ENERGY     -1918.092736986555
-------------------------   --------------------

------------------------------------------------------------------------------
                         ORCA SCF GRADIENT CALCULATION
------------------------------------------------------------------------------

Nuc. rep. gradient        (SHARK) ... done (  0.0 sec)
HCore & Overlap gradient  (SHARK) ... done (  0.0 sec)
Split-RIJ-J gradient      (SHARK) ... done (  0.5 sec)
XC gradient                       ... done (  1.5 sec)
Dispersion correction             ... done (  0.0 sec)

-------------------
DISPERSION GRADIENT
-------------------

   1   C   :    0.000009067   -0.000000004   -0.000021727
   2   C   :    0.000000178    0.000000005    0.000002365
   3   Cl  :   -0.000101198   -0.000000010   -0.000030761
   4   Cl  :   -0.000019664   -0.000065832    0.000054212
   5   Cl  :   -0.000019686    0.000065844    0.000054198
   6   Cl  :    0.000105121    0.000000002   -0.000016934
   7   H   :    0.000013092    0.000012011   -0.000020678
   8   H   :    0.000013090   -0.000012017   -0.000020675

Difference to translation invariance:
           :   -0.0000000000   -0.0000000000    0.0000000000

Difference to rotation invariance:
           :    0.0000000000    0.0000000000    0.0000000000

Norm of the Dispersion gradient    ...    0.0001997270
RMS gradient                       ...    0.0000407691
MAX gradient                       ...    0.0001051215
gCP correction                   ... done

------------------
CARTESIAN GRADIENT
------------------

   1   C   :   -0.000730112   -0.000031713    0.003834159
   2   C   :    0.001859239   -0.000067689   -0.001930716
   3   Cl  :    0.007297017    0.000014863    0.007838088
   4   Cl  :   -0.000427099    0.009110425   -0.004947405
   5   Cl  :   -0.000439200   -0.009058008   -0.004912625
   6   Cl  :   -0.012267109    0.000005192   -0.000277333
   7   H   :    0.002361325   -0.000688147    0.000189521
   8   H   :    0.002345939    0.000715077    0.000206310

Difference to translation invariance:
           :    0.0000000000   -0.0000000000   -0.0000000000

Difference to rotation invariance:
           :    0.0000001105    0.0000668229    0.0000005740

Norm of the Cartesian gradient     ...    0.0226680630
RMS gradient                       ...    0.0046270990
MAX gradient                       ...    0.0122671091

-------
TIMINGS
-------

Total SCF gradient time     ....        2.068 sec

Densities                   ....       0.000 sec  (  0.0%)
One electron gradient       ....       0.050 sec  (  2.4%)
RI-J Coulomb gradient       ....       0.489 sec  ( 23.6%)
XC gradient                 ....       1.510 sec  ( 73.0%)

Maximum memory used throughout the entire SCFGRAD-calculation: 31.4 MB

------------------------------------------------------------------------------
                              ORCA PROPERTY CALCULATIONS
------------------------------------------------------------------------------

GBWName                                 ... xtb_opt.gbw
Number of atoms                         ...      8
Number of basis functions               ...    156
Max core memory                         ...   1024 MB

Electric properties:
Dipole moment                           ... YES
Quadrupole moment                       ...  NO
Static polarizability (Dipole/Dipole)   ...  NO
Static polarizability (Dipole/Quad.)    ...  NO
Static polarizability (Quad./Quad.)     ...  NO
Static polarizability (Velocity)        ...  NO

Atomic electric properties:
Dipole moment                           ...  NO
Quadrupole moment                       ...  NO
Static polarizability                   ...  NO

Choice of electric origin               ... Center of mass
Position of electric origin             ...     0.000001    -0.000000    -0.000004

General magnetic properties:
Magnetizability                         ...  NO

EPR properties:
g-Tensor (aka g-matrix)                 ...  NO
Zero-Field splitting spin-orbit         ...  NO
Zero-field splitting spin-spin          ...  NO
Hyperfine couplings                     ...  NO (   0 nuclei)
Quadrupole couplings                    ...  NO (   0 nuclei)
Contact density                         ...  NO (   0 nuclei)

NMR properties:
Chemical shifts                         ...  NO (   0 nuclei)
Spin-rotation constants                 ...  NO (   0 nuclei)
Spin-spin couplings                     ...  NO (   0 nuclei,    0 pairs)

Choice of magnetic origin               ... GIAO
Position of magnetic origin             ...     0.000000     0.000000     0.000000

Properties with geometric perturbations:
SCF Hessian                             ...  NO
IR spectrum                             ...  NO
VCD spectrum                            ...  NO
X-ray spectroscopy properties:
SCF XES/XAS/RIXS spectra                ...  NO


-------------
DIPOLE MOMENT
-------------

Method             : SCF
Type of density    : Electron Density
Multiplicity       :   1
Irrep              :   0
Energy             : -1918.0993202439046854 Eh
Relativity type    : 
Basis              : AO
                                X                 Y                 Z
Electronic contribution:     -1.439480761       0.000069685       3.453196907
Nuclear contribution   :      1.348154077      -0.000538429      -4.057191318
                        -----------------------------------------
Total Dipole Moment    :     -0.091326684      -0.000468744      -0.603994411
                        -----------------------------------------
Magnitude (a.u.)       :      0.610860075
Magnitude (Debye)      :      1.552682917



--------------------
Rotational spectrum 
--------------------
 
Rotational constants in cm-1:             0.062869             0.036851             0.034492 
Rotational constants in MHz :          1884.757908          1104.766608          1034.051828 

Dipole components along the rotational axes: 
x,y,z [a.u.] :     0.091326    -0.000469    -0.603995 
x,y,z [Debye]:     0.232132    -0.001191    -1.535232 

 

Dipole moment calculation done in   0.0 sec 

Maximum memory used throughout the entire PROP-calculation: 9.6 MB

--------------------------------
SUGGESTED CITATIONS FOR THIS RUN
--------------------------------

Below you find a list of papers that are relevant to this ORCA run
We neither can nor want to force you to cite these papers, but we appreciate if you do
You receive ORCA, which is the product of decades of hard work by many enthusiastic individuals, for free
The only thing we kindly ask in return is that you cite our papers,
We deeply appreciate it, if you show your appreciation for ORCA by not just citing the generic ORCA reference.

Please note that relegating all ORCA citations to the supporting information does *not* help us.
SI sections are not indexed - citations you put there will not count into any citation statistics
But we need these citations in order to attract the funding resources that allow us to do what we are doing

Therefore, if you are a happy ORCA user, please consider citing a few of the papers listed below in the main body of your paper

In addition to the list printed below, the program has created the file xtb_opt.bibtex that contains the list in bibtex format
You can import this file easily into all common literature databanks and citation aid programs


List of essential papers. We consider these as the minimum necessary citations

  1. Neese,F.
     Software update: the ORCA program system, version 5.0
     WIRES Comput. Molec. Sci., 2022 12(1)e1606
     doi.org/10.1002/wcms.1606
  2. Grimme,S.; Hansen,A.; Ehlert,S.; Mewes,J.
     r2SCAN-3c: A 'Swiss army knife' composite electronic-structure method
     J. Chem. Phys., 2021 154 064103
     doi.org/10.1063/5.0040021

List of papers to cite with high priority. The work reported in these papers was absolutely
necessary for this run to complete.
Our perspective: the developers of density functionals and basis sets usually get cited in chemistry papers
Good! But without the algorithms to do something with them, the functionals or basis sets would not do anything.
Hence, in our opinion, the algorithm design and method developments papers are equally worthy of getting cited

  1. Neese,F.
     An improvement of the resolution of the identity approximation for the formation of the Coulomb matrix
     J. Comp. Chem., 2003 24(14)1740-1747
     doi.org/10.1002/jcc.10318
  2. Neese,F.
     The SHARK Integral Generation and Digestion System
     J. Comp. Chem., 2022  1-16
     doi.org/10.1002/jcc.26942
  3. Lehtola,S.; Steigemann,C.; Oliveira,M.; Marques,M.
     Recent developments in Libxc - A comprehensive library of functionals for density functional theory
     Software X, 2018 7 
     doi.org/10.1016/j.softx.2017.11.002
  4. Caldeweyher,E.; Bannwarth,C.; Grimme,S.
     Extension of the D3 dispersion coefficient model
     J. Chem. Phys., 2017 147 034112
     doi.org/10.1063/1.4993215
  5. Caldeweyher,E.; Ehlert,S.; Hansen,A.; Neugebauer,H.; Spicher,S.; Bannwarth,C.; Grimme,S.
     A generally applicable atomic-charge dependent London dispersion correction
     J. Chem. Phys., 2019 150 154122
     doi.org/10.1063/1.5090222
  6. Caldeweyher,E.; Mewes,J.; Ehlert,S.; Grimme,S.
     Extension and evaluation of the D4 London-dispersion model for periodic systems
     Phys. Chem. Chem. Phys., 2020 22(16)8499-8512
     doi.org/10.1039/D0CP00502A
  7. Wittmann,L.; Gordiy,I.; Friede,M.; Helmich-Paris,B.; Grimme,S.; Hansen,A.; Bursch,M.
     Extension of the D3 and D4 London Dispersion Corrections to the full Actinides Series
     Phys. Chem. Chem. Phys., 2024 26(32)21379-21394
     doi.org/https://doi.org/10.1039/D4CP01514B 

List of suggested additional citations. These are papers that are important in the 'surrounding' of 
of this run, or papers that preceded the highly important papers. If you like your results we are grateful for a citation.

  1. Neese,F.
     The ORCA program system
     WIRES Comput. Molec. Sci., 2012 2(1)73-78
     doi.org/10.1002/wcms.81
  2. Neese,F.
     Software update: the ORCA program system, version 4.0
     WIRES Comput. Molec. Sci., 2018 8(1)1-6
     doi.org/10.1002/wcms.1327
  3. Neese,F.; Wennmohs,F.; Becker,U.; Riplinger,C.
     The ORCA quantum chemistry program package
     J. Chem. Phys., 2020 152 Art. No. L224108
     doi.org/10.1063/5.0004608

List of optional additional citations

  1. Neese,F.
     Approximate second-order SCF convergence for spin unrestricted wavefunctions
     Chem. Phys. Lett., 2000 325(1-3)93-98
     doi.org/10.1016/s0009-2614(00)00662-x

Timings for individual modules:

Sum of individual times          ...        4.435 sec (=   0.074 min)
Startup calculation              ...        0.273 sec (=   0.005 min)   6.2 %
SCF iterations                   ...        2.026 sec (=   0.034 min)  45.7 %
Property calculations            ...        0.033 sec (=   0.001 min)   0.7 %
SCF Gradient evaluation          ...        2.103 sec (=   0.035 min)  47.4 %
                             ****ORCA TERMINATED NORMALLY****
TOTAL RUN TIME: 0 days 0 hours 0 minutes 4 seconds 500 msec
  ------------------------------------------------------------------------
          * successful ORCA run, taking over control again...

         :::::::::::::::::::::::::::::::::::::::::::::::::::::
         ::                  ORCA SUMMARY                   ::
         :::::::::::::::::::::::::::::::::::::::::::::::::::::
         :: total energy           -1918.092736986555 Eh    ::
         :: gradient norm              0.022668063049 Eh/a0 ::
         :: HOMO-LUMO gap              0.000000000000 eV    ::
         :::::::::::::::::::::::::::::::::::::::::::::::::::::

      ----------------------------------------------------------- 
     |                       L-ANC optimizer                     |
      ----------------------------------------------------------- 
          low memory version by Sebastian Ehlert

          ...................................................
          :                      SETUP                      :
          :.................................................:
          :   energy convergence        0.5000000E-05 Eh    :
          :   grad. convergence         0.1000000E-02 Eh/a0 :
          :   optimization log               true           :
          :   writing optlog all                1     steps :
          :   Hessian reset                    20     steps :
          :   maximium step len.        1.0000000     a0    :
          :   LBFGS images                     20           :
          ...................................................
 * calculating model hessian...
Using Lindh-Hessian (1995)
 Shifting diagonal of input Hessian by    1.0000000000000000E-002
 Lowest  eigenvalues of input Hessian
    0.000000    0.000000    0.000000    0.000000    0.000000    0.000000
    0.017942    0.025012    0.034925    0.044211    0.053941    0.056792
    0.084306    0.085364    0.112012    0.135006    0.145214    0.354286
 Highest eigenvalues
    0.637105    1.051972    1.057041    1.152736    1.153964    1.185308


........................................................................
.............................. CYCLE    1 ..............................
........................................................................
                         * ORCA takes the control...
  ------------------------------------------------------------------------

                                 *****************
                                 * O   R   C   A *
                                 *****************

                                            #,                                       
                                            ###                                      
                                            ####                                     
                                            #####                                    
                                            ######                                   
                                           ########,                                 
                                     ,,################,,,,,                         
                               ,,#################################,,                 
                          ,,##########################################,,             
                       ,#########################################, ''#####,          
                    ,#############################################,,   '####,        
                  ,##################################################,,,,####,       
                ,###########''''           ''''###############################       
              ,#####''   ,,,,##########,,,,          '''####'''          '####       
            ,##' ,,,,###########################,,,                        '##       
           ' ,,###''''                  '''############,,,                           
         ,,##''                                '''############,,,,        ,,,,,,###''
      ,#''                                            '''#######################'''  
     '                                                          ''''####''''         
             ,#######,   #######,   ,#######,      ##                                
            ,#'     '#,  ##    ##  ,#'     '#,    #''#        ,####,   ,####,        
            ##       ##  ##   ,#'  ##            #'  '#       #'       #'  '#        
            ##       ##  #######   ##           ,######,      #####,   #    #        
            '#,     ,#'  ##    ##  '#,     ,#' ,#      #,     #,   #   #,  ,#        
             '#######'   ##     ##  '#######'  #'      '#     '####' # '####'        



                #########################################################
                #                        -***-                          #
                #          Department of theory and spectroscopy        #
                #                                                       #
                #                      Frank Neese                      #
                #                                                       #
                #     Directorship, Architecture, Infrastructure        #
                #                    SHARK, DRIVERS                     #
                #        Core code/Algorithms in most modules           #
                #                                                       #
                #        Max Planck Institute fuer Kohlenforschung      #
                #                Kaiser Wilhelm Platz 1                 #
                #                 D-45470 Muelheim/Ruhr                 #
                #                      Germany                          #
                #                                                       #
                #                  All rights reserved                  #
                #                        -***-                          #
                #########################################################


                         Program Version 6.0.1  -  RELEASE   -


 With contributions from (in alphabetic order):
[Max-Planck-Institut fuer Kohlenforschung]                               
  Daniel Aravena         : Magnetic Suceptibility                        
  Michael Atanasov       : Ab Initio Ligand Field Theory (pilot matlab implementation)
  Alexander A. Auer      : GIAO ZORA, VPT2 properties, NMR spectrum      
  Ute Becker             : All parallelization in ORCA, NUMFREQ, NUMCALC 
  Giovanni Bistoni       : ED, misc. LED, open-shell LED, HFLD           
  Martin Brehm           : Molecular dynamics                            
  Dmytro Bykov           : pre 5.0 version of the SCF Hessian            
  Marcos Casanova-Páez   : Triplet and SCS-CIS(D). UHF-(DLPNO)-IP/EA/STEOM-CCSD. UHF-CVS-IP/STEOM-CCSD   
  Vijay G. Chilkuri      : MRCI spin determinant printing, contributions to CSF-ICE 
  Pauline Colinet        : FMM embedding                                 
  Dipayan Datta          : RHF DLPNO-CCSD density                        
  Achintya Kumar Dutta   : EOM-CC, STEOM-CC                              
  Nicolas Foglia         : Exact transition moments, OPA infrastructure, MCD improvements    
  Dmitry Ganyushin       : Spin-Orbit,Spin-Spin,Magnetic field MRCI      
  Miquel Garcia-Rates    : C-PCM and meta-GGA Hessian, CCSD/C-PCM, Gaussian charge scheme 
  Tiago L. C. Gouveia    : GS-ROHF, GS-ROCIS                             
  Yang Guo               : DLPNO-NEVPT2, F12-NEVPT2, CIM, IAO-localization        
  Andreas Hansen         : Spin unrestricted coupled pair/coupled cluster methods 
  Ingolf Harden          : AUTO-CI MPn and infrastructure                
  Benjamin Helmich-Paris : MC-RPA, TRAH-(SCF,CASSCF), AVAS, COSX integrals, SCF dyn. polar. 
  Lee Huntington         : MR-EOM, pCC                                   
  Robert Izsak           : Overlap fitted RIJCOSX, COSX-SCS-MP3, EOM     
  Riya Kayal             : Wick's Theorem for AUTO-CI, AUTO-CI UHF-CCSDT 
  Emily Kempfer          : AUTO-CI, RHF CISDT and CCSDT                  
  Christian Kollmar      : KDIIS, OOCD, Brueckner-CCSD(T), CCSD density, CASPT2, CASPT2-K, improved NEVPT2 
  Axel Koslowski         : Symmetry handling                             
  Simone Kossmann        : meta-GGA functionals, TD-DFT gradient, OOMP2, (MP2 Hessian; deprecated post 5.0) 
  Lucas Lang             : DCDCAS                                        
  Marvin Lechner         : AUTO-CI (C++ implementation), FIC-MRCC        
  Spencer Leger          : CASSCF response                               
  Dagmar Lenk            : GEPOL surface, SMD, ORCA-2-JSON               
  Dimitrios Liakos       : Extrapolation schemes; Compound Job, initial MDCI parallelization 
  Dimitrios Manganas     : Further ROCIS development; embedding schemes. LFT, Crystal Embedding 
  Dimitrios Pantazis     : SARC Basis sets                               
  Anastasios Papadopoulos: AUTO-CI, single reference methods and gradients 
  Taras Petrenko         : pre 6.0 DFT Hessian and TD-DFT gradient, (ASA, deprecated), ECA, 1-Electron XAS/XES, NRVS 
  Peter Pinski           : DLPNO-MP2, DLPNO-MP2 Gradient                 
  Christoph Reimann      : Effective Core Potentials                     
  Marius Retegan         : Local ZFS, SOC                                
  Christoph Riplinger    : Optimizer, TS searches, QM/MM, DLPNO-CCSD(T), (RO)-DLPNO pert. Triples 
  Michael Roemelt        : Original ROCIS implementation                 
  Masaaki Saitow         : Open-shell DLPNO-CCSD energy and density      
  Barbara Sandhoefer     : DKH picture change effects                    
  Kantharuban Sivalingam : CASSCF convergence/infrastructure, NEVPT2 and variants, FIC-MRCI 
  Bernardo de Souza      : ESD, SOC TD-DFT                               
  Georgi L. Stoychev     : AutoAux, RI-MP2 NMR, DLPNO-MP2 response, X2C  
  Van Anh Tran           : RI-MP2 g-tensors                              
  Willem Van den Heuvel  : Paramagnetic NMR                              
  Zikuan Wang            : NOTCH, Electric field optimization            
  Frank Wennmohs         : Technical directorship and infrastructure     
  Hang Xu                : AUTO-CI-Response properties                   
                                                                         
[FACCTs GmbH]                                                            
  Markus Bursch, Miquel Garcia-Rates, Christoph Riplinger, Bernardo de Souza, Georgi L. Stoychev 
                                                                 
  APM, Basis sets (HGBS, AHGBS, def-TZVP (Ac-Lr), def2-XVPD (La-Lu)), CI-OPT, improved COSX, DLPNO-Multilevel,           
  DOCKER, DRACO, updates on ESD, GOAT, IRC, LR-CPCM, MBIS, meta-GGA TD-DFT gradient, ML-optimized integration grids, 
  MM, NACMEs, nearIR, NEB, NEB-TS, NL-DFT gradient (VV10), 2- and 3-layer-ONIOM, interface openCOSMO-RS, QMMM,   
  Crystal-QMMM, SF, symmetry and pop. for TD-DFT, r2SCAN hybrids, SOLVATOR                                   
                                                                         
[Other institutions]                                                     
  V. Asgeirsson          : NEB                                           
  Christoph Bannwarth    : sTDA-DFT, sTD-DFT, PBEh-3c, B97-3c, D3        
  Sebastian Ehlert       : rSCAN, r2SCAN, r2SCAN-3c, D4, dhf basis sets  
  Marvin Friede          : D4 for Fr, Ra, Ac-Lr                          
  Lars Goerigk           : TD-DFT with DH, B97 family of functionals     
  Stefan Grimme          : VdW corrections, initial TS optimization, DFT functionals, gCP, sTDA/sTD-DF 
  Waldemar Hujo          : DFT-NL                                        
  H. Jonsson             : NEB                                           
  Holger Kruse           : gCP                                           
  Marcel Mueller         : wB97X-3c, vDZP basis set                      
  Hagen Neugebauer       : wr2SCAN                                       
  Tobias Risthaus        : range-separated hybrid DFT                    
  Lukas Wittmann         : regularized MP2, r2SCAN double-hybrids, wr2SCAN        
                                                                         
We gratefully acknowledge several colleagues who have allowed us to      
interface, adapt or use parts of their codes:                            
  Ed Valeev, F. Pavosevic, A. Kumar             : LibInt (2-el integral package), F12 methods 
  Garnet Chan, S. Sharma, J. Yang, R. Olivares  : DMRG                   
  Ulf Ekstrom                                   : XCFun DFT Library      
  Mihaly Kallay                                 : mrcc  (arbitrary order and MRCC methods)
  Frank Weinhold                                : gennbo (NPA and NBO analysis)           
  Simon Mueller                                 : openCOSMO-RS                            
  Christopher J. Cramer and Donald G. Truhlar   : smd solvation model                     
  S Lehtola, MJT Oliveira, MAL Marques          : LibXC Library                           
  Liviu Ungur et al                             : ANISO software                          


 Your calculation uses the libint2 library for the computation of 2-el integrals
 For citations please refer to: http://libint.valeyev.net

 Your ORCA version has been built with support for libXC version: 6.2.2
 For citations please refer to: https://libxc.gitlab.io

 This ORCA versions uses:
   CBLAS   interface :  Fast vector & matrix operations
   LAPACKE interface :  Fast linear algebra routines
   SCALAPACK package :  Parallel linear algebra routines
   Shared memory     :  Shared parallel matrices
   BLAS/LAPACK       :  OpenBLAS 0.3.27  USE64BITINT DYNAMIC_ARCH NO_AFFINITY Zen SINGLE_THREADED
        Core in use  :  Zen
   Copyright (c) 2011-2014, The OpenBLAS Project




***************************************
The coordinates will be read from file: xtb_opt.xyz
***************************************


Your calculation utilizes the geometrical counterpoise correction gCP
Please cite in your paper:
H.Kruse, S. Grimme J.Chem.Phys., 136, (2012), 154101 
   

Your calculation utilizes the atom-pairwise dispersion correction
based on EEQ partial charges (D4)


================================================================================

----- Orbital basis set information -----
Your calculation utilizes the basis: def2-mTZVPP
   Stefan Grimme, Andreas Hansen, Sebastian Ehlert, and Jan-Michael Mewes 
   J. Chem. Phys. 154, 064103 (2021). DOI: 10.1063/5.0040021

----- AuxJ basis set information -----
Your calculation utilizes the auxiliary basis: def2/J
   F. Weigend, Phys. Chem. Chem. Phys. 8, 1057 (2006).

================================================================================
                                        WARNINGS
                       Please study these warnings very carefully!
================================================================================

WARNING: Old DensityContainer found on disk!
         Will remove this file - 
         If you want to keep old densities, please start your calculation with a different basename. 



WARNING: SCAN, rSCAN, or r2SCAN functional requested.
  ===> : libXC variant has now been activated.



================================================================================
                                       INPUT FILE
================================================================================
NAME = xtb_opt.inp
|  1> ! r2scan-3c def2/J RI DEFGRID2 scfconv7 ENGRAD tightSCF miniprint
|  2> * xyzfile 0 1 xtb_opt.xyz
|  3> 
|  4>                          ****END OF INPUT****
================================================================================

                     *******************************
                     * Energy+Gradient Calculation *
                     *******************************

---------------------------------
CARTESIAN COORDINATES (ANGSTROEM)
---------------------------------
  C      0.711804   -0.000122   -1.144815
  C     -0.375209   -0.000105   -0.071773
  Cl    -1.943682   -0.000336   -0.948681
  Cl    -0.273197   -1.467757    0.939914
  Cl    -0.273370    1.468022    0.939582
  Cl     2.378767    0.000076   -0.487866
  H      0.592592    0.892572   -1.763793
  H      0.592701   -0.892954   -1.763602

----------------------------
CARTESIAN COORDINATES (A.U.)
----------------------------
  NO LB      ZA    FRAG     MASS         X           Y           Z
   0 C     6.0000    0    12.011    1.345115   -0.000231   -2.163387
   1 C     6.0000    0    12.011   -0.709043   -0.000198   -0.135631
   2 Cl   17.0000    0    35.453   -3.673026   -0.000636   -1.792747
   3 Cl   17.0000    0    35.453   -0.516268   -2.773658    1.776181
   4 Cl   17.0000    0    35.453   -0.516594    2.774160    1.775552
   5 Cl   17.0000    0    35.453    4.495219    0.000143   -0.921934
   6 H     1.0000    0     1.008    1.119836    1.686718   -3.333086
   7 H     1.0000    0     1.008    1.120043   -1.687439   -3.332725

------------------------------------------------------------------------------
                   ___                                                        
                  /   \      - P O W E R E D   B Y -                         
                 /     \                                                     
                 |  |  |   _    _      __       _____    __    __             
                 |  |  |  | |  | |    /  \     |  _  \  |  |  /  |          
                  \  \/   | |  | |   /    \    | | | |  |  | /  /          
                 / \  \   | |__| |  /  /\  \   | |_| |  |  |/  /          
                |  |  |   |  __  | /  /__\  \  |    /   |      \           
                |  |  |   | |  | | |   __   |  |    \   |  |\   \          
                \     /   | |  | | |  |  |  |  | |\  \  |  | \   \       
                 \___/    |_|  |_| |__|  |__|  |_| \__\ |__|  \__/        
                                                                              
                      - O R C A' S   B I G   F R I E N D -                    
                                      &                                       
                       - I N T E G R A L  F E E D E R -                       
                                                                              
 v1 FN, 2020, v2 2021, v3 2022-2024                                           
------------------------------------------------------------------------------


----------------------
SHARK INTEGRAL PACKAGE
----------------------

Number of atoms                             ...      8
Number of basis functions                   ...    156
Number of shells                            ...     68
Maximum angular momentum                    ...      2
Integral batch strategy                     ... SHARK/LIBINT Hybrid
RI-J (if used) integral strategy            ... SPLIT-RIJ (Revised 2003 algorithm where possible)
Printlevel                                  ...      1
Contraction scheme used                     ... SEGMENTED contraction
Prescreening option                         ... SCHWARTZ
   Thresh                                   ... 3.000e-11
   Tcut                                     ... 1.000e-12
   Tpresel                                  ... 1.000e-12 
Coulomb Range Separation                    ... NOT USED
Exchange Range Separation                   ... NOT USED
Multipole approximations                    ... NOT USED
Finite Nucleus Model                        ... NOT USED
CABS basis                                  ... NOT available
Auxiliary Coulomb fitting basis             ... AVAILABLE
   # of basis functions in Aux-J            ...    324
   # of shells in Aux-J                     ...    108
   Maximum angular momentum in Aux-J        ...      4
Auxiliary J/K fitting basis                 ... NOT available
Auxiliary Correlation fitting basis         ... NOT available
Auxiliary 'external' fitting basis          ... NOT available

Checking pre-screening integrals            ... done (  0.0 sec) Dimension = 68
Check shell pair data                       ... done (  0.0 sec)
Shell pair information
Shell pair cut-off parameter TPreSel        ...   1.0e-12
Total number of shell pairs                 ...      2346
Shell pairs after pre-screening             ...      2143
Total number of primitive shell pairs       ...     10941
Primitive shell pairs kept                  ...      6845
          la=0 lb=0:    494 shell pairs
          la=1 lb=0:    741 shell pairs
          la=1 lb=1:    285 shell pairs
          la=2 lb=0:    330 shell pairs
          la=2 lb=1:    238 shell pairs
          la=2 lb=2:     55 shell pairs

Calculating one electron integrals          ... done (  0.0 sec)
Calculating RI/J V-Matrix + Cholesky decomp.... done (  0.0 sec)
Calculating Nuclear repulsion               ... done (  0.0 sec) ENN=    529.794179487730 Eh

Diagonalization of the overlap matrix:
Smallest eigenvalue                        ... 5.930e-04
Time for diagonalization                   ...    0.001 sec
Threshold for overlap eigenvalues          ... 1.000e-07
Number of eigenvalues below threshold      ... 0
Time for construction of square roots      ...    0.000 sec
Total time needed                          ...    0.003 sec

-------------------
DFT GRID GENERATION
-------------------

General Integration Accuracy     IntAcc      ... 4.388
Radial Grid Type                 RadialGrid  ... OptM3 with GC (2021)
Angular Grid (max. ang.)         AngularGrid ... 4 (Lebedev-302)
Angular grid pruning method      GridPruning ... 4 (adaptive)
Weight generation scheme         WeightScheme... mBecke (2022)
Basis function cutoff            BFCut       ... 1.0000e-11
Integration weight cutoff        WCut        ... 1.0000e-14
Partially contracted basis set               ... off
Rotationally invariant grid construction     ... off
Angular grids for H and He will be reduced by one unit

Total number of grid points                  ...    47909
Total number of batches                      ...      752
Average number of points per batch           ...       63
Average number of grid points per atom       ...     5989
Initializing property integral containers    ... done (  0.0 sec)

SHARK setup successfully completed in   0.3 seconds

Maximum memory used throughout the entire STARTUP-calculation: 23.1 MB
Occupation numbers will be reassigned to an Aufbau configuration
             **** ENERGY FILE WAS UPDATED (xtb_opt.en.tmp) ****
Finished Guess after   0.0 sec
Maximum memory used throughout the entire GUESS-calculation: 11.3 MB
----------------------------------------D-I-I-S--------------------------------------------
Iteration    Energy (Eh)           Delta-E    RMSDP     MaxDP     DIISErr   Damp  Time(sec)
-------------------------------------------------------------------------------------------
               ***  Starting incremental Fock matrix formation  ***
    1    -1918.0982022970770231     0.00e+00  1.95e-04  2.90e-03  1.41e-02  0.700   0.5
    2    -1918.0988414695593747    -6.39e-04  1.93e-04  3.38e-03  1.06e-02  0.700   0.5
                               ***Turning on AO-DIIS***
    3    -1918.0993321676651249    -4.91e-04  1.53e-04  3.02e-03  7.51e-03  0.700   0.5
    4    -1918.0996753579793221    -3.43e-04  3.83e-04  7.90e-03  5.61e-03  0.000   0.4
                              *** Initializing SOSCF ***
---------------------------------------S-O-S-C-F--------------------------------------
Iteration    Energy (Eh)           Delta-E    RMSDP     MaxDP     MaxGrad    Time(sec)
--------------------------------------------------------------------------------------
    5    -1918.1004910013007247    -8.16e-04  2.63e-05  4.50e-04  5.73e-04     0.5
               *** Restarting incremental Fock matrix formation ***
    6    -1918.1004928588731673    -1.86e-06  2.12e-05  3.20e-04  1.50e-04     0.5
    7    -1918.1004916941242300     1.16e-06  1.33e-05  2.72e-04  3.39e-04     0.4
    8    -1918.1004933823210195    -1.69e-06  4.25e-06  6.47e-05  2.53e-05     0.4
    9    -1918.1004933605981932     2.17e-08  2.21e-06  3.62e-05  4.16e-05     0.4
                 **** Energy Check signals convergence ****

               *****************************************************
               *                     SUCCESS                       *
               *           SCF CONVERGED AFTER   9 CYCLES          *
               *****************************************************

             **** ENERGY FILE WAS UPDATED (xtb_opt.en.tmp) ****

----------------
TOTAL SCF ENERGY
----------------

Total Energy       :      -1918.10049336059819 Eh          -52194.16792 eV

Components:
Nuclear Repulsion  :        529.79417948772959 Eh           14416.43254 eV
Electronic Energy  :      -2447.89467284832790 Eh          -66610.60047 eV
One Electron Energy:      -3700.80866696398971 Eh         -100704.12353 eV
Two Electron Energy:       1252.91399411566181 Eh           34093.52306 eV

Virial components:
Potential Energy   :      -3831.55600451914006 Eh         -104261.93946 eV
Kinetic Energy     :       1913.45551115854187 Eh           52067.77153 eV
Virial Ratio       :          2.00242753603361

DFT components:
N(Alpha)           :       40.999976549854 electrons
N(Beta)            :       40.999976549854 electrons
N(Total)           :       81.999953099708 electrons
E(X)               :     -121.278969059355 Eh       
E(C)               :       -3.109337322857 Eh       
E(XC)              :     -124.388306382212 Eh       

---------------
SCF CONVERGENCE
---------------

  Last Energy change         ...   -2.1723e-08  Tolerance :   1.0000e-07
  Last MAX-Density change    ...    3.6165e-05  Tolerance :   1.0000e-07
  Last RMS-Density change    ...    2.2095e-06  Tolerance :   5.0000e-09
  Last DIIS Error            ...    5.7298e-04  Tolerance :   1.0000e-07
  Last Orbital Gradient      ...    4.1593e-05  Tolerance :   1.0000e-04
  Last Orbital Rotation      ...    2.9444e-05  Tolerance :   1.0000e-04


----------------
ORBITAL ENERGIES
----------------

  NO   OCC          E(Eh)            E(eV) 
   0   2.0000    -101.249152     -2755.1295 
   1   2.0000    -101.245031     -2755.0174 
   2   2.0000    -101.245009     -2755.0168 
   3   2.0000    -101.229296     -2754.5892 
   4   2.0000     -10.245126      -278.7841 
   5   2.0000     -10.137636      -275.8591 
   6   2.0000      -9.404823      -255.9182 
   7   2.0000      -9.400710      -255.8063 
   8   2.0000      -9.400686      -255.8057 
   9   2.0000      -9.384665      -255.3697 
  10   2.0000      -7.151816      -194.6108 
  11   2.0000      -7.147832      -194.5024 
  12   2.0000      -7.147808      -194.5017 
  13   2.0000      -7.140573      -194.3049 
  14   2.0000      -7.140465      -194.3019 
  15   2.0000      -7.136425      -194.1920 
  16   2.0000      -7.136402      -194.1914 
  17   2.0000      -7.136240      -194.1870 
  18   2.0000      -7.136216      -194.1863 
  19   2.0000      -7.131512      -194.0583 
  20   2.0000      -7.120639      -193.7624 
  21   2.0000      -7.120253      -193.7519 
  22   2.0000      -0.929767       -25.3002 
  23   2.0000      -0.836294       -22.7567 
  24   2.0000      -0.812189       -22.1008 
  25   2.0000      -0.811638       -22.0858 
  26   2.0000      -0.702143       -19.1063 
  27   2.0000      -0.583670       -15.8825 
  28   2.0000      -0.492639       -13.4054 
  29   2.0000      -0.480436       -13.0733 
  30   2.0000      -0.465999       -12.6805 
  31   2.0000      -0.422126       -11.4866 
  32   2.0000      -0.408800       -11.1240 
  33   2.0000      -0.338096        -9.2001 
  34   2.0000      -0.335650        -9.1335 
  35   2.0000      -0.319686        -8.6991 
  36   2.0000      -0.306152        -8.3308 
  37   2.0000      -0.303063        -8.2468 
  38   2.0000      -0.292597        -7.9620 
  39   2.0000      -0.292491        -7.9591 
  40   2.0000      -0.286245        -7.7891 
  41   0.0000      -0.075102        -2.0436 
  42   0.0000      -0.053277        -1.4497 
  43   0.0000      -0.025654        -0.6981 
  44   0.0000       0.005046         0.1373 
  45   0.0000       0.080599         2.1932 
  46   0.0000       0.098195         2.6720 
  47   0.0000       0.135581         3.6894 
  48   0.0000       0.171877         4.6770 
  49   0.0000       0.176553         4.8043 
  50   0.0000       0.193456         5.2642 
  51   0.0000       0.202453         5.5090 
*Only the first 10 virtual orbitals were printed.
Total SCF time: 0 days 0 hours 0 min 4 sec 
Finished LeanSCF after   4.2 sec

Maximum memory used throughout the entire LEANSCF-calculation: 15.5 MB


-------------------------------------------------------------------------------
                          DFT DISPERSION CORRECTION                            
                                                                               
                                DFTD4 V3.4.0                                   
-------------------------------------------------------------------------------
-------------------------   ----------------
Dispersion correction           -0.003315567
-------------------------   ----------------

------------------   -----------------
gCP correction             0.009595686
------------------   -----------------

-------------------------   --------------------
FINAL SINGLE POINT ENERGY     -1918.094213241496
-------------------------   --------------------

------------------------------------------------------------------------------
                         ORCA SCF GRADIENT CALCULATION
------------------------------------------------------------------------------

Nuc. rep. gradient        (SHARK) ... done (  0.0 sec)
HCore & Overlap gradient  (SHARK) ... done (  0.0 sec)
Split-RIJ-J gradient      (SHARK) ... done (  0.5 sec)
XC gradient                       ... done (  1.3 sec)
Dispersion correction             ... done (  0.0 sec)

-------------------
DISPERSION GRADIENT
-------------------

   1   C   :    0.000007527   -0.000000003   -0.000020773
   2   C   :   -0.000005095    0.000000005    0.000002784
   3   Cl  :   -0.000097625   -0.000000014   -0.000032267
   4   Cl  :   -0.000022939   -0.000067694    0.000056250
   5   Cl  :   -0.000022949    0.000067706    0.000056234
   6   Cl  :    0.000115974    0.000000004   -0.000021772
   7   H   :    0.000012553    0.000011958   -0.000020229
   8   H   :    0.000012554   -0.000011961   -0.000020226

Difference to translation invariance:
           :   -0.0000000000   -0.0000000000   -0.0000000000

Difference to rotation invariance:
           :    0.0000000000   -0.0000000000    0.0000000000

Norm of the Dispersion gradient    ...    0.0002073231
RMS gradient                       ...    0.0000423196
MAX gradient                       ...    0.0001159741
gCP correction                   ... done

------------------
CARTESIAN GRADIENT
------------------

   1   C   :    0.001054337   -0.000005868    0.004933716
   2   C   :   -0.003909299   -0.000035770    0.000669335
   3   Cl  :    0.003466838   -0.000004420    0.002429226
   4   Cl  :   -0.000374801    0.000728325   -0.002183345
   5   Cl  :   -0.000367034   -0.000688836   -0.002151913
   6   Cl  :   -0.000401695    0.000001205   -0.001753461
   7   H   :    0.000267291   -0.000153672   -0.000973721
   8   H   :    0.000264363    0.000159036   -0.000969839

Difference to translation invariance:
           :    0.0000000000    0.0000000000    0.0000000000

Difference to rotation invariance:
           :    0.0000000761   -0.0001041191    0.0000006241

Norm of the Cartesian gradient     ...    0.0086659136
RMS gradient                       ...    0.0017689222
MAX gradient                       ...    0.0049337164

-------
TIMINGS
-------

Total SCF gradient time     ....        1.865 sec

Densities                   ....       0.000 sec  (  0.0%)
One electron gradient       ....       0.050 sec  (  2.7%)
RI-J Coulomb gradient       ....       0.486 sec  ( 26.1%)
XC gradient                 ....       1.309 sec  ( 70.2%)

Maximum memory used throughout the entire SCFGRAD-calculation: 31.3 MB

------------------------------------------------------------------------------
                              ORCA PROPERTY CALCULATIONS
------------------------------------------------------------------------------

GBWName                                 ... xtb_opt.gbw
Number of atoms                         ...      8
Number of basis functions               ...    156
Max core memory                         ...   1024 MB

Electric properties:
Dipole moment                           ... YES
Quadrupole moment                       ...  NO
Static polarizability (Dipole/Dipole)   ...  NO
Static polarizability (Dipole/Quad.)    ...  NO
Static polarizability (Quad./Quad.)     ...  NO
Static polarizability (Velocity)        ...  NO

Atomic electric properties:
Dipole moment                           ...  NO
Quadrupole moment                       ...  NO
Static polarizability                   ...  NO

Choice of electric origin               ... Center of mass
Position of electric origin             ...     0.014470    -0.000033    -0.027743

General magnetic properties:
Magnetizability                         ...  NO

EPR properties:
g-Tensor (aka g-matrix)                 ...  NO
Zero-Field splitting spin-orbit         ...  NO
Zero-field splitting spin-spin          ...  NO
Hyperfine couplings                     ...  NO (   0 nuclei)
Quadrupole couplings                    ...  NO (   0 nuclei)
Contact density                         ...  NO (   0 nuclei)

NMR properties:
Chemical shifts                         ...  NO (   0 nuclei)
Spin-rotation constants                 ...  NO (   0 nuclei)
Spin-spin couplings                     ...  NO (   0 nuclei,    0 pairs)

Choice of magnetic origin               ... GIAO
Position of magnetic origin             ...     0.000000     0.000000     0.000000

Properties with geometric perturbations:
SCF Hessian                             ...  NO
IR spectrum                             ...  NO
VCD spectrum                            ...  NO
X-ray spectroscopy properties:
SCF XES/XAS/RIXS spectra                ...  NO


-------------
DIPOLE MOMENT
-------------

Method             : SCF
Type of density    : Electron Density
Multiplicity       :   1
Irrep              :   0
Energy             : -1918.1004933605981932 Eh
Relativity type    : 
Basis              : AO
                                X                 Y                 Z
Electronic contribution:     -1.411630474       0.000096030       3.388430908
Nuclear contribution   :      1.288388015      -0.000426198      -3.955120990
                        -----------------------------------------
Total Dipole Moment    :     -0.123242459      -0.000330168      -0.566690083
                        -----------------------------------------
Magnitude (a.u.)       :      0.579936602
Magnitude (Debye)      :      1.474081696



--------------------
Rotational spectrum 
--------------------
 
Rotational constants in cm-1:             0.060367             0.035615             0.033525 
Rotational constants in MHz :          1809.748082          1067.725813          1005.040112 

Dipole components along the rotational axes: 
x,y,z [a.u.] :    -0.109176    -0.000402     0.569567 
x,y,z [Debye]:    -0.277504    -0.001021     1.447725 

 

Dipole moment calculation done in   0.0 sec 

Maximum memory used throughout the entire PROP-calculation: 9.6 MB

--------------------------------
SUGGESTED CITATIONS FOR THIS RUN
--------------------------------

Below you find a list of papers that are relevant to this ORCA run
We neither can nor want to force you to cite these papers, but we appreciate if you do
You receive ORCA, which is the product of decades of hard work by many enthusiastic individuals, for free
The only thing we kindly ask in return is that you cite our papers,
We deeply appreciate it, if you show your appreciation for ORCA by not just citing the generic ORCA reference.

Please note that relegating all ORCA citations to the supporting information does *not* help us.
SI sections are not indexed - citations you put there will not count into any citation statistics
But we need these citations in order to attract the funding resources that allow us to do what we are doing

Therefore, if you are a happy ORCA user, please consider citing a few of the papers listed below in the main body of your paper

In addition to the list printed below, the program has created the file xtb_opt.bibtex that contains the list in bibtex format
You can import this file easily into all common literature databanks and citation aid programs


[...]
--------------------------------------------------------------------------------------
    1    -1918.1005551571861361     0.00e+00  3.44e-06  5.36e-05  1.91e-05     0.5
               *** Restarting incremental Fock matrix formation ***
    2    -1918.1005551647940592    -7.61e-09  5.49e-06  1.19e-04  4.55e-05     0.5
    3    -1918.1005550416157348     1.23e-07  3.84e-06  8.66e-05  1.13e-04     0.4
    4    -1918.1005551983007535    -1.57e-07  3.05e-07  4.55e-06  2.02e-06     0.4
                  *** Gradient check signals convergence ***

               *****************************************************
               *                     SUCCESS                       *
               *           SCF CONVERGED AFTER   4 CYCLES          *
               *****************************************************

             **** ENERGY FILE WAS UPDATED (xtb_opt.en.tmp) ****

----------------
TOTAL SCF ENERGY
----------------

Total Energy       :      -1918.10055519830075 Eh          -52194.16961 eV

Components:
Nuclear Repulsion  :        529.10541632817421 Eh           14397.69034 eV
Electronic Energy  :      -2447.20597152647497 Eh          -66591.85995 eV
One Electron Energy:      -3699.44855992721341 Eh         -100667.11313 eV
Two Electron Energy:       1252.24258840073867 Eh           34075.25318 eV

Virial components:
Potential Energy   :      -3831.52424619501562 Eh         -104261.07527 eV
Kinetic Energy     :       1913.42369099671464 Eh           52066.90566 eV
Virial Ratio       :          2.00244423868252

DFT components:
N(Alpha)           :       40.999977864805 electrons
N(Beta)            :       40.999977864805 electrons
N(Total)           :       81.999955729610 electrons
E(X)               :     -121.271940749859 Eh       
E(C)               :       -3.108610241693 Eh       
E(XC)              :     -124.380550991552 Eh       

---------------
SCF CONVERGENCE
---------------

  Last Energy change         ...    1.5669e-07  Tolerance :   1.0000e-07
  Last MAX-Density change    ...    4.5549e-06  Tolerance :   1.0000e-07
  Last RMS-Density change    ...    3.0532e-07  Tolerance :   5.0000e-09
  Last DIIS Error            ...    5.2115e-05  Tolerance :   1.0000e-07
  Last Orbital Gradient      ...    2.0238e-06  Tolerance :   1.0000e-04
  Last Orbital Rotation      ...    3.2936e-06  Tolerance :   1.0000e-04


----------------
ORBITAL ENERGIES
----------------

  NO   OCC          E(Eh)            E(eV) 
   0   2.0000    -101.248568     -2755.1136 
   1   2.0000    -101.245298     -2755.0246 
   2   2.0000    -101.245295     -2755.0245 
   3   2.0000    -101.229351     -2754.5907 
   4   2.0000     -10.246187      -278.8129 
   5   2.0000     -10.138543      -275.8838 
   6   2.0000      -9.404026      -255.8966 
   7   2.0000      -9.400875      -255.8108 
   8   2.0000      -9.400873      -255.8108 
   9   2.0000      -9.384679      -255.3701 
  10   2.0000      -7.151037      -194.5896 
  11   2.0000      -7.148019      -194.5075 
  12   2.0000      -7.148017      -194.5074 
  13   2.0000      -7.139787      -194.2835 
  14   2.0000      -7.139698      -194.2811 
  15   2.0000      -7.136580      -194.1962 
  16   2.0000      -7.136578      -194.1962 
  17   2.0000      -7.136418      -194.1918 
  18   2.0000      -7.136416      -194.1918 
  19   2.0000      -7.131535      -194.0589 
  20   2.0000      -7.120648      -193.7627 
  21   2.0000      -7.120277      -193.7526 
  22   2.0000      -0.927670       -25.2432 
  23   2.0000      -0.835403       -22.7325 
  24   2.0000      -0.811202       -22.0739 
  25   2.0000      -0.810742       -22.0614 
  26   2.0000      -0.702873       -19.1262 
  27   2.0000      -0.583646       -15.8818 
  28   2.0000      -0.492987       -13.4149 
  29   2.0000      -0.479283       -13.0420 
  30   2.0000      -0.465405       -12.6643 
  31   2.0000      -0.422184       -11.4882 
  32   2.0000      -0.408196       -11.1076 
  33   2.0000      -0.337268        -9.1775 
  34   2.0000      -0.335614        -9.1325 
  35   2.0000      -0.319372        -8.6906 
  36   2.0000      -0.306678        -8.3451 
  37   2.0000      -0.302844        -8.2408 
  38   2.0000      -0.292662        -7.9637 
  39   2.0000      -0.292480        -7.9588 
  40   2.0000      -0.286444        -7.7945 
  41   0.0000      -0.077553        -2.1103 
  42   0.0000      -0.055381        -1.5070 
  43   0.0000      -0.027553        -0.7498 
  44   0.0000       0.003278         0.0892 
  45   0.0000       0.080879         2.2008 
  46   0.0000       0.097500         2.6531 
  47   0.0000       0.136547         3.7156 
  48   0.0000       0.171207         4.6588 
  49   0.0000       0.176505         4.8030 
  50   0.0000       0.193211         5.2575 
  51   0.0000       0.202627         5.5138 
*Only the first 10 virtual orbitals were printed.
Total SCF time: 0 days 0 hours 0 min 1 sec 
Finished LeanSCF after   1.9 sec

Maximum memory used throughout the entire LEANSCF-calculation: 15.5 MB


-------------------------------------------------------------------------------
                          DFT DISPERSION CORRECTION                            
                                                                               
                                DFTD4 V3.4.0                                   
-------------------------------------------------------------------------------
-------------------------   ----------------
Dispersion correction           -0.003314397
-------------------------   ----------------

------------------   -----------------
gCP correction             0.009502380
------------------   -----------------

-------------------------   --------------------
FINAL SINGLE POINT ENERGY     -1918.094367215474
-------------------------   --------------------

------------------------------------------------------------------------------
                         ORCA SCF GRADIENT CALCULATION
------------------------------------------------------------------------------

Nuc. rep. gradient        (SHARK) ... done (  0.0 sec)
HCore & Overlap gradient  (SHARK) ... done (  0.0 sec)
Split-RIJ-J gradient      (SHARK) ... done (  0.5 sec)
XC gradient                       ... done (  1.3 sec)
Dispersion correction             ... done (  0.0 sec)

-------------------
DISPERSION GRADIENT
-------------------

   1   C   :    0.000007453   -0.000000002   -0.000020917
   2   C   :   -0.000004488    0.000000000    0.000002504
   3   Cl  :   -0.000097376   -0.000000012   -0.000032588
   4   Cl  :   -0.000022490   -0.000067385    0.000056446
   5   Cl  :   -0.000022500    0.000067397    0.000056428
   6   Cl  :    0.000114368    0.000000005   -0.000021121
   7   H   :    0.000012515    0.000011902   -0.000020377
   8   H   :    0.000012517   -0.000011905   -0.000020374

Difference to translation invariance:
           :   -0.0000000000    0.0000000000   -0.0000000000

Difference to rotation invariance:
           :    0.0000000000   -0.0000000000   -0.0000000000

Norm of the Dispersion gradient    ...    0.0002061116
RMS gradient                       ...    0.0000420724
MAX gradient                       ...    0.0001143683
gCP correction                   ... done

------------------
CARTESIAN GRADIENT
------------------

   1   C   :    0.000044325   -0.000000048    0.000054659
   2   C   :   -0.000141790   -0.000003278   -0.000256497
   3   Cl  :    0.000016795    0.000000188    0.000048469
   4   Cl  :    0.000006313   -0.000141063    0.000091941
   5   Cl  :    0.000006330    0.000143821    0.000093420
   6   Cl  :    0.000004968   -0.000000014   -0.000035651
   7   H   :    0.000031604   -0.000019042    0.000001797
   8   H   :    0.000031455    0.000019436    0.000001861

Difference to translation invariance:
           :   -0.0000000000    0.0000000000    0.0000000000

Difference to rotation invariance:
           :    0.0000002249   -0.0001233316    0.0000001830

Norm of the Cartesian gradient     ...    0.0003941628
RMS gradient                       ...    0.0000804581
MAX gradient                       ...    0.0002564973

-------
TIMINGS
-------

Total SCF gradient time     ....        1.905 sec

Densities                   ....       0.000 sec  (  0.0%)
One electron gradient       ....       0.050 sec  (  2.6%)
RI-J Coulomb gradient       ....       0.490 sec  ( 25.7%)
XC gradient                 ....       1.344 sec  ( 70.6%)

Maximum memory used throughout the entire SCFGRAD-calculation: 31.3 MB

------------------------------------------------------------------------------
                              ORCA PROPERTY CALCULATIONS
------------------------------------------------------------------------------

GBWName                                 ... xtb_opt.gbw
Number of atoms                         ...      8
Number of basis functions               ...    156
Max core memory                         ...   1024 MB

Electric properties:
Dipole moment                           ... YES
Quadrupole moment                       ...  NO
Static polarizability (Dipole/Dipole)   ...  NO
Static polarizability (Dipole/Quad.)    ...  NO
Static polarizability (Quad./Quad.)     ...  NO
Static polarizability (Velocity)        ...  NO

Atomic electric properties:
Dipole moment                           ...  NO
Quadrupole moment                       ...  NO
Static polarizability                   ...  NO

Choice of electric origin               ... Center of mass
Position of electric origin             ...     0.014511    -0.000039    -0.022419

General magnetic properties:
Magnetizability                         ...  NO

EPR properties:
g-Tensor (aka g-matrix)                 ...  NO
Zero-Field splitting spin-orbit         ...  NO
Zero-field splitting spin-spin          ...  NO
Hyperfine couplings                     ...  NO (   0 nuclei)
Quadrupole couplings                    ...  NO (   0 nuclei)
Contact density                         ...  NO (   0 nuclei)

NMR properties:
Chemical shifts                         ...  NO (   0 nuclei)
Spin-rotation constants                 ...  NO (   0 nuclei)
Spin-spin couplings                     ...  NO (   0 nuclei,    0 pairs)

Choice of magnetic origin               ... GIAO
Position of magnetic origin             ...     0.000000     0.000000     0.000000

Properties with geometric perturbations:
SCF Hessian                             ...  NO
IR spectrum                             ...  NO
VCD spectrum                            ...  NO
X-ray spectroscopy properties:
SCF XES/XAS/RIXS spectra                ...  NO


-------------
DIPOLE MOMENT
-------------

Method             : SCF
Type of density    : Electron Density
Multiplicity       :   1
Irrep              :   0
Energy             : -1918.1005551983007535 Eh
Relativity type    : 
Basis              : AO
                                X                 Y                 Z
Electronic contribution:     -1.394508962       0.000315542       3.406680611
Nuclear contribution   :      1.287369569      -0.000413776      -3.973777485
                        -----------------------------------------
Total Dipole Moment    :     -0.107139393      -0.000098234      -0.567096874
                        -----------------------------------------
Magnitude (a.u.)       :      0.577128862
Magnitude (Debye)      :      1.466944988



--------------------
Rotational spectrum 
--------------------
 
Rotational constants in cm-1:             0.060174             0.035515             0.033588 
Rotational constants in MHz :          1803.961443          1064.701428          1006.943317 

Dipole components along the rotational axes: 
x,y,z [a.u.] :    -0.097497     0.000024    -0.568834 
x,y,z [Debye]:    -0.247816     0.000061    -1.445861 

 

Dipole moment calculation done in   0.0 sec 

Maximum memory used throughout the entire PROP-calculation: 9.6 MB

--------------------------------
SUGGESTED CITATIONS FOR THIS RUN
--------------------------------

Below you find a list of papers that are relevant to this ORCA run
We neither can nor want to force you to cite these papers, but we appreciate if you do
You receive ORCA, which is the product of decades of hard work by many enthusiastic individuals, for free
The only thing we kindly ask in return is that you cite our papers,
We deeply appreciate it, if you show your appreciation for ORCA by not just citing the generic ORCA reference.

Please note that relegating all ORCA citations to the supporting information does *not* help us.
SI sections are not indexed - citations you put there will not count into any citation statistics
But we need these citations in order to attract the funding resources that allow us to do what we are doing

Therefore, if you are a happy ORCA user, please consider citing a few of the papers listed below in the main body of your paper

In addition to the list printed below, the program has created the file xtb_opt.bibtex that contains the list in bibtex format
You can import this file easily into all common literature databanks and citation aid programs


List of essential papers. We consider these as the minimum necessary citations

  1. Neese,F.
     Software update: the ORCA program system, version 5.0
     WIRES Comput. Molec. Sci., 2022 12(1)e1606
     doi.org/10.1002/wcms.1606
  2. Grimme,S.; Hansen,A.; Ehlert,S.; Mewes,J.
     r2SCAN-3c: A 'Swiss army knife' composite electronic-structure method
     J. Chem. Phys., 2021 154 064103
     doi.org/10.1063/5.0040021

List of papers to cite with high priority. The work reported in these papers was absolutely
necessary for this run to complete.
Our perspective: the developers of density functionals and basis sets usually get cited in chemistry papers
Good! But without the algorithms to do something with them, the functionals or basis sets would not do anything.
Hence, in our opinion, the algorithm design and method developments papers are equally worthy of getting cited

  1. Neese,F.
     An improvement of the resolution of the identity approximation for the formation of the Coulomb matrix
     J. Comp. Chem., 2003 24(14)1740-1747
     doi.org/10.1002/jcc.10318
  2. Neese,F.
     The SHARK Integral Generation and Digestion System
     J. Comp. Chem., 2022  1-16
     doi.org/10.1002/jcc.26942
  3. Lehtola,S.; Steigemann,C.; Oliveira,M.; Marques,M.
     Recent developments in Libxc - A comprehensive library of functionals for density functional theory
     Software X, 2018 7 
     doi.org/10.1016/j.softx.2017.11.002
  4. Caldeweyher,E.; Bannwarth,C.; Grimme,S.
     Extension of the D3 dispersion coefficient model
     J. Chem. Phys., 2017 147 034112
     doi.org/10.1063/1.4993215
  5. Caldeweyher,E.; Ehlert,S.; Hansen,A.; Neugebauer,H.; Spicher,S.; Bannwarth,C.; Grimme,S.
     A generally applicable atomic-charge dependent London dispersion correction
     J. Chem. Phys., 2019 150 154122
     doi.org/10.1063/1.5090222
  6. Caldeweyher,E.; Mewes,J.; Ehlert,S.; Grimme,S.
     Extension and evaluation of the D4 London-dispersion model for periodic systems
     Phys. Chem. Chem. Phys., 2020 22(16)8499-8512
     doi.org/10.1039/D0CP00502A
  7. Wittmann,L.; Gordiy,I.; Friede,M.; Helmich-Paris,B.; Grimme,S.; Hansen,A.; Bursch,M.
     Extension of the D3 and D4 London Dispersion Corrections to the full Actinides Series
     Phys. Chem. Chem. Phys., 2024 26(32)21379-21394
     doi.org/https://doi.org/10.1039/D4CP01514B 

List of suggested additional citations. These are papers that are important in the 'surrounding' of 
of this run, or papers that preceded the highly important papers. If you like your results we are grateful for a citation.

  1. Neese,F.
     The ORCA program system
     WIRES Comput. Molec. Sci., 2012 2(1)73-78
     doi.org/10.1002/wcms.81
  2. Neese,F.
     Software update: the ORCA program system, version 4.0
     WIRES Comput. Molec. Sci., 2018 8(1)1-6
     doi.org/10.1002/wcms.1327
  3. Neese,F.; Wennmohs,F.; Becker,U.; Riplinger,C.
     The ORCA quantum chemistry program package
     J. Chem. Phys., 2020 152 Art. No. L224108
     doi.org/10.1063/5.0004608

List of optional additional citations

  1. Neese,F.
     Approximate second-order SCF convergence for spin unrestricted wavefunctions
     Chem. Phys. Lett., 2000 325(1-3)93-98
     doi.org/10.1016/s0009-2614(00)00662-x

Timings for individual modules:

Sum of individual times          ...        4.233 sec (=   0.071 min)
Startup calculation              ...        0.271 sec (=   0.005 min)   6.4 %
SCF iterations                   ...        1.990 sec (=   0.033 min)  47.0 %
Property calculations            ...        0.032 sec (=   0.001 min)   0.8 %
SCF Gradient evaluation          ...        1.940 sec (=   0.032 min)  45.8 %
                             ****ORCA TERMINATED NORMALLY****
TOTAL RUN TIME: 0 days 0 hours 0 minutes 4 seconds 299 msec
  ------------------------------------------------------------------------
          * successful ORCA run, taking over control again...

         :::::::::::::::::::::::::::::::::::::::::::::::::::::
         ::                  ORCA SUMMARY                   ::
         :::::::::::::::::::::::::::::::::::::::::::::::::::::
         :: total energy           -1918.094367215474 Eh    ::
         :: gradient norm              0.000394162817 Eh/a0 ::
         :: HOMO-LUMO gap              0.000000000000 eV    ::
         :::::::::::::::::::::::::::::::::::::::::::::::::::::

           -------------------------------------------------
          |                Property Printout                |
           -------------------------------------------------
           -------------------------------------------------
          |                Geometry Summary                 |
           -------------------------------------------------

      molecular mass/u    :      167.8491036
   center of mass at/Å    :        0.0076778      -0.0000205      -0.0118607
  moments of inertia/u·Å² :        0.2801486E+03   0.4746662E+03   0.5018936E+03
rotational constants/cm⁻¹ :        0.6017389E-01   0.3551471E-01   0.3358806E-01

 * 7 selected distances

     #   Z          #   Z                                           value/Å
     1   6          2   6                                         1.5269937
     2   6          3  17                                         1.8096860 (max)
     2   6          4  17                                         1.7890837
     2   6          5  17                                         1.7890970
     1   6          6  17                                         1.7960048
     1   6          7   1                                         1.0917741
     1   6          8   1                                         1.0917737 (min)

 * 3 distinct bonds (by element types)

   Z      Z             #   av. dist./Å        max./Å        min./Å
   1 H    6 C           2     1.0917739     1.0917741     1.0917737
   6 C    6 C           1     1.5269937     1.5269937     1.5269937
   6 C   17 Cl          4     1.7959679     1.8096860     1.7890837


optimized geometry written to: xtbopt.coord


           -------------------------------------------------
          | TOTAL ENERGY            -1918.094367215474 Eh   |
          | GRADIENT NORM               0.000394162817 Eh/α |
           -------------------------------------------------

------------------------------------------------------------------------
 * finished run on 2025/04/09 at 01:53:53.201     
------------------------------------------------------------------------
 total:
 * wall-time:     0 d,  0 h,  0 min, 35.809 sec
 *  cpu-time:     0 d,  0 h,  0 min,  0.084 sec
 * ratio c/w:     0.002 speedup
 SCF:
 * wall-time:     0 d,  0 h,  0 min,  4.514 sec
 *  cpu-time:     0 d,  0 h,  0 min,  0.072 sec
 * ratio c/w:     0.016 speedup
 ANC optimizer:
 * wall-time:     0 d,  0 h,  0 min, 31.293 sec
 *  cpu-time:     0 d,  0 h,  0 min,  0.003 sec
 * ratio c/w:     0.000 speedup

