
                                 *****************
                                 * O   R   C   A *
                                 *****************

                                            #,                                       
                                            ###                                      
                                            ####                                     
                                            #####                                    
                                            ######                                   
                                           ########,                                 
                                     ,,################,,,,,                         
                               ,,#################################,,                 
                          ,,##########################################,,             
                       ,#########################################, ''#####,          
                    ,#############################################,,   '####,        
                  ,##################################################,,,,####,       
                ,###########''''           ''''###############################       
              ,#####''   ,,,,##########,,,,          '''####'''          '####       
            ,##' ,,,,###########################,,,                        '##       
           ' ,,###''''                  '''############,,,                           
         ,,##''                                '''############,,,,        ,,,,,,###''
      ,#''                                            '''#######################'''  
     '                                                          ''''####''''         
             ,#######,   #######,   ,#######,      ##                                
            ,#'     '#,  ##    ##  ,#'     '#,    #''#        ,####,   ,####,        
            ##       ##  ##   ,#'  ##            #'  '#       #'       #'  '#        
            ##       ##  #######   ##           ,######,      #####,   #    #        
            '#,     ,#'  ##    ##  '#,     ,#' ,#      #,     #,   #   #,  ,#        
             '#######'   ##     ##  '#######'  #'      '#     '####' # '####'        



                #########################################################
                #                        -***-                          #
                #          Department of theory and spectroscopy        #
                #                                                       #
                #                      Frank Neese                      #
                #                                                       #
                #     Directorship, Architecture, Infrastructure        #
                #                    SHARK, DRIVERS                     #
                #        Core code/Algorithms in most modules           #
                #                                                       #
                #        Max Planck Institute fuer Kohlenforschung      #
                #                Kaiser Wilhelm Platz 1                 #
                #                 D-45470 Muelheim/Ruhr                 #
                #                      Germany                          #
                #                                                       #
                #                  All rights reserved                  #
                #                        -***-                          #
                #########################################################


                         Program Version 6.0.1  -  RELEASE   -


 With contributions from (in alphabetic order):
[Max-Planck-Institut fuer Kohlenforschung]                               
  Daniel Aravena         : Magnetic Suceptibility                        
  Michael Atanasov       : Ab Initio Ligand Field Theory (pilot matlab implementation)
  Alexander A. Auer      : GIAO ZORA, VPT2 properties, NMR spectrum      
  Ute Becker             : All parallelization in ORCA, NUMFREQ, NUMCALC 
  Giovanni Bistoni       : ED, misc. LED, open-shell LED, HFLD           
  Martin Brehm           : Molecular dynamics                            
  Dmytro Bykov           : pre 5.0 version of the SCF Hessian            
  Marcos Casanova-Páez   : Triplet and SCS-CIS(D). UHF-(DLPNO)-IP/EA/STEOM-CCSD. UHF-CVS-IP/STEOM-CCSD   
  Vijay G. Chilkuri      : MRCI spin determinant printing, contributions to CSF-ICE 
  Pauline Colinet        : FMM embedding                                 
  Dipayan Datta          : RHF DLPNO-CCSD density                        
  Achintya Kumar Dutta   : EOM-CC, STEOM-CC                              
  Nicolas Foglia         : Exact transition moments, OPA infrastructure, MCD improvements    
  Dmitry Ganyushin       : Spin-Orbit,Spin-Spin,Magnetic field MRCI      
  Miquel Garcia-Rates    : C-PCM and meta-GGA Hessian, CCSD/C-PCM, Gaussian charge scheme 
  Tiago L. C. Gouveia    : GS-ROHF, GS-ROCIS                             
  Yang Guo               : DLPNO-NEVPT2, F12-NEVPT2, CIM, IAO-localization        
  Andreas Hansen         : Spin unrestricted coupled pair/coupled cluster methods 
  Ingolf Harden          : AUTO-CI MPn and infrastructure                
  Benjamin Helmich-Paris : MC-RPA, TRAH-(SCF,CASSCF), AVAS, COSX integrals, SCF dyn. polar. 
  Lee Huntington         : MR-EOM, pCC                                   
  Robert Izsak           : Overlap fitted RIJCOSX, COSX-SCS-MP3, EOM     
  Riya Kayal             : Wick's Theorem for AUTO-CI, AUTO-CI UHF-CCSDT 
  Emily Kempfer          : AUTO-CI, RHF CISDT and CCSDT                  
  Christian Kollmar      : KDIIS, OOCD, Brueckner-CCSD(T), CCSD density, CASPT2, CASPT2-K, improved NEVPT2 
  Axel Koslowski         : Symmetry handling                             
  Simone Kossmann        : meta-GGA functionals, TD-DFT gradient, OOMP2, (MP2 Hessian; deprecated post 5.0) 
  Lucas Lang             : DCDCAS                                        
  Marvin Lechner         : AUTO-CI (C++ implementation), FIC-MRCC        
  Spencer Leger          : CASSCF response                               
  Dagmar Lenk            : GEPOL surface, SMD, ORCA-2-JSON               
  Dimitrios Liakos       : Extrapolation schemes; Compound Job, initial MDCI parallelization 
  Dimitrios Manganas     : Further ROCIS development; embedding schemes. LFT, Crystal Embedding 
  Dimitrios Pantazis     : SARC Basis sets                               
  Anastasios Papadopoulos: AUTO-CI, single reference methods and gradients 
  Taras Petrenko         : pre 6.0 DFT Hessian and TD-DFT gradient, (ASA, deprecated), ECA, 1-Electron XAS/XES, NRVS 
  Peter Pinski           : DLPNO-MP2, DLPNO-MP2 Gradient                 
  Christoph Reimann      : Effective Core Potentials                     
  Marius Retegan         : Local ZFS, SOC                                
  Christoph Riplinger    : Optimizer, TS searches, QM/MM, DLPNO-CCSD(T), (RO)-DLPNO pert. Triples 
  Michael Roemelt        : Original ROCIS implementation                 
  Masaaki Saitow         : Open-shell DLPNO-CCSD energy and density      
  Barbara Sandhoefer     : DKH picture change effects                    
  Kantharuban Sivalingam : CASSCF convergence/infrastructure, NEVPT2 and variants, FIC-MRCI 
  Bernardo de Souza      : ESD, SOC TD-DFT                               
  Georgi L. Stoychev     : AutoAux, RI-MP2 NMR, DLPNO-MP2 response, X2C  
  Van Anh Tran           : RI-MP2 g-tensors                              
  Willem Van den Heuvel  : Paramagnetic NMR                              
  Zikuan Wang            : NOTCH, Electric field optimization            
  Frank Wennmohs         : Technical directorship and infrastructure     
  Hang Xu                : AUTO-CI-Response properties                   
                                                                         
[FACCTs GmbH]                                                            
  Markus Bursch, Miquel Garcia-Rates, Christoph Riplinger, Bernardo de Souza, Georgi L. Stoychev 
                                                                 
  APM, Basis sets (HGBS, AHGBS, def-TZVP (Ac-Lr), def2-XVPD (La-Lu)), CI-OPT, improved COSX, DLPNO-Multilevel,           
  DOCKER, DRACO, updates on ESD, GOAT, IRC, LR-CPCM, MBIS, meta-GGA TD-DFT gradient, ML-optimized integration grids, 
  MM, NACMEs, nearIR, NEB, NEB-TS, NL-DFT gradient (VV10), 2- and 3-layer-ONIOM, interface openCOSMO-RS, QMMM,   
  Crystal-QMMM, SF, symmetry and pop. for TD-DFT, r2SCAN hybrids, SOLVATOR                                   
                                                                         
[Other institutions]                                                     
  V. Asgeirsson          : NEB                                           
  Christoph Bannwarth    : sTDA-DFT, sTD-DFT, PBEh-3c, B97-3c, D3        
  Sebastian Ehlert       : rSCAN, r2SCAN, r2SCAN-3c, D4, dhf basis sets  
  Marvin Friede          : D4 for Fr, Ra, Ac-Lr                          
  Lars Goerigk           : TD-DFT with DH, B97 family of functionals     
  Stefan Grimme          : VdW corrections, initial TS optimization, DFT functionals, gCP, sTDA/sTD-DF 
  Waldemar Hujo          : DFT-NL                                        
  H. Jonsson             : NEB                                           
  Holger Kruse           : gCP                                           
  Marcel Mueller         : wB97X-3c, vDZP basis set                      
  Hagen Neugebauer       : wr2SCAN                                       
  Tobias Risthaus        : range-separated hybrid DFT                    
  Lukas Wittmann         : regularized MP2, r2SCAN double-hybrids, wr2SCAN        
                                                                         
We gratefully acknowledge several colleagues who have allowed us to      
interface, adapt or use parts of their codes:                            
  Ed Valeev, F. Pavosevic, A. Kumar             : LibInt (2-el integral package), F12 methods 
  Garnet Chan, S. Sharma, J. Yang, R. Olivares  : DMRG                   
  Ulf Ekstrom                                   : XCFun DFT Library      
  Mihaly Kallay                                 : mrcc  (arbitrary order and MRCC methods)
  Frank Weinhold                                : gennbo (NPA and NBO analysis)           
  Simon Mueller                                 : openCOSMO-RS                            
  Christopher J. Cramer and Donald G. Truhlar   : smd solvation model                     
  S Lehtola, MJT Oliveira, MAL Marques          : LibXC Library                           
  Liviu Ungur et al                             : ANISO software                          


 Your calculation uses the libint2 library for the computation of 2-el integrals
 For citations please refer to: http://libint.valeyev.net

 Your ORCA version has been built with support for libXC version: 6.2.2
 For citations please refer to: https://libxc.gitlab.io

 This ORCA versions uses:
   CBLAS   interface :  Fast vector & matrix operations
   LAPACKE interface :  Fast linear algebra routines
   SCALAPACK package :  Parallel linear algebra routines
   Shared memory     :  Shared parallel matrices
   BLAS/LAPACK       :  OpenBLAS 0.3.27  USE64BITINT DYNAMIC_ARCH NO_AFFINITY Zen SINGLE_THREADED
        Core in use  :  Zen
   Copyright (c) 2011-2014, The OpenBLAS Project


Your calculation utilizes the geometrical counterpoise correction gCP
Please cite in your paper:
H.Kruse, S. Grimme J.Chem.Phys., 136, (2012), 154101 
   

Your calculation utilizes the DFT-NL dispersion correction.
Cite in your paper:
Vydrov, O. A.; Van Voorhis, T. J. Chem. Phys. 2010, 133, 244103
Hujo, W.; Grimme, S. J. Chem. Theory Comput. 2011, 7, 3866 
   

================================================================================

----- Orbital basis set information -----
Your calculation utilizes the basis: def2-TZVP
   F. Weigend and R. Ahlrichs, Phys. Chem. Chem. Phys. 7, 3297 (2005).

----- AuxJ basis set information -----
Your calculation utilizes the auxiliary basis: def2/J
   F. Weigend, Phys. Chem. Chem. Phys. 8, 1057 (2006).

================================================================================
                                        WARNINGS
                       Please study these warnings very carefully!
================================================================================


================================================================================
                                       INPUT FILE
================================================================================
NAME = sp.inp
|  1> ! wb97x-v def2-tzvp def2/J RIJCOSX DEFGRID2 scfconv7 GCP(DFT/TZ) printgap
|  2> %output
|  3>     printlevel normal
|  4> end
|  5> * xyz 0 1
|  6> C 2.3959033016389757 7.775085904281684e-05 0.06353611833466152
|  7> N 0.9896127056331654 4.016357902741699e-05 -0.3152427390746704
|  8> C 0.31566136106365217 1.1982048995223569 0.1886149615245578
|  9> C -1.1454055776687118 1.2002877052918632 -0.2378939255631159
| 10> N -1.7982837921212236 -6.727140292840122e-05 0.29159018064146297
| 11> C -1.1453234930703458 -1.2003587440213812 -0.2379364955157224
| 12> C 0.3157440936537211 -1.198189413809742 0.18856967918765344
| 13> H 2.890855985238784 -0.8867718667231532 -0.3470248293122593
| 14> H 2.54535512806669 2.388992770000601e-05 1.1617368923909193
| 15> H 2.890781933131029 0.8870140432211149 -0.3469268397862135
| 16> H 0.36821707804876214 1.2569020063407361 1.2955224211043614
| 17> H 0.8203827770759139 2.082049672558773 -0.22056557447294584
| 18> H -1.6414347492990313 2.0885401921096465 0.17018790316217552
| 19> H -1.1867330095399249 1.2571744503691826 -1.3424914296741965
| 20> H -2.7772417322349345 -9.572934693177956e-05 0.028884422407689316
| 21> H -1.6412896421742285 -2.088659554033663 0.1701166082708603
| 22> H -1.1866496806905014 -1.2572108423032482 -1.3425356342653725
| 23> H 0.36830579464874535 -1.256923215997453 1.2954750773584691
| 24> H 0.8205269744963649 -2.0819844355189874 -0.22064273872966833
| 25> *
| 26> 
| 27>                          ****END OF INPUT****
================================================================================

                       ****************************
                       * Single Point Calculation *
                       ****************************

---------------------------------
CARTESIAN COORDINATES (ANGSTROEM)
---------------------------------
  C      2.395903    0.000078    0.063536
  N      0.989613    0.000040   -0.315243
  C      0.315661    1.198205    0.188615
  C     -1.145406    1.200288   -0.237894
  N     -1.798284   -0.000067    0.291590
  C     -1.145323   -1.200359   -0.237936
  C      0.315744   -1.198189    0.188570
  H      2.890856   -0.886772   -0.347025
  H      2.545355    0.000024    1.161737
  H      2.890782    0.887014   -0.346927
  H      0.368217    1.256902    1.295522
  H      0.820383    2.082050   -0.220566
  H     -1.641435    2.088540    0.170188
  H     -1.186733    1.257174   -1.342491
  H     -2.777242   -0.000096    0.028884
  H     -1.641290   -2.088660    0.170117
  H     -1.186650   -1.257211   -1.342536
  H      0.368306   -1.256923    1.295475
  H      0.820527   -2.081984   -0.220643

----------------------------
CARTESIAN COORDINATES (A.U.)
----------------------------
  NO LB      ZA    FRAG     MASS         X           Y           Z
   0 C     6.0000    0    12.011    4.527601    0.000147    0.120066
   1 N     7.0000    0    14.007    1.870097    0.000076   -0.595722
   2 C     6.0000    0    12.011    0.596514    2.264279    0.356431
   3 C     6.0000    0    12.011   -2.164503    2.268215   -0.449554
   4 N     7.0000    0    14.007   -3.398264   -0.000127    0.551026
   5 C     6.0000    0    12.011   -2.164348   -2.268349   -0.449635
   6 C     6.0000    0    12.011    0.596670   -2.264250    0.356345
   7 H     1.0000    0     1.008    5.462926   -1.675756   -0.655782
   8 H     1.0000    0     1.008    4.810024    0.000045    2.195365
   9 H     1.0000    0     1.008    5.462786    1.676214   -0.655597
  10 H     1.0000    0     1.008    0.695829    2.375201    2.448183
  11 H     1.0000    0     1.008    1.550299    3.934504   -0.416809
  12 H     1.0000    0     1.008   -3.101862    3.946769    0.321609
  13 H     1.0000    0     1.008   -2.242600    2.375715   -2.536941
  14 H     1.0000    0     1.008   -5.248226   -0.000181    0.054584
  15 H     1.0000    0     1.008   -3.101588   -3.946995    0.321474
  16 H     1.0000    0     1.008   -2.242443   -2.375784   -2.537025
  17 H     1.0000    0     1.008    0.695997   -2.375241    2.448093
  18 H     1.0000    0     1.008    1.550571   -3.934380   -0.416954

--------------------------------
INTERNAL COORDINATES (ANGSTROEM)
--------------------------------
 C      0   0   0     0.000000000000     0.00000000     0.00000000
 N      1   0   0     1.456408824694     0.00000000     0.00000000
 C      2   1   0     1.464131733062   110.79007748     0.00000000
 C      3   2   1     1.522048214841   110.27656168   178.84020528
 N      4   3   2     1.465419889215   108.98394013    59.24138144
 C      5   4   3     1.465419827947   109.98930579   299.58930286
 C      2   1   3     1.464131134542   110.78982425   237.82384167
 H      1   2   3     1.095463689467   109.80248576   181.71863098
 H      1   2   3     1.108323414650   112.82430286    61.09014249
 H      1   2   3     1.095463685663   109.80247244   300.46172696
 H      3   2   1     1.109707879494   111.39227324   299.95289745
 H      3   2   1     1.096974932095   108.61428889    58.67790172
 H      4   3   2     1.096160662669   109.33995869   178.44715078
 H      4   3   2     1.106833187287   108.39505494   296.24076091
 H      5   4   3     1.013594082821   109.67437653   178.89017558
 H      6   5   4     1.096160611241   109.12555466   179.74970947
 H      6   5   4     1.106832992004   112.70917024   300.03055002
 H      7   2   1     1.109708048286   111.39216270    60.04719798
 H      7   2   1     1.096975022581   108.61431401   301.32232937

---------------------------
INTERNAL COORDINATES (A.U.)
---------------------------
 C      0   0   0     0.000000000000     0.00000000     0.00000000
 N      1   0   0     2.752213817698     0.00000000     0.00000000
 C      2   1   0     2.766807999470   110.79007748     0.00000000
 C      3   2   1     2.876254288674   110.27656168   178.84020528
 N      4   3   2     2.769242261817   108.98394013    59.24138144
 C      5   4   3     2.769242146037   109.98930579   299.58930286
 C      2   1   3     2.766806868432   110.78982425   237.82384167
 H      1   2   3     2.070126362748   109.80248576   181.71863098
 H      1   2   3     2.094427721501   112.82430286    61.09014249
 H      1   2   3     2.070126355559   109.80247244   300.46172696
 H      3   2   1     2.097043980897   111.39227324   299.95289745
 H      3   2   1     2.072982197436   108.61428889    58.67790172
 H      4   3   2     2.071443451221   109.33995869   178.44715078
 H      4   3   2     2.091611599907   108.39505494   296.24076091
 H      5   4   3     1.915415227496   109.67437653   178.89017558
 H      6   5   4     2.071443354036   109.12555466   179.74970947
 H      6   5   4     2.091611230876   112.70917024   300.03055002
 H      7   2   1     2.097044299869   111.39216270    60.04719798
 H      7   2   1     2.072982368431   108.61431401   301.32232937

---------------------
BASIS SET INFORMATION
---------------------
There are 3 groups of distinct atoms

 Group   1 Type C   : 11s6p2d1f contracted to 5s3p2d1f pattern {62111/411/11/1}
 Group   2 Type N   : 11s6p2d1f contracted to 5s3p2d1f pattern {62111/411/11/1}
 Group   3 Type H   : 5s1p contracted to 3s1p pattern {311/1}

Atom   0C    basis set group =>   1
Atom   1N    basis set group =>   2
Atom   2C    basis set group =>   1
Atom   3C    basis set group =>   1
Atom   4N    basis set group =>   2
Atom   5C    basis set group =>   1
Atom   6C    basis set group =>   1
Atom   7H    basis set group =>   3
Atom   8H    basis set group =>   3
Atom   9H    basis set group =>   3
Atom  10H    basis set group =>   3
Atom  11H    basis set group =>   3
Atom  12H    basis set group =>   3
Atom  13H    basis set group =>   3
Atom  14H    basis set group =>   3
Atom  15H    basis set group =>   3
Atom  16H    basis set group =>   3
Atom  17H    basis set group =>   3
Atom  18H    basis set group =>   3
---------------------------------
AUXILIARY/J BASIS SET INFORMATION
---------------------------------
There are 3 groups of distinct atoms

 Group   1 Type C   : 12s5p4d2f1g contracted to 6s4p3d1f1g pattern {711111/2111/211/2/1}
 Group   2 Type N   : 12s5p4d2f1g contracted to 6s4p3d1f1g pattern {711111/2111/211/2/1}
 Group   3 Type H   : 5s2p1d contracted to 3s1p1d pattern {311/2/1}

Atom   0C    basis set group =>   1
Atom   1N    basis set group =>   2
Atom   2C    basis set group =>   1
Atom   3C    basis set group =>   1
Atom   4N    basis set group =>   2
Atom   5C    basis set group =>   1
Atom   6C    basis set group =>   1
Atom   7H    basis set group =>   3
Atom   8H    basis set group =>   3
Atom   9H    basis set group =>   3
Atom  10H    basis set group =>   3
Atom  11H    basis set group =>   3
Atom  12H    basis set group =>   3
Atom  13H    basis set group =>   3
Atom  14H    basis set group =>   3
Atom  15H    basis set group =>   3
Atom  16H    basis set group =>   3
Atom  17H    basis set group =>   3
Atom  18H    basis set group =>   3

Checking for AutoStart:
The File: sp.gbw exists
Trying to determine its content:
     ... Fine, the file contains calculation information
     ... Fine, the calculation information was read
     ... Fine, the file contains a basis set
     ... Fine, the basis set was read
     ... Fine, the file contains a geometry
     ... Fine, the geometry was read
     ... Fine, the file contains a set of orbitals
     ... Fine, the orbitals can be read
     => possible old guess file was deleted
     => GBW file was renamed to GES file
     => GES file is set as startup file
     => Guess is set to MORead
     ... now leaving AutoStart

------------------------------------------------------------------------------
                             ORCA STARTUP CALCULATIONS
                           -- RI-GTO INTEGRALS CHOSEN --
------------------------------------------------------------------------------
------------------------------------------------------------------------------
                   ___                                                        
                  /   \      - P O W E R E D   B Y -                         
                 /     \                                                     
                 |  |  |   _    _      __       _____    __    __             
                 |  |  |  | |  | |    /  \     |  _  \  |  |  /  |          
                  \  \/   | |  | |   /    \    | | | |  |  | /  /          
                 / \  \   | |__| |  /  /\  \   | |_| |  |  |/  /          
                |  |  |   |  __  | /  /__\  \  |    /   |      \           
                |  |  |   | |  | | |   __   |  |    \   |  |\   \          
                \     /   | |  | | |  |  |  |  | |\  \  |  | \   \       
                 \___/    |_|  |_| |__|  |__|  |_| \__\ |__|  \__/        
                                                                              
                      - O R C A' S   B I G   F R I E N D -                    
                                      &                                       
                       - I N T E G R A L  F E E D E R -                       
                                                                              
 v1 FN, 2020, v2 2021, v3 2022-2024                                           
------------------------------------------------------------------------------


----------------------
SHARK INTEGRAL PACKAGE
----------------------

Number of atoms                             ...     19
Number of basis functions                   ...    289
Number of shells                            ...    125
Maximum angular momentum                    ...      3
Integral batch strategy                     ... SHARK/LIBINT Hybrid
RI-J (if used) integral strategy            ... SPLIT-RIJ (Revised 2003 algorithm where possible)
Printlevel                                  ...      1
Contraction scheme used                     ... SEGMENTED contraction
Prescreening option                         ... SCHWARTZ
   Thresh                                   ... 3.000e-11
   Tcut                                     ... 1.000e-12
   Tpresel                                  ... 1.000e-12 
Coulomb Range Separation                    ... NOT USED
Exchange Range Separation                   ... Long Range
   Mu parameter                             ... 3.000e-01
   Scaling (regular/separated)              ... 1.670e-01 8.330e-01
Multipole approximations                    ... NOT USED
Finite Nucleus Model                        ... NOT USED
CABS basis                                  ... NOT available
Auxiliary Coulomb fitting basis             ... AVAILABLE
   # of basis functions in Aux-J            ...    475
   # of shells in Aux-J                     ...    165
   Maximum angular momentum in Aux-J        ...      4
Auxiliary J/K fitting basis                 ... NOT available
Auxiliary Correlation fitting basis         ... NOT available
Auxiliary 'external' fitting basis          ... NOT available

Checking pre-screening integrals            ... done (  0.0 sec) Dimension = 125
Check shell pair data                       ... done (  0.0 sec)
Shell pair information
Shell pair cut-off parameter TPreSel        ...   1.0e-12
Total number of shell pairs                 ...      7875
Shell pairs after pre-screening             ...      7475
Total number of primitive shell pairs       ...     22768
Primitive shell pairs kept                  ...     16778
          la=0 lb=0:   2352 shell pairs
          la=1 lb=0:   2229 shell pairs
          la=1 lb=1:    544 shell pairs
          la=2 lb=0:    959 shell pairs
          la=2 lb=1:    452 shell pairs
          la=2 lb=2:    104 shell pairs
          la=3 lb=0:    481 shell pairs
          la=3 lb=1:    228 shell pairs
          la=3 lb=2:     98 shell pairs
          la=3 lb=3:     28 shell pairs

Calculating one electron integrals          ... done (  0.0 sec)
Calculating RI/J V-Matrix + Cholesky decomp.... done (  0.0 sec)
Calculating Nuclear repulsion               ... done (  0.0 sec) ENN=    338.083807021700 Eh

Diagonalization of the overlap matrix:
Smallest eigenvalue                        ... 1.032e-04
Time for diagonalization                   ...    0.006 sec
Threshold for overlap eigenvalues          ... 1.000e-07
Number of eigenvalues below threshold      ... 0
Time for construction of square roots      ...    0.002 sec
Total time needed                          ...    0.009 sec

-------------------
DFT GRID GENERATION
-------------------

General Integration Accuracy     IntAcc      ... 4.388
Radial Grid Type                 RadialGrid  ... OptM3 with GC (2021)
Angular Grid (max. ang.)         AngularGrid ... 4 (Lebedev-302)
Angular grid pruning method      GridPruning ... 4 (adaptive)
Weight generation scheme         WeightScheme... mBecke (2022)
Basis function cutoff            BFCut       ... 1.0000e-11
Integration weight cutoff        WCut        ... 1.0000e-14
Partially contracted basis set               ... off
Rotationally invariant grid construction     ... off
Angular grids for H and He will be reduced by one unit

Total number of grid points                  ...    80302
Total number of batches                      ...     1264
Average number of points per batch           ...       63
Average number of grid points per atom       ...     4226

--------------------
COSX GRID GENERATION
--------------------

GRIDX 1
-------
General Integration Accuracy     IntAcc      ... 3.816
Radial Grid Type                 RadialGrid  ... OptM3 with GC (2021)
Angular Grid (max. ang.)         AngularGrid ... 1 (Lebedev-50)
Angular grid pruning method      GridPruning ... 4 (adaptive)
Weight generation scheme         WeightScheme... mBecke (2022)
Basis function cutoff            BFCut       ... 1.0000e-11
Integration weight cutoff        WCut        ... 1.0000e-14
Partially contracted basis set               ... on
Rotationally invariant grid construction     ... off
Angular grids for H and He will be reduced by one unit

Total number of grid points                  ...    10294
Total number of batches                      ...       95
Average number of points per batch           ...      108
Average number of grid points per atom       ...      542
UseSFitting                                  ... on

GRIDX 2
-------
General Integration Accuracy     IntAcc      ... 4.020
Radial Grid Type                 RadialGrid  ... OptM3 with GC (2021)
Angular Grid (max. ang.)         AngularGrid ... 2 (Lebedev-110)
Angular grid pruning method      GridPruning ... 4 (adaptive)
Weight generation scheme         WeightScheme... mBecke (2022)
Basis function cutoff            BFCut       ... 1.0000e-11
Integration weight cutoff        WCut        ... 1.0000e-14
Partially contracted basis set               ... on
Rotationally invariant grid construction     ... off
Angular grids for H and He will be reduced by one unit

Total number of grid points                  ...    21474
Total number of batches                      ...      176
Average number of points per batch           ...      122
Average number of grid points per atom       ...     1130
UseSFitting                                  ... on

GRIDX 3
-------
General Integration Accuracy     IntAcc      ... 4.338
Radial Grid Type                 RadialGrid  ... OptM3 with GC (2021)
Angular Grid (max. ang.)         AngularGrid ... 3 (Lebedev-194)
Angular grid pruning method      GridPruning ... 4 (adaptive)
Weight generation scheme         WeightScheme... mBecke (2022)
Basis function cutoff            BFCut       ... 1.0000e-11
Integration weight cutoff        WCut        ... 1.0000e-14
Partially contracted basis set               ... on
Rotationally invariant grid construction     ... off
Angular grids for H and He will be reduced by one unit

Total number of grid points                  ...    46910
Total number of batches                      ...      380
Average number of points per batch           ...      123
Average number of grid points per atom       ...     2469
UseSFitting                                  ... on
Initializing property integral containers    ... done (  0.0 sec)

SHARK setup successfully completed in   1.3 seconds

Maximum memory used throughout the entire STARTUP-calculation: 46.4 MB
-------------------------------------------------------------------------------
                                 ORCA GUESS
                   Start orbitals & Density for SCF / CASSCF
-------------------------------------------------------------------------------

------------
SCF SETTINGS
------------
Hamiltonian:
 Density Functional     Method          .... DFT(GTOs)
 Exchange Functional    Exchange        .... WB97X-V
 Correlation Functional Correlation     .... WB97X-V
 Gradients option       PostSCFGGA      .... off
 Hybrid DFT is turned on
   Fraction HF Exchange ScalHFX         ....  0.167000
   Scaling of DF-GGA-X  ScalDFX         ....  0.000000
   Scaling of DF-GGA-C  ScalDFC         ....  1.000000
   Scaling of DF-LDA-C  ScalLDAC        ....  1.000000
   Perturbative correction              ....  0.000000
 Long-range corrected/Screened/Range-Separated Hybrid DFT is turned on
   Amount of maximum screened exact exchange              ....  0.833000
   Range separation parameter mu (erf(mu*r12)/r12)        ....  0.300000
   NL short-range parameter             ....  6.000000
   NL long-range parameter              ....  0.010000
 RI-approximation to the Coulomb term is turned on
   Number of AuxJ basis functions       .... 475
   RIJ-COSX (HFX calculated with COS-X)).... on


General Settings:
 Integral files         IntName         .... sp
 Hartree-Fock type      HFTyp           .... RHF
 Total Charge           Charge          ....    0
 Multiplicity           Mult            ....    1
 Number of Electrons    NEL             ....   56
 Basis Dimension        Dim             ....  289
 Nuclear Repulsion      ENuc            ....    338.0838070217 Eh

Convergence Acceleration:
 AO-DIIS                CNVDIIS         .... on
   Start iteration      DIISMaxIt       ....    12
   Startup error        DIISStart       ....  0.200000
   # of expansion vecs  DIISMaxEq       ....     5
   Bias factor          DIISBfac        ....   1.050
   Max. coefficient     DIISMaxC        ....  10.000
 MO-DIIS                CNVKDIIS        .... off
 Trust-Rad. Augm. Hess. CNVTRAH         .... auto
   Auto Start mean grad. ratio tolernc. ....  1.125000
   Auto Start start iteration           ....     1
   Auto Start num. interpolation iter.  ....    10
   Max. Number of Micro iterations      ....    24
   Max. Number of Macro iterations      .... Maxiter - #DIIS iter
   Number of Davidson start vectors     ....     2
   Converg. threshold    (grad. norm)   ....   1.000e-04
   Grad. Scal. Fac. for Micro threshold ....   0.100
   Minimum threshold for Micro iter.    ....   1.000e-02
   NR start threshold (gradient norm)   ....   1.000e-04
   Initial trust radius                 ....   0.400
   Minimum AH scaling param. (alpha)    ....   1.000
   Maximum AH scaling param. (alpha)    .... 1000.000
   Quad. conv. algorithm                .... NR
   White noise on init. David. guess    .... on
   Maximum white noise                  ....   0.010
   Pseudo random numbers                .... off
   Inactive MOs                         .... canonical
   Orbital update algorithm             .... Taylor
   Preconditioner                       .... Diag
   Full preconditioner red. dimension   ....   250
 SOSCF                  CNVSOSCF        .... on
   Start iteration      SOSCFMaxIt      ....   150
   Startup grad/error   SOSCFStart      ....  0.003300
   Hessian update       SOSCFHessUp     .... L-BFGS
 Level Shifting         CNVShift        .... on
   Level shift para.    LevelShift      ....    0.2500
   Turn off err/grad.   ShiftErr        ....    0.0010
 Zerner damping         CNVZerner       .... off
 Static damping         CNVDamp         .... on
   Fraction old density DampFac         ....    0.7000
   Max. Damping (<1)    DampMax         ....    0.9800
   Min. Damping (>=0)   DampMin         ....    0.0000
   Turn off err/grad.   DampErr         ....    0.1000

SCF Procedure:
 Maximum # iterations   MaxIter         ....   125
 SCF integral mode      SCFMode         .... Direct
   Integral package                     .... SHARK and LIBINT hybrid scheme
 Reset frequency        DirectResetFreq ....    20
 Integral Threshold     Thresh          ....  3.000e-11 Eh
 Primitive CutOff       TCut            ....  1.000e-12 Eh

Convergence Tolerance:
 Convergence Check Mode ConvCheckMode   .... Total+1el-Energy
 Convergence forced     ConvForced      .... 0
 Energy Change          TolE            ....  1.000e-07 Eh
 1-El. energy change                    ....  1.000e-04 Eh
 Orbital Gradient       TolG            ....  1.000e-04
 Orbital Rotation angle TolX            ....  1.000e-04
 DIIS Error             TolErr          ....  1.000e-07

---------------------
INITIAL GUESS: MOREAD
---------------------
Guess MOs are being read from file: sp.ges
Input Geometry matches current geometry (good)
Atom 0: N(Shells)= 11 and 9 - projection required
Input basis set needs projection
NBasis(read)= 203
NBasis(calc)= 289
Basis set overlap was calculated
Using GuessMode=FMatrix for the initial guess
C*T matrix was formed
Effective Fockian was calculated
Effective Fockian was diagonalized
Initial density was built
                      ------------------
                      INITIAL GUESS DONE (   0.0 sec)
                      ------------------
             **** ENERGY FILE WAS UPDATED (sp.en.tmp) ****
Finished Guess after   0.1 sec
Maximum memory used throughout the entire GUESS-calculation: 27.0 MB

-------------------------------------------------------------------------------------------
                                      ORCA LEAN-SCF
                              memory conserving SCF solver
-------------------------------------------------------------------------------------------

----------------------------------------D-I-I-S--------------------------------------------
Iteration    Energy (Eh)           Delta-E    RMSDP     MaxDP     DIISErr   Damp  Time(sec)
-------------------------------------------------------------------------------------------
               ***  Starting incremental Fock matrix formation  ***
    1    -307.4628833925333993     0.00e+00  1.10e-03  2.35e-02  4.96e-02  0.700  11.4
    2    -307.4676572891345359    -4.77e-03  9.70e-04  2.22e-02  3.64e-02  0.700   5.4
                               ***Turning on AO-DIIS***
    3    -307.4712930698012769    -3.64e-03  8.20e-04  1.93e-02  2.62e-02  0.700   5.4
    4    -307.4739826086654375    -2.69e-03  2.08e-03  4.96e-02  1.84e-02  0.000   5.3
                              *** Initializing SOSCF ***
---------------------------------------S-O-S-C-F--------------------------------------
Iteration    Energy (Eh)           Delta-E    RMSDP     MaxDP     MaxGrad    Time(sec)
--------------------------------------------------------------------------------------
    5    -307.4808714721772276    -6.89e-03  1.13e-04  2.63e-03  6.70e-04     5.6
               *** Restarting incremental Fock matrix formation ***
    6    -307.4808908471301265    -1.94e-05  5.34e-05  1.26e-03  1.97e-04    11.5
    7    -307.4808940539411424    -3.21e-06  2.44e-05  5.59e-04  7.16e-05     8.6
    8    -307.4808944258676320    -3.72e-07  3.93e-06  9.19e-05  3.38e-05     8.2
    9    -307.4808944922883711    -6.64e-08  2.37e-06  5.84e-05  1.26e-05     7.3
                 **** Energy Check signals convergence ****

               *****************************************************
               *                     SUCCESS                       *
               *           SCF CONVERGED AFTER   9 CYCLES          *
               *****************************************************


------------------
NL GRID GENERATION
------------------

General Integration Accuracy     IntAcc      ... 4.004
Radial Grid Type                 RadialGrid  ... OptM3 with GC (2021)
Angular Grid (max. ang.)         AngularGrid ... 2 (Lebedev-110)
Angular grid pruning method      GridPruning ... 4 (adaptive)
Weight generation scheme         WeightScheme... mBecke (2022)
Basis function cutoff            BFCut       ... 1.0000e-10
Integration weight cutoff        WCut        ... 1.0000e-14
Partially contracted basis set               ... off
Rotationally invariant grid construction     ... off
Angular grids for H and He will be reduced by one unit

Total number of grid points                  ...    23963
Total number of batches                      ...      385
Average number of points per batch           ...       62
Average number of grid points per atom       ...     1261
Final grid set up in    0.1 sec

-------------------------------------------------------------------------------
                    post-SCF DFT-NL dispersion correction                      
-------------------------------------------------------------------------------

SCF Energy:     -307.480894492 
NL    Energy:      0.209576679 
SC+NL Energy:   -307.271317813 
NL done in  :              1.8 sec
-------------------------------------------------------------------------------
Recomputing exchange energy using gridx3       ... done (   20.967 sec)
Old exchange energy                            :    -14.543701993 Eh
New exchange energy                            :    -14.543681812 Eh
Exchange energy change after final integration :      0.000020182 Eh
Total energy after final integration           :   -307.271297631 Eh
             **** ENERGY FILE WAS UPDATED (sp.en.tmp) ****

----------------
TOTAL SCF ENERGY
----------------

Total Energy       :       -307.27129763134559 Eh           -8361.27709 eV

Components:
Nuclear Repulsion  :        338.08380702169961 Eh            9199.72809 eV
Electronic Energy  :       -645.56470151398798 Eh          -17566.70860 eV
One Electron Energy:      -1084.16874848228804 Eh          -29501.73149 eV
Two Electron Energy:        438.60404696830005 Eh           11935.02288 eV

Virial components:
Potential Energy   :       -613.15546863759801 Eh          -16684.80854 eV
Kinetic Energy     :        305.88417100625242 Eh            8323.53145 eV
Virial Ratio       :          2.00453481009014

DFT components:
N(Alpha)           :       28.000061637669 electrons
N(Beta)            :       28.000061637669 electrons
N(Total)           :       56.000123275337 electrons
E(X)               :      -28.863406375905 Eh       
E(C)               :       -2.276158147126 Eh       
NL Energy, E(C,NL) :        0.209576679302 Eh       
E(XC)              :      -30.929987843729 Eh       

---------------
SCF CONVERGENCE
---------------

  Last Energy change         ...    6.6421e-08  Tolerance :   1.0000e-07
  Last MAX-Density change    ...    5.8417e-05  Tolerance :   1.0000e-05
  Last RMS-Density change    ...    2.3662e-06  Tolerance :   1.0000e-06
  Last DIIS Error            ...    6.6962e-04  Tolerance :   1.0000e-07
  Last Orbital Gradient      ...    1.2586e-05  Tolerance :   1.0000e-04
  Last Orbital Rotation      ...    1.7157e-05  Tolerance :   1.0000e-04


----------------
ORBITAL ENERGIES
----------------

  NO   OCC          E(Eh)            E(eV) 
   0   2.0000     -14.399556      -391.8318 
   1   2.0000     -14.393051      -391.6548 
   2   2.0000     -10.288539      -279.9654 
   3   2.0000     -10.288526      -279.9650 
   4   2.0000     -10.287009      -279.9238 
   5   2.0000     -10.286999      -279.9235 
   6   2.0000     -10.283536      -279.8292 
   7   2.0000      -1.072937       -29.1961 
   8   2.0000      -1.019692       -27.7472 
   9   2.0000      -0.891251       -24.2522 
  10   2.0000      -0.843965       -22.9654 
  11   2.0000      -0.759033       -20.6543 
  12   2.0000      -0.755187       -20.5497 
  13   2.0000      -0.674177       -18.3453 
  14   2.0000      -0.630349       -17.1527 
  15   2.0000      -0.575843       -15.6695 
  16   2.0000      -0.572607       -15.5814 
  17   2.0000      -0.555479       -15.1153 
  18   2.0000      -0.554449       -15.0873 
  19   2.0000      -0.529788       -14.4163 
  20   2.0000      -0.501378       -13.6432 
  21   2.0000      -0.483213       -13.1489 
  22   2.0000      -0.471107       -12.8195 
  23   2.0000      -0.451460       -12.2849 
  24   2.0000      -0.430858       -11.7242 
  25   2.0000      -0.426147       -11.5960 
  26   2.0000      -0.332702        -9.0533 
  27   2.0000      -0.320552        -8.7227 
  28   0.0000       0.111332         3.0295 
  29   0.0000       0.124457         3.3866 
  30   0.0000       0.143547         3.9061 
  31   0.0000       0.157761         4.2929 
  32   0.0000       0.158554         4.3145 
  33   0.0000       0.181376         4.9355 
  34   0.0000       0.188636         5.1331 
  35   0.0000       0.190513         5.1841 
  36   0.0000       0.191145         5.2013 
  37   0.0000       0.207964         5.6590 
  38   0.0000       0.211649         5.7593 
*Only the first 10 virtual orbitals were printed.

                    ********************************
                    * MULLIKEN POPULATION ANALYSIS *
                    ********************************

-----------------------
MULLIKEN ATOMIC CHARGES
-----------------------
   0 C :   -0.276811
   1 N :   -0.148204
   2 C :   -0.130134
   3 C :   -0.096752
   4 N :   -0.325475
   5 C :   -0.096714
   6 C :   -0.130156
   7 H :    0.114094
   8 H :    0.092863
   9 H :    0.114094
  10 H :    0.075368
  11 H :    0.097021
  12 H :    0.097740
  13 H :    0.078942
  14 H :    0.185066
  15 H :    0.097741
  16 H :    0.078933
  17 H :    0.075367
  18 H :    0.097019
Sum of atomic charges:    0.0000000

--------------------------------
MULLIKEN REDUCED ORBITAL CHARGES
--------------------------------
  0 C s       :     3.234785  s :     3.234785
      pz      :     1.037621  p :     2.949480
      px      :     0.829918
      py      :     1.081940
      dz2     :     0.023355  d :     0.086807
      dxz     :     0.027274
      dyz     :     0.003579
      dx2y2   :     0.011605
      dxy     :     0.020994
      f0      :     0.001370  f :     0.005739
      f+1     :     0.000918
      f-1     :     0.000045
      f+2     :     0.001075
      f-2     :     0.000125
      f+3     :     0.001291
      f-3     :     0.000916

  1 N s       :     3.450279  s :     3.450279
      pz      :     1.571106  p :     3.612828
      px      :     1.011661
      py      :     1.030061
      dz2     :     0.007430  d :     0.080941
      dxz     :     0.015118
      dyz     :     0.015717
      dx2y2   :     0.022095
      dxy     :     0.020581
      f0      :     0.000602  f :     0.004156
      f+1     :     0.000607
      f-1     :     0.000621
      f+2     :     0.000463
      f-2     :     0.000420
      f+3     :     0.000487
      f-3     :     0.000956

  2 C s       :     3.188145  s :     3.188145
      pz      :     0.990837  p :     2.812406
      px      :     0.926264
      py      :     0.895304
      dz2     :     0.035942  d :     0.121485
      dxz     :     0.017580
      dyz     :     0.018592
      dx2y2   :     0.019782
      dxy     :     0.029588
      f0      :     0.001302  f :     0.008098
      f+1     :     0.000854
      f-1     :     0.001027
      f+2     :     0.000944
      f-2     :     0.000849
      f+3     :     0.001518
      f-3     :     0.001604

  3 C s       :     3.178344  s :     3.178344
      pz      :     0.978627  p :     2.792531
      px      :     0.916108
      py      :     0.897796
      dz2     :     0.033757  d :     0.117882
      dxz     :     0.017197
      dyz     :     0.018337
      dx2y2   :     0.019947
      dxy     :     0.028644
      f0      :     0.001305  f :     0.007995
      f+1     :     0.000818
      f-1     :     0.001027
      f+2     :     0.000968
      f-2     :     0.000825
      f+3     :     0.001411
      f-3     :     0.001642

  4 N s       :     3.482460  s :     3.482460
      pz      :     1.656408  p :     3.780311
      px      :     1.067915
      py      :     1.055989
      dz2     :     0.006277  d :     0.059526
      dxz     :     0.007910
      dyz     :     0.015840
      dx2y2   :     0.018442
      dxy     :     0.011057
      f0      :     0.000576  f :     0.003178
      f+1     :     0.000334
      f-1     :     0.000615
      f+2     :     0.000287
      f-2     :     0.000364
      f+3     :     0.000470
      f-3     :     0.000533

  5 C s       :     3.178279  s :     3.178279
      pz      :     0.978623  p :     2.792557
      px      :     0.916107
      py      :     0.897828
      dz2     :     0.033759  d :     0.117883
      dxz     :     0.017199
      dyz     :     0.018334
      dx2y2   :     0.019949
      dxy     :     0.028641
      f0      :     0.001305  f :     0.007995
      f+1     :     0.000818
      f-1     :     0.001027
      f+2     :     0.000968
      f-2     :     0.000825
      f+3     :     0.001411
      f-3     :     0.001642

  6 C s       :     3.188186  s :     3.188186
      pz      :     0.990837  p :     2.812386
      px      :     0.926274
      py      :     0.895275
      dz2     :     0.035940  d :     0.121487
      dxz     :     0.017581
      dyz     :     0.018596
      dx2y2   :     0.019780
      dxy     :     0.029591
      f0      :     0.001302  f :     0.008097
      f+1     :     0.000854
      f-1     :     0.001027
      f+2     :     0.000944
      f-2     :     0.000848
      f+3     :     0.001518
      f-3     :     0.001604

  7 H s       :     0.865299  s :     0.865299
      pz      :     0.005327  p :     0.020607
      px      :     0.005605
      py      :     0.009675

  8 H s       :     0.887292  s :     0.887292
      pz      :     0.012416  p :     0.019846
      px      :     0.003566
      py      :     0.003864

  9 H s       :     0.865299  s :     0.865299
      pz      :     0.005327  p :     0.020607
      px      :     0.005604
      py      :     0.009676

 10 H s       :     0.904410  s :     0.904410
      pz      :     0.013138  p :     0.020222
      px      :     0.003675
      py      :     0.003408

 11 H s       :     0.882326  s :     0.882326
      pz      :     0.004947  p :     0.020653
      px      :     0.005871
      py      :     0.009835

 12 H s       :     0.881665  s :     0.881665
      pz      :     0.004943  p :     0.020595
      px      :     0.005791
      py      :     0.009860

 13 H s       :     0.900900  s :     0.900900
      pz      :     0.012994  p :     0.020158
      px      :     0.003724
      py      :     0.003441

 14 H s       :     0.777661  s :     0.777661
      pz      :     0.012207  p :     0.037274
      px      :     0.019138
      py      :     0.005929

 15 H s       :     0.881664  s :     0.881664
      pz      :     0.004943  p :     0.020595
      px      :     0.005791
      py      :     0.009861

 16 H s       :     0.900909  s :     0.900909
      pz      :     0.012994  p :     0.020158
      px      :     0.003724
      py      :     0.003441

 17 H s       :     0.904411  s :     0.904411
      pz      :     0.013138  p :     0.020222
      px      :     0.003675
      py      :     0.003408

 18 H s       :     0.882328  s :     0.882328
      pz      :     0.004948  p :     0.020653
      px      :     0.005872
      py      :     0.009834


------------------------
MULLIKEN OVERLAP CHARGES
------------------------
B(  0-C ,  1-N ) :   0.6503 B(  0-C ,  2-C ) :  -0.1121 B(  0-C ,  6-C ) :  -0.1121 
B(  0-C ,  7-H ) :   0.8165 B(  0-C ,  8-H ) :   0.8510 B(  0-C ,  9-H ) :   0.8165 
B(  1-N ,  2-C ) :   0.6669 B(  1-N ,  3-C ) :  -0.1377 B(  1-N ,  5-C ) :  -0.1377 
B(  1-N ,  6-C ) :   0.6669 B(  1-N ,  7-H ) :  -0.0783 B(  1-N ,  8-H ) :  -0.1051 
B(  1-N ,  9-H ) :  -0.0783 B(  1-N , 10-H ) :  -0.1041 B(  1-N , 11-H ) :  -0.0824 
B(  1-N , 17-H ) :  -0.1041 B(  1-N , 18-H ) :  -0.0824 B(  2-C ,  3-C ) :   0.7051 
B(  2-C ,  4-N ) :  -0.0956 B(  2-C ,  6-C ) :  -0.0673 B(  2-C , 10-H ) :   0.8142 
B(  2-C , 11-H ) :   0.7855 B(  2-C , 13-H ) :  -0.1268 B(  3-C ,  4-N ) :   0.6512 
B(  3-C , 10-H ) :  -0.0924 B(  3-C , 12-H ) :   0.7843 B(  3-C , 13-H ) :   0.8726 
B(  3-C , 14-H ) :  -0.0830 B(  4-N ,  5-C ) :   0.6512 B(  4-N ,  6-C ) :  -0.0957 
B(  4-N , 12-H ) :  -0.0604 B(  4-N , 13-H ) :  -0.1225 B(  4-N , 14-H ) :   0.7157 
B(  4-N , 15-H ) :  -0.0604 B(  4-N , 16-H ) :  -0.1225 B(  5-C ,  6-C ) :   0.7051 
B(  5-C , 14-H ) :  -0.0830 B(  5-C , 15-H ) :   0.7842 B(  5-C , 16-H ) :   0.8726 
B(  5-C , 17-H ) :  -0.0924 B(  6-C , 16-H ) :  -0.1269 B(  6-C , 17-H ) :   0.8141 
B(  6-C , 18-H ) :   0.7856 B(  7-H ,  8-H ) :  -0.0823 B(  8-H ,  9-H ) :  -0.0823 
B( 10-H , 11-H ) :  -0.0787 B( 12-H , 13-H ) :  -0.0701 B( 15-H , 16-H ) :  -0.0701 
B( 17-H , 18-H ) :  -0.0787 


                     *******************************
                     * LOEWDIN POPULATION ANALYSIS *
                     *******************************

----------------------
LOEWDIN ATOMIC CHARGES
----------------------
   0 C :   -0.322193
   1 N :    0.057769
   2 C :   -0.284759
   3 C :   -0.304857
   4 N :   -0.023925
   5 C :   -0.304857
   6 C :   -0.284759
   7 H :    0.112264
   8 H :    0.098913
   9 H :    0.112264
  10 H :    0.119837
  11 H :    0.129427
  12 H :    0.126540
  13 H :    0.116797
  14 H :    0.158938
  15 H :    0.126539
  16 H :    0.116797
  17 H :    0.119837
  18 H :    0.129427

-------------------------------
LOEWDIN REDUCED ORBITAL CHARGES
-------------------------------
  0 C s       :     2.840219  s :     2.840219
      pz      :     1.072118  p :     3.087515
      px      :     0.928609
      py      :     1.086787
      dz2     :     0.086039  d :     0.354714
      dxz     :     0.098016
      dyz     :     0.017658
      dx2y2   :     0.056138
      dxy     :     0.096864
      f0      :     0.006245  f :     0.039745
      f+1     :     0.005571
      f-1     :     0.000366
      f+2     :     0.009208
      f-2     :     0.004349
      f+3     :     0.007296
      f-3     :     0.006710

  1 N s       :     2.946215  s :     2.946215
      pz      :     1.480639  p :     3.691929
      px      :     1.103488
      py      :     1.107802
      dz2     :     0.035739  d :     0.283111
      dxz     :     0.041320
      dyz     :     0.043375
      dx2y2   :     0.084742
      dxy     :     0.077934
      f0      :     0.000992  f :     0.020976
      f+1     :     0.002155
      f-1     :     0.002400
      f+2     :     0.003729
      f-2     :     0.003423
      f+3     :     0.002692
      f-3     :     0.005586

  2 C s       :     2.786048  s :     2.786048
      pz      :     1.021404  p :     2.966734
      px      :     1.008350
      py      :     0.936980
      dz2     :     0.125267  d :     0.478559
      dxz     :     0.066998
      dyz     :     0.075275
      dx2y2   :     0.098327
      dxy     :     0.112692
      f0      :     0.006349  f :     0.053418
      f+1     :     0.005307
      f-1     :     0.005369
      f+2     :     0.008701
      f-2     :     0.008972
      f+3     :     0.008569
      f-3     :     0.010151

  3 C s       :     2.788772  s :     2.788772
      pz      :     1.024588  p :     2.983596
      px      :     1.015440
      py      :     0.943568
      dz2     :     0.125415  d :     0.479095
      dxz     :     0.069231
      dyz     :     0.077058
      dx2y2   :     0.096962
      dxy     :     0.110429
      f0      :     0.006240  f :     0.053393
      f+1     :     0.005158
      f-1     :     0.005666
      f+2     :     0.008990
      f-2     :     0.008914
      f+3     :     0.008470
      f-3     :     0.009955

  4 N s       :     3.007832  s :     3.007832
      pz      :     1.554270  p :     3.789694
      px      :     1.104919
      py      :     1.130505
      dz2     :     0.027194  d :     0.211218
      dxz     :     0.018248
      dyz     :     0.044350
      dx2y2   :     0.075443
      dxy     :     0.045984
      f0      :     0.000778  f :     0.015181
      f+1     :     0.000979
      f-1     :     0.002415
      f+2     :     0.002656
      f-2     :     0.002924
      f+3     :     0.002415
      f-3     :     0.003014

  5 C s       :     2.788772  s :     2.788772
      pz      :     1.024586  p :     2.983596
      px      :     1.015434
      py      :     0.943577
      dz2     :     0.125420  d :     0.479095
      dxz     :     0.069236
      dyz     :     0.077049
      dx2y2   :     0.096967
      dxy     :     0.110423
      f0      :     0.006240  f :     0.053393
      f+1     :     0.005158
      f-1     :     0.005666
      f+2     :     0.008990
      f-2     :     0.008915
      f+3     :     0.008470
      f-3     :     0.009955

  6 C s       :     2.786048  s :     2.786048
      pz      :     1.021407  p :     2.966733
      px      :     1.008356
      py      :     0.936970
      dz2     :     0.125262  d :     0.478559
      dxz     :     0.066994
      dyz     :     0.075284
      dx2y2   :     0.098322
      dxy     :     0.112698
      f0      :     0.006350  f :     0.053418
      f+1     :     0.005306
      f-1     :     0.005369
      f+2     :     0.008701
      f-2     :     0.008971
      f+3     :     0.008568
      f-3     :     0.010152

  7 H s       :     0.828506  s :     0.828506
      pz      :     0.016162  p :     0.059230
      px      :     0.014851
      py      :     0.028217

  8 H s       :     0.842057  s :     0.842057
      pz      :     0.036168  p :     0.059030
      px      :     0.010294
      py      :     0.012568

  9 H s       :     0.828505  s :     0.828505
      pz      :     0.016161  p :     0.059230
      px      :     0.014850
      py      :     0.028220

 10 H s       :     0.822986  s :     0.822986
      pz      :     0.035436  p :     0.057177
      px      :     0.011328
      py      :     0.010413

 11 H s       :     0.813749  s :     0.813749
      pz      :     0.015538  p :     0.056824
      px      :     0.016204
      py      :     0.025081

 12 H s       :     0.816469  s :     0.816469
      pz      :     0.015576  p :     0.056991
      px      :     0.016066
      py      :     0.025349

 13 H s       :     0.826025  s :     0.826025
      pz      :     0.035037  p :     0.057179
      px      :     0.011700
      py      :     0.010442

 14 H s       :     0.734164  s :     0.734164
      pz      :     0.039323  p :     0.106898
      px      :     0.049446
      py      :     0.018128

 15 H s       :     0.816470  s :     0.816470
      pz      :     0.015576  p :     0.056991
      px      :     0.016065
      py      :     0.025351

 16 H s       :     0.826025  s :     0.826025
      pz      :     0.035037  p :     0.057179
      px      :     0.011700
      py      :     0.010442

 17 H s       :     0.822986  s :     0.822986
      pz      :     0.035436  p :     0.057177
      px      :     0.011328
      py      :     0.010413

 18 H s       :     0.813749  s :     0.813749
      pz      :     0.015539  p :     0.056824
      px      :     0.016205
      py      :     0.025080


---------------------------------
LOEWDIN BOND ORDERS (THRESH 0.050000)
---------------------------------
B(  0-C ,  1-N ) :   1.3199 B(  0-C ,  2-C ) :   0.1825 B(  0-C ,  6-C ) :   0.1825 
B(  0-C ,  7-H ) :   0.9183 B(  0-C ,  8-H ) :   0.9166 B(  0-C ,  9-H ) :   0.9183 
B(  1-N ,  2-C ) :   1.2503 B(  1-N ,  3-C ) :   0.1191 B(  1-N ,  5-C ) :   0.1191 
B(  1-N ,  6-C ) :   1.2503 B(  1-N ,  7-H ) :   0.0581 B(  1-N ,  8-H ) :   0.0615 
B(  1-N ,  9-H ) :   0.0581 B(  1-N , 10-H ) :   0.0567 B(  1-N , 11-H ) :   0.0549 
B(  1-N , 17-H ) :   0.0567 B(  1-N , 18-H ) :   0.0549 B(  2-C ,  3-C ) :   1.2277 
B(  2-C ,  4-N ) :   0.1240 B(  2-C ,  6-C ) :   0.1649 B(  2-C , 10-H ) :   0.8527 
B(  2-C , 11-H ) :   0.8580 B(  2-C , 12-H ) :   0.0805 B(  2-C , 13-H ) :   0.0775 
B(  3-C ,  4-N ) :   1.3353 B(  3-C ,  5-C ) :   0.1730 B(  3-C , 10-H ) :   0.0753 
B(  3-C , 11-H ) :   0.0791 B(  3-C , 12-H ) :   0.8672 B(  3-C , 13-H ) :   0.8634 
B(  3-C , 14-H ) :   0.0865 B(  4-N ,  5-C ) :   1.3353 B(  4-N ,  6-C ) :   0.1240 
B(  4-N , 12-H ) :   0.0570 B(  4-N , 13-H ) :   0.0550 B(  4-N , 14-H ) :   0.9015 
B(  4-N , 15-H ) :   0.0570 B(  4-N , 16-H ) :   0.0550 B(  5-C ,  6-C ) :   1.2277 
B(  5-C , 14-H ) :   0.0865 B(  5-C , 15-H ) :   0.8672 B(  5-C , 16-H ) :   0.8634 
B(  5-C , 17-H ) :   0.0753 B(  5-C , 18-H ) :   0.0791 B(  6-C , 15-H ) :   0.0805 
B(  6-C , 16-H ) :   0.0775 B(  6-C , 17-H ) :   0.8527 B(  6-C , 18-H ) :   0.8580 


------------------------------------------
LOEWDIN REDUCED ORBITAL POPULATIONS PER MO
-------------------------------------------
THRESHOLD FOR PRINTING IS 0.1%%
                      0         1         2         3         4         5   
                 -14.39956 -14.39305 -10.28854 -10.28853 -10.28701 -10.28700
                   2.00000   2.00000   2.00000   2.00000   2.00000   2.00000
                  --------  --------  --------  --------  --------  --------
 1 N  s              99.4       0.0       0.0       0.0       0.0       0.0
 1 N  py              0.0       0.0       0.0       0.0       0.1       0.0
 2 C  s               0.0       0.0       0.2       0.2      49.3      49.6
 3 C  s               0.0       0.0      49.3      49.6       0.2       0.2
 4 N  s               0.0      99.5       0.0       0.0       0.0       0.0
 4 N  py              0.0       0.0       0.1       0.0       0.0       0.0
 5 C  s               0.0       0.0      49.6      49.3       0.2       0.2
 6 C  s               0.0       0.0       0.2       0.2      49.6      49.4

                      6         7         8         9        10        11   
                 -10.28354  -1.07294  -1.01969  -0.89125  -0.84396  -0.75903
                   2.00000   2.00000   2.00000   2.00000   2.00000   2.00000
                  --------  --------  --------  --------  --------  --------
 0 C  s              99.5       4.5       4.6       0.0      19.6       0.0
 0 C  pz              0.0       0.1       0.1       0.0       0.0       0.0
 0 C  px              0.0       3.6       2.3       0.0       0.4       0.0
 0 C  py              0.0       0.0       0.0       0.5       0.0       1.9
 0 C  dz2             0.0       0.2       0.2       0.0       0.0       0.0
 0 C  dx2y2           0.0       0.7       0.5       0.0       0.0       0.0
 0 C  dxy             0.0       0.0       0.0       0.1       0.0       0.4
 1 N  s               0.0      20.5      12.7       0.0       0.2       0.0
 1 N  pz              0.0       1.2       0.5       0.0       0.0       0.0
 1 N  px              0.1       0.2       0.8       0.0      14.7       0.0
 1 N  py              0.0       0.0       0.0       8.1       0.0      12.5
 1 N  dz2             0.0       0.2       0.1       0.0       0.0       0.0
 1 N  dxz             0.0       0.0       0.0       0.0       0.4       0.0
 1 N  dyz             0.0       0.0       0.0       0.2       0.0       0.5
 1 N  dx2y2           0.1       0.0       0.0       0.0       0.7       0.0
 1 N  dxy             0.0       0.0       0.0       0.6       0.0       0.2
 2 C  s               0.0       8.1       0.9      12.0       5.4       6.0
 2 C  pz              0.0       0.4       0.1       0.1       0.0       0.1
 2 C  px              0.0       0.1       3.9       1.1       1.6       4.8
 2 C  py              0.0       3.3       1.0       0.7       0.1       0.2
 2 C  dz2             0.0       0.4       0.0       0.0       0.0       0.1
 2 C  dxz             0.0       0.0       0.1       0.1       0.1       0.2
 2 C  dyz             0.0       0.2       0.1       0.0       0.0       0.0
 2 C  dx2y2           0.0       0.0       0.4       0.5       0.0       0.1
 2 C  dxy             0.0       0.3       0.7       0.0       0.1       0.0
 2 C  f+3             0.0       0.1       0.0       0.1       0.0       0.0
 3 C  s               0.0       5.7       4.9      11.7       1.4       6.9
 3 C  pz              0.0       0.3       0.3       0.1       0.0       0.1
 3 C  px              0.0       0.3       2.5       1.2       4.1       3.8
 3 C  py              0.0       2.1       2.7       0.7       0.8       0.2
 3 C  dz2             0.0       0.3       0.1       0.0       0.0       0.1
 3 C  dxz             0.0       0.0       0.1       0.1       0.2       0.1
 3 C  dyz             0.0       0.1       0.2       0.0       0.1       0.0
 3 C  dx2y2           0.0       0.0       0.5       0.5       0.3       0.1
 3 C  dxy             0.0       0.1       0.8       0.0       0.3       0.0
 4 N  s               0.0      10.3      24.9       0.0       4.7       0.0
 4 N  pz              0.0       0.6       1.1       0.0       0.1       0.0
 4 N  px              0.0       0.7       0.0       0.0       2.7       0.0
 4 N  py              0.0       0.0       0.0       7.6       0.0      11.6
 4 N  dyz             0.0       0.0       0.0       0.2       0.0       0.5
 4 N  dxy             0.0       0.0       0.0       0.6       0.0       0.2
 5 C  s               0.0       5.7       4.9      11.7       1.4       6.9
 5 C  pz              0.0       0.3       0.3       0.1       0.0       0.1
 5 C  px              0.0       0.3       2.5       1.2       4.1       3.8
 5 C  py              0.0       2.1       2.6       0.7       0.8       0.3
 5 C  dz2             0.0       0.3       0.1       0.0       0.0       0.1
 5 C  dxz             0.0       0.0       0.1       0.1       0.2       0.1
 5 C  dyz             0.0       0.1       0.2       0.0       0.1       0.0
 5 C  dx2y2           0.0       0.0       0.5       0.5       0.3       0.1
 5 C  dxy             0.0       0.1       0.8       0.0       0.3       0.0
 6 C  s               0.0       8.1       0.9      12.0       5.4       6.0
 6 C  pz              0.0       0.4       0.1       0.1       0.0       0.1
 6 C  px              0.0       0.1       3.9       1.1       1.6       4.8
 6 C  py              0.0       3.3       1.0       0.7       0.1       0.2
 6 C  dz2             0.0       0.4       0.0       0.0       0.0       0.1
 6 C  dxz             0.0       0.0       0.1       0.1       0.1       0.2
 6 C  dyz             0.0       0.2       0.1       0.0       0.0       0.0
 6 C  dx2y2           0.0       0.0       0.4       0.5       0.0       0.1
 6 C  dxy             0.0       0.3       0.7       0.0       0.1       0.0
 6 C  f+3             0.0       0.1       0.0       0.1       0.0       0.0
 7 H  s               0.1       0.6       0.7       0.0       5.3       0.2
 7 H  px              0.0       0.0       0.0       0.0       0.1       0.0
 7 H  py              0.0       0.0       0.0       0.0       0.4       0.0
 8 H  s               0.0       0.6       0.7       0.0       4.6       0.0
 8 H  pz              0.0       0.0       0.1       0.0       0.5       0.0
 9 H  s               0.1       0.6       0.7       0.0       5.3       0.2
 9 H  px              0.0       0.0       0.0       0.0       0.1       0.0
 9 H  py              0.0       0.0       0.0       0.0       0.4       0.0
10 H  s               0.0       1.1       0.1       2.4       1.2       2.0
10 H  pz              0.0       0.1       0.0       0.3       0.1       0.2
11 H  s               0.0       1.1       0.2       3.1       1.1       3.4
11 H  px              0.0       0.0       0.0       0.1       0.0       0.0
11 H  py              0.0       0.1       0.0       0.2       0.1       0.3
12 H  s               0.0       0.8       0.8       3.0       0.3       3.7
12 H  py              0.0       0.0       0.1       0.2       0.0       0.3
13 H  s               0.0       0.8       0.7       2.4       0.4       2.3
13 H  pz              0.0       0.1       0.1       0.2       0.0       0.2
14 H  s               0.0       2.1       5.9       0.0       3.0       0.0
14 H  px              0.0       0.3       1.0       0.0       0.4       0.0
14 H  py              0.0       0.0       0.0       0.0       0.0       0.1
15 H  s               0.0       0.8       0.8       3.0       0.3       3.7
15 H  py              0.0       0.0       0.1       0.2       0.0       0.3
16 H  s               0.0       0.8       0.7       2.4       0.4       2.3
16 H  pz              0.0       0.1       0.1       0.2       0.0       0.2
17 H  s               0.0       1.1       0.1       2.4       1.2       2.0
17 H  pz              0.0       0.1       0.0       0.3       0.1       0.2
18 H  s               0.0       1.1       0.2       3.1       1.1       3.4
18 H  px              0.0       0.0       0.0       0.1       0.0       0.0
18 H  py              0.0       0.1       0.0       0.2       0.1       0.3

                     12        13        14        15        16        17   
                  -0.75519  -0.67418  -0.63035  -0.57584  -0.57261  -0.55548
                   2.00000   2.00000   2.00000   2.00000   2.00000   2.00000
                  --------  --------  --------  --------  --------  --------
 0 C  s              11.4       0.2       0.7       0.2       0.0       0.0
 0 C  pz              0.2       1.7       0.9       2.0       0.0       0.0
 0 C  px              5.4       1.1       3.4       7.7       0.0       0.0
 0 C  py              0.0       0.0       0.0       0.0       9.5      10.8
 0 C  dz2             0.2       0.0       0.1       0.0       0.0       0.0
 0 C  dxz             0.1       0.2       0.1       0.0       0.0       0.0
 0 C  dyz             0.0       0.0       0.0       0.0       0.3       0.1
 0 C  dx2y2           0.7       0.1       0.1       0.4       0.0       0.0
 1 N  s               5.8       3.7       0.3       0.3       0.0       0.0
 1 N  pz              0.2       3.7       0.6       5.7       0.0       0.0
 1 N  px              2.3       0.1       3.0       3.8       0.0       0.0
 1 N  py              0.0       0.0       0.0       0.0      11.4       4.3
 1 N  dz2             0.1       0.0       0.0       0.4       0.0       0.0
 1 N  dyz             0.0       0.0       0.0       0.0       0.0       0.4
 1 N  dx2y2           0.3       0.2       0.3       0.3       0.0       0.0
 1 N  dxy             0.0       0.0       0.0       0.0       0.0       0.3
 2 C  s               0.7       3.8       0.3       0.8       0.6       0.1
 2 C  pz              0.0       6.9       0.5       6.2      10.3       2.4
 2 C  px              2.5       0.6       2.1       0.4       2.7       2.6
 2 C  py              4.0       2.0       5.5       1.6       1.4       2.2
 2 C  dz2             0.0       0.2       0.0       0.1       0.1       0.0
 2 C  dxz             0.2       0.0       0.0       0.0       0.0       0.4
 2 C  dyz             0.2       0.2       0.1       0.0       0.0       0.1
 2 C  dx2y2           0.8       0.0       0.0       0.2       0.0       0.1
 2 C  dxy             0.1       0.3       0.3       1.1       0.1       0.0
 3 C  s               4.6       2.5       0.3       0.8       0.2       0.1
 3 C  pz              0.1       5.7       1.0       3.2       8.3       5.9
 3 C  px              0.8       0.3       1.6       2.9       0.5       7.3
 3 C  py              2.5       0.1       8.0       3.7       0.0       2.3
 3 C  dxz             0.1       0.1       0.1       0.0       0.3       0.1
 3 C  dyz             0.1       0.1       0.3       0.0       0.0       0.0
 3 C  dx2y2           0.0       0.2       0.4       0.3       0.0       0.0
 3 C  dxy             0.1       0.5       0.2       0.6       0.0       0.0
 4 N  s               3.0       2.0       0.1       0.2       0.0       0.0
 4 N  pz              0.1       2.7       0.1       1.6       0.0       0.0
 4 N  px              3.1       1.9      22.0       1.1       0.0       0.0
 4 N  py              0.0       0.0       0.0       0.0       0.1      19.2
 4 N  dz2             0.0       0.0       0.0       0.1       0.0       0.0
 4 N  dxz             0.1       0.1       0.2       0.0       0.0       0.0
 4 N  dyz             0.0       0.0       0.0       0.0       0.3       0.1
 4 N  dx2y2           0.2       0.2       0.0       0.8       0.0       0.0
 5 C  s               4.6       2.5       0.3       0.8       0.2       0.1
 5 C  pz              0.1       5.7       1.0       3.2       8.3       5.9
 5 C  px              0.8       0.3       1.6       2.9       0.5       7.3
 5 C  py              2.5       0.1       8.0       3.7       0.0       2.3
 5 C  dxz             0.1       0.1       0.1       0.0       0.3       0.1
 5 C  dyz             0.1       0.1       0.3       0.0       0.0       0.0
 5 C  dx2y2           0.0       0.2       0.4       0.3       0.0       0.0
 5 C  dxy             0.1       0.5       0.2       0.6       0.0       0.0
 6 C  s               0.7       3.8       0.3       0.8       0.6       0.1
 6 C  pz              0.0       6.9       0.5       6.2      10.3       2.4
 6 C  px              2.5       0.6       2.1       0.4       2.7       2.6
 6 C  py              4.0       2.0       5.5       1.6       1.4       2.2
 6 C  dz2             0.0       0.2       0.0       0.1       0.1       0.0
 6 C  dxz             0.2       0.0       0.0       0.0       0.0       0.4
 6 C  dyz             0.2       0.2       0.1       0.0       0.0       0.1
 6 C  dx2y2           0.8       0.0       0.0       0.2       0.0       0.1
 6 C  dxy             0.1       0.3       0.3       1.1       0.1       0.0
 7 H  s               5.4       0.1       0.6       2.1       2.7       3.0
 7 H  py              0.4       0.0       0.0       0.1       0.0       0.0
 8 H  s               4.8       1.1       1.4       0.2       0.0       0.0
 8 H  pz              0.4       0.0       0.1       0.0       0.0       0.0
 8 H  px              0.0       0.0       0.0       0.1       0.0       0.0
 8 H  py              0.0       0.0       0.0       0.0       0.1       0.1
 9 H  s               5.4       0.1       0.6       2.1       2.7       3.0
 9 H  py              0.4       0.0       0.0       0.1       0.0       0.0
10 H  s               0.4       6.6       0.0       0.9       6.2       0.6
10 H  pz              0.0       0.4       0.0       0.0       0.3       0.0
11 H  s               0.8       2.3       3.7       4.1       0.0       0.7
11 H  pz              0.0       0.2       0.0       0.0       0.1       0.0
11 H  px              0.1       0.0       0.0       0.1       0.0       0.1
11 H  py              0.0       0.1       0.1       0.1       0.0       0.0
12 H  s               2.4       0.6       2.9       6.5       0.1       0.2
12 H  py              0.1       0.0       0.0       0.2       0.0       0.1
13 H  s               1.9       4.7       0.9       0.2       4.3       3.0
13 H  pz              0.2       0.3       0.0       0.0       0.2       0.1
14 H  s               2.9       2.0       7.8       1.3       0.0       0.0
14 H  px              0.3       0.1       0.2       0.1       0.0       0.0
14 H  py              0.0       0.0       0.0       0.0       0.0       0.4
15 H  s               2.4       0.6       2.9       6.5       0.1       0.2
15 H  py              0.1       0.0       0.0       0.2       0.0       0.1
16 H  s               1.9       4.7       0.9       0.2       4.3       3.0
16 H  pz              0.2       0.3       0.0       0.0       0.2       0.1
17 H  s               0.4       6.6       0.0       0.9       6.2       0.6
17 H  pz              0.0       0.4       0.0       0.0       0.3       0.0
18 H  s               0.8       2.3       3.7       4.1       0.0       0.7
18 H  pz              0.0       0.2       0.0       0.0       0.1       0.0
18 H  px              0.1       0.0       0.0       0.1       0.0       0.1
18 H  py              0.0       0.1       0.1       0.1       0.0       0.0

                     18        19        20        21        22        23   
                  -0.55445  -0.52979  -0.50138  -0.48321  -0.47111  -0.45146
                   2.00000   2.00000   2.00000   2.00000   2.00000   2.00000
                  --------  --------  --------  --------  --------  --------
 0 C  s               0.1       0.2       0.0       0.0       0.0       0.0
 0 C  pz             22.6       0.8       0.0      23.4       0.0       0.0
 0 C  px              1.6      11.4       0.0       1.4       0.0       0.0
 0 C  py              0.0       0.0       8.0       0.0      20.7       0.2
 0 C  dz2             0.4       0.0       0.0       1.0       0.0       0.0
 0 C  dxz             0.2       0.1       0.0       0.6       0.0       0.0
 0 C  dyz             0.0       0.0       0.1       0.0       0.3       0.1
 0 C  dx2y2           0.0       0.1       0.0       0.0       0.0       0.0
 0 C  dxy             0.0       0.0       0.7       0.0       2.1       0.1
 1 N  s               0.6       0.4       0.0       0.1       0.0       0.0
 1 N  pz              7.3       1.3       0.0       0.3       0.0       0.0
 1 N  px              7.4      13.2       0.0       0.0       0.0       0.0
 1 N  py              0.0       0.0       4.6       0.0       1.1       0.1
 1 N  dz2             0.2       0.0       0.0       0.0       0.0       0.0
 1 N  dxz             0.0       0.3       0.0       1.0       0.0       0.0
 1 N  dyz             0.0       0.0       0.0       0.0       0.0       0.6
 1 N  dx2y2           0.1       0.0       0.0       0.2       0.0       0.0
 1 N  dxy             0.0       0.0       1.9       0.0       0.2       0.1
 1 N  f-3             0.0       0.0       0.0       0.0       0.2       0.0
 2 C  s               0.0       0.0       0.5       0.0       0.0       0.0
 2 C  pz              0.4       1.0       0.7       8.1       1.2      10.5
 2 C  px              0.3       2.4       1.9       0.0       8.9       2.1
 2 C  py              2.2       3.4       7.4       1.3       1.5       0.4
 2 C  dz2             0.1       0.0       0.1       0.7       0.0       1.4
 2 C  dxz             0.6       0.1       0.0       0.1       0.3       0.4
 2 C  dyz             0.0       0.2       0.1       0.0       0.0       0.1
 2 C  dx2y2           0.3       0.2       0.3       0.0       0.5       0.0
 2 C  dxy             0.0       0.2       0.0       0.0       0.2       0.0
 2 C  f-3             0.0       0.2       0.1       0.0       0.0       0.0
 3 C  s               0.0       0.0       0.2       0.0       0.2       0.0
 3 C  pz              6.6       3.3       0.0       2.3       0.0      10.7
 3 C  px              0.2       0.5       2.9       0.3       6.5       2.1
 3 C  py              0.1       4.4      10.6       0.1       0.1       0.4
 3 C  dz2             0.1       0.1       0.0       0.2       0.1       1.4
 3 C  dxz             0.1       0.1       0.0       0.5       0.4       0.4
 3 C  dyz             0.1       0.0       0.3       0.1       0.0       0.1
 3 C  dx2y2           0.1       0.5       0.8       0.0       0.0       0.0
 3 C  dxy             0.0       0.5       0.1       0.0       0.1       0.0
 3 C  f-3             0.1       0.2       0.1       0.0       0.0       0.0
 4 N  s               0.8       0.1       0.0       0.7       0.0       0.0
 4 N  pz              4.0       5.5       0.0       3.1       0.0       0.0
 4 N  px              6.6       8.8       0.0       1.2       0.0       0.0
 4 N  py              0.0       0.0       4.8       0.0       4.3       0.1
 4 N  dz2             0.1       0.3       0.0       0.0       0.0       0.0
 4 N  dxz             0.0       0.2       0.0       0.0       0.0       0.0
 4 N  dyz             0.0       0.0       0.1       0.0       0.1       0.6
 4 N  dx2y2           0.2       0.1       0.0       0.0       0.0       0.0
 4 N  dxy             0.0       0.0       0.8       0.0       0.2       0.1
 5 C  s               0.0       0.0       0.2       0.0       0.2       0.0
 5 C  pz              6.6       3.3       0.0       2.3       0.0      10.7
 5 C  px              0.2       0.5       2.9       0.3       6.5       2.1
 5 C  py              0.1       4.4      10.6       0.1       0.1       0.4
 5 C  dz2             0.1       0.1       0.0       0.2       0.1       1.4
 5 C  dxz             0.1       0.1       0.0       0.5       0.4       0.4
 5 C  dyz             0.1       0.0       0.3       0.1       0.0       0.1
 5 C  dx2y2           0.1       0.5       0.8       0.0       0.0       0.0
 5 C  dxy             0.0       0.5       0.1       0.0       0.1       0.0
 5 C  f-3             0.1       0.2       0.1       0.0       0.0       0.0
 6 C  s               0.0       0.0       0.5       0.0       0.0       0.0
 6 C  pz              0.4       1.0       0.7       8.1       1.2      10.5
 6 C  px              0.3       2.4       1.9       0.0       8.9       2.1
 6 C  py              2.2       3.4       7.4       1.3       1.5       0.4
 6 C  dz2             0.1       0.0       0.1       0.7       0.0       1.4
 6 C  dxz             0.6       0.1       0.0       0.1       0.3       0.4
[...]
 2 C  f-2             0.3       0.2       0.5       0.0       0.1       0.1
 2 C  f+3             0.0       0.1       0.0       0.0       0.0       0.2
 2 C  f-3             0.0       0.1       0.3       0.4       0.1       0.0
 3 C  s               1.5       0.5       0.2       0.1       0.2       0.7
 3 C  pz              0.2       0.3       0.0       0.0       0.1       0.1
 3 C  px              0.1       2.0       0.0       0.0       0.5       0.1
 3 C  py              2.2       0.5       0.1       0.0       0.6       0.3
 3 C  dz2             0.4       0.1       0.0       0.0       0.1       0.1
 3 C  dxz             0.1       0.3       0.1       0.0       0.3       0.1
 3 C  dyz             0.5       0.3       0.0       0.0       0.8       0.5
 3 C  dx2y2           1.8       0.2       0.1       0.0       0.8       0.3
 3 C  dxy             1.3       1.1       0.0       0.1       0.6       0.3
 3 C  f+1             0.0       0.2       0.0       0.0       0.0       0.0
 3 C  f+2             0.6       0.0       0.0       0.0       0.2       0.1
 3 C  f-2             1.1       0.0       0.1       0.0       0.3       0.1
 3 C  f+3             0.0       0.0       0.0       0.0       0.0       0.1
 3 C  f-3             1.5       1.2       0.0       0.0       0.2       0.0
 4 N  s               0.0       2.3       0.0       0.0      13.7       6.9
 4 N  pz              0.0       0.3       0.0       0.0       1.0       0.8
 4 N  px              0.0       2.4       0.0       0.1       0.5       0.1
 4 N  py              4.1       0.0       0.2       0.0       0.0       0.0
 4 N  dz2             0.0       2.7       0.0       0.1       1.7       0.6
 4 N  dxz             0.0       0.3       0.0       0.1       0.1       0.0
 4 N  dyz             2.7       0.0       0.5       0.0       0.0       0.0
 4 N  dx2y2           0.0      34.6       0.0       0.7       0.5       1.9
 4 N  dxy            19.4       0.0       2.0       0.0       0.0       0.0
 4 N  f0              0.0       0.6       0.0       0.0       6.0       3.4
 4 N  f+1             0.0       3.8       0.0       0.0       0.4       0.0
 4 N  f-1             0.2       0.0       0.0       0.0       0.0       0.0
 4 N  f+2             0.0      26.9       0.0       0.1       1.1       0.9
 4 N  f-2            23.2       0.0       0.3       0.0       0.0       0.0
 4 N  f+3             0.0       0.2       0.0       0.1      24.4       9.5
 4 N  f-3            16.1       0.0       0.2       0.0       0.0       0.0
 5 C  s               1.5       0.5       0.2       0.1       0.2       0.7
 5 C  pz              0.2       0.3       0.0       0.0       0.1       0.1
 5 C  px              0.1       2.0       0.0       0.0       0.5       0.1
 5 C  py              2.2       0.5       0.1       0.0       0.6       0.3
 5 C  dz2             0.4       0.1       0.0       0.0       0.1       0.1
 5 C  dxz             0.1       0.3       0.1       0.0       0.3       0.1
 5 C  dyz             0.5       0.3       0.0       0.0       0.8       0.5
 5 C  dx2y2           1.8       0.2       0.1       0.0       0.8       0.3
 5 C  dxy             1.3       1.1       0.0       0.1       0.6       0.3
 5 C  f+1             0.0       0.2       0.0       0.0       0.0       0.0
 5 C  f+2             0.6       0.0       0.0       0.0       0.2       0.1
 5 C  f-2             1.1       0.0       0.1       0.0       0.3       0.1
 5 C  f+3             0.0       0.0       0.0       0.0       0.0       0.1
 5 C  f-3             1.5       1.2       0.0       0.0       0.2       0.0
 6 C  s               0.2       0.5       1.8       0.9       0.1       1.1
 6 C  pz              0.0       0.0       0.4       0.2       0.0       0.2
 6 C  px              0.2       0.1       0.3       1.5       0.4       0.3
 6 C  py              0.9       0.0       2.0       0.3       0.3       1.0
 6 C  dz2             0.0       0.0       0.3       0.1       0.1       0.2
 6 C  dxz             0.0       0.1       0.2       0.2       0.2       0.4
 6 C  dyz             0.1       0.0       0.4       0.2       0.3       1.0
 6 C  dx2y2           0.1       0.0       0.7       0.3       0.4       0.5
 6 C  dxy             0.2       0.3       1.3       0.7       0.5       1.0
 6 C  f0              0.0       0.1       0.2       0.1       0.0       0.1
 6 C  f-1             0.2       0.0       0.0       0.0       0.0       0.0
 6 C  f+2             0.0       0.0       0.0       0.2       0.1       0.1
 6 C  f-2             0.3       0.2       0.5       0.0       0.1       0.1
 6 C  f+3             0.0       0.1       0.0       0.0       0.0       0.2
 6 C  f-3             0.0       0.1       0.3       0.4       0.1       0.0
 8 H  s               0.0       0.0       0.0       0.3       0.0       0.0
10 H  s               0.0       0.0       0.1       0.0       0.0       0.0
12 H  s               0.2       0.0       0.0       0.0       0.0       0.0
14 H  s               0.0       4.5       0.0       0.0       7.3       3.2
14 H  px              0.0       0.0       0.0       0.0       1.2       0.3
15 H  s               0.2       0.0       0.0       0.0       0.0       0.0
17 H  s               0.0       0.0       0.1       0.0       0.0       0.0

                    282       283       284       285       286       287   
                  22.50222  22.54675  22.58881  22.60604  22.67612  32.33491
                   0.00000   0.00000   0.00000   0.00000   0.00000   0.00000
                  --------  --------  --------  --------  --------  --------
 0 C  s              68.9      21.7       0.0       7.6       0.0       0.0
 1 N  s               0.4       0.0       0.0       0.2       0.0      10.1
 1 N  px              0.1       0.1       0.0       0.2       0.0       0.0
 1 N  py              0.0       0.0       0.1       0.0       0.2       0.0
 2 C  s               6.6       0.6      16.4      42.0      32.8       0.0
 3 C  s               8.0      37.7      32.7       3.4      16.6       0.0
 4 N  s               0.1       0.3       0.0       0.0       0.0      89.6
 4 N  py              0.0       0.0       0.2       0.0       0.1       0.0
 5 C  s               8.0      37.7      32.7       3.4      16.6       0.0
 6 C  s               6.6       0.6      16.4      42.0      32.8       0.0
 7 H  s               0.1       0.0       0.0       0.0       0.0       0.0
 8 H  s               0.1       0.0       0.0       0.0       0.0       0.0
 9 H  s               0.1       0.0       0.0       0.0       0.0       0.0
12 H  s               0.0       0.1       0.1       0.0       0.0       0.0
15 H  s               0.0       0.1       0.1       0.0       0.0       0.0

                    288   
                  32.70030
                   0.00000
                  --------
 1 N  s              89.7
 4 N  s              10.1


                      *****************************
                      * MAYER POPULATION ANALYSIS *
                      *****************************

  NA   - Mulliken gross atomic population
  ZA   - Total nuclear charge
  QA   - Mulliken gross atomic charge
  VA   - Mayer's total valence
  BVA  - Mayer's bonded valence
  FA   - Mayer's free valence

  ATOM       NA         ZA         QA         VA         BVA        FA
  0 C      6.2768     6.0000    -0.2768     3.9445     3.9445    -0.0000
  1 N      7.1482     7.0000    -0.1482     2.9341     2.9341    -0.0000
  2 C      6.1301     6.0000    -0.1301     3.9799     3.9799     0.0000
  3 C      6.0968     6.0000    -0.0968     4.0227     4.0227    -0.0000
  4 N      7.3255     7.0000    -0.3255     2.9628     2.9628     0.0000
  5 C      6.0967     6.0000    -0.0967     4.0227     4.0227     0.0000
  6 C      6.1302     6.0000    -0.1302     3.9800     3.9800     0.0000
  7 H      0.8859     1.0000     0.1141     0.9703     0.9703    -0.0000
  8 H      0.9071     1.0000     0.0929     0.9770     0.9770     0.0000
  9 H      0.8859     1.0000     0.1141     0.9703     0.9703    -0.0000
 10 H      0.9246     1.0000     0.0754     0.9903     0.9903     0.0000
 11 H      0.9030     1.0000     0.0970     0.9697     0.9697    -0.0000
 12 H      0.9023     1.0000     0.0977     0.9716     0.9716     0.0000
 13 H      0.9211     1.0000     0.0789     0.9812     0.9812     0.0000
 14 H      0.8149     1.0000     0.1851     0.9546     0.9546     0.0000
 15 H      0.9023     1.0000     0.0977     0.9716     0.9716    -0.0000
 16 H      0.9211     1.0000     0.0789     0.9813     0.9813     0.0000
 17 H      0.9246     1.0000     0.0754     0.9903     0.9903     0.0000
 18 H      0.9030     1.0000     0.0970     0.9697     0.9697    -0.0000

  Mayer bond orders larger than 0.100000
B(  0-C ,  1-N ) :   0.9944 B(  0-C ,  7-H ) :   0.9801 B(  0-C ,  8-H ) :   0.9768 
B(  0-C ,  9-H ) :   0.9801 B(  1-N ,  2-C ) :   0.9932 B(  1-N ,  6-C ) :   0.9932 
B(  2-C ,  3-C ) :   1.0225 B(  2-C , 10-H ) :   0.9623 B(  2-C , 11-H ) :   0.9638 
B(  3-C ,  4-N ) :   1.0190 B(  3-C , 12-H ) :   0.9636 B(  3-C , 13-H ) :   0.9762 
B(  4-N ,  5-C ) :   1.0189 B(  4-N , 14-H ) :   0.9402 B(  5-C ,  6-C ) :   1.0225 
B(  5-C , 15-H ) :   0.9636 B(  5-C , 16-H ) :   0.9762 B(  6-C , 17-H ) :   0.9623 
B(  6-C , 18-H ) :   0.9638 

-------
TIMINGS
-------

Total SCF time: 0 days 0 hours 1 min 31 sec 

Total time                  ....      91.857 sec
Sum of individual times     ....      90.037 sec  ( 98.0%)

SCF preparation             ....       0.056 sec  (  0.1%)
Fock matrix formation       ....      89.519 sec  ( 97.5%)
  Startup                   ....       0.003 sec  (  0.0% of F)
  Split-RI-J                ....       3.188 sec  (  3.6% of F)
  Chain of spheres X        ....      79.331 sec  ( 88.6% of F)
  XC integration            ....       8.768 sec  (  9.8% of F)
    Basis function eval.    ....       2.158 sec  ( 24.6% of XC)
    Density eval.           ....       2.010 sec  ( 22.9% of XC)
    XC-Functional eval.     ....       2.089 sec  ( 23.8% of XC)
    XC-Potential eval.      ....       2.408 sec  ( 27.5% of XC)
Diagonalization             ....       0.000 sec  (  0.0%)
Density matrix formation    ....       0.015 sec  (  0.0%)
Total Energy calculation    ....       0.003 sec  (  0.0%)
Population analysis         ....       0.173 sec  (  0.2%)
Orbital Transformation      ....       0.025 sec  (  0.0%)
Orbital Orthonormalization  ....       0.000 sec  (  0.0%)
DIIS solution               ....       0.076 sec  (  0.1%)
  MO trafo                  ....       0.000 sec  (  0.0 % of DIIS)
  Orb grad                  ....       0.000 sec  (  0.0 % of DIIS)
  Energy W gradient         ....       0.000 sec  (  0.0 % of DIIS)
  DIIS error                ....       0.011 sec  ( 13.9 % of DIIS)
  DIIS work                 ....       0.054 sec  ( 70.7 % of DIIS)
  Form Q                    ....       0.000 sec  (  0.0 % of DIIS)
  Form QpQm                 ....       0.000 sec  (  0.0 % of DIIS)
  Exp/Cayley                ....       0.000 sec  (  0.0 % of DIIS)
  Orb update                ....       0.000 sec  (  0.0 % of DIIS)
  Wake-sleep                ....       0.001 sec  (  0.7 % of DIIS)
SOSCF solution              ....       0.043 sec  (  0.0%)
  MO trafo                  ....       0.027 sec  ( 61.7 % of SOSCF)
  Orb grad                  ....       0.000 sec  (  0.7 % of SOSCF)
  Rot update                ....       0.001 sec  (  2.0 % of SOSCF)
  Step                      ....       0.015 sec  ( 35.5 % of SOSCF)
Grid generation             ....       0.127 sec  (  0.1%)
Finished LeanSCF after  91.9 sec

Maximum memory used throughout the entire LEANSCF-calculation: 40.3 MB
------------------   -----------------
gCP correction             0.013660091
------------------   -----------------

-------------------------   --------------------
FINAL SINGLE POINT ENERGY      -307.257637540746
-------------------------   --------------------


------------------------------------------------------------------------------
                              ORCA PROPERTY CALCULATIONS
------------------------------------------------------------------------------

GBWName                                 ... sp.gbw
Number of atoms                         ...     19
Number of basis functions               ...    289
Max core memory                         ...   1024 MB

Electric properties:
Dipole moment                           ... YES
Quadrupole moment                       ...  NO
Static polarizability (Dipole/Dipole)   ...  NO
Static polarizability (Dipole/Quad.)    ...  NO
Static polarizability (Quad./Quad.)     ...  NO
Static polarizability (Velocity)        ...  NO

Atomic electric properties:
Dipole moment                           ...  NO
Quadrupole moment                       ...  NO
Static polarizability                   ...  NO

Choice of electric origin               ... Center of mass
Position of electric origin             ...    -0.003599    -0.000001    -0.008468

General magnetic properties:
Magnetizability                         ...  NO

EPR properties:
g-Tensor (aka g-matrix)                 ...  NO
Zero-Field splitting spin-orbit         ...  NO
Zero-field splitting spin-spin          ...  NO
Hyperfine couplings                     ...  NO (   0 nuclei)
Quadrupole couplings                    ...  NO (   0 nuclei)
Contact density                         ...  NO (   0 nuclei)

NMR properties:
Chemical shifts                         ...  NO (   0 nuclei)
Spin-rotation constants                 ...  NO (   0 nuclei)
Spin-spin couplings                     ...  NO (   0 nuclei,    0 pairs)

Choice of magnetic origin               ... GIAO
Position of magnetic origin             ...     0.000000     0.000000     0.000000

Properties with geometric perturbations:
SCF Hessian                             ...  NO
IR spectrum                             ...  NO
VCD spectrum                            ...  NO
X-ray spectroscopy properties:
SCF XES/XAS/RIXS spectra                ...  NO


-------------
DIPOLE MOMENT
-------------

Method             : SCF
Type of density    : Electron Density
Multiplicity       :   1
Irrep              :   0
Energy             :  -307.2712976313455897 Eh
Relativity type    : 
Basis              : AO
                                X                 Y                 Z
Electronic contribution:     -2.250539060      -0.000061903      -0.470022177
Nuclear contribution   :      2.147678338       0.000060913       0.333450162
                        -----------------------------------------
Total Dipole Moment    :     -0.102860722      -0.000000989      -0.136572014
                        -----------------------------------------
Magnitude (a.u.)       :      0.170974394
Magnitude (Debye)      :      0.434582372



--------------------
Rotational spectrum 
--------------------
 
Rotational constants in cm-1:             0.155824             0.077849             0.056657 
Rotational constants in MHz :          4671.500120          2333.853031          1698.547598 

Dipole components along the rotational axes: 
x,y,z [a.u.] :    -0.104450     0.000000    -0.135361 
x,y,z [Debye]:    -0.265490     0.000000    -0.344059 

 

Dipole moment calculation done in   0.0 sec 

Maximum memory used throughout the entire PROP-calculation: 24.7 MB

--------------------------------
SUGGESTED CITATIONS FOR THIS RUN
--------------------------------

Below you find a list of papers that are relevant to this ORCA run
We neither can nor want to force you to cite these papers, but we appreciate if you do
You receive ORCA, which is the product of decades of hard work by many enthusiastic individuals, for free
The only thing we kindly ask in return is that you cite our papers,
We deeply appreciate it, if you show your appreciation for ORCA by not just citing the generic ORCA reference.

Please note that relegating all ORCA citations to the supporting information does *not* help us.
SI sections are not indexed - citations you put there will not count into any citation statistics
But we need these citations in order to attract the funding resources that allow us to do what we are doing

Therefore, if you are a happy ORCA user, please consider citing a few of the papers listed below in the main body of your paper

In addition to the list printed below, the program has created the file sp.bibtex that contains the list in bibtex format
You can import this file easily into all common literature databanks and citation aid programs


List of essential papers. We consider these as the minimum necessary citations

  1. Neese,F.
     Software update: the ORCA program system, version 5.0
     WIRES Comput. Molec. Sci., 2022 12(1)e1606
     doi.org/10.1002/wcms.1606

List of papers to cite with high priority. The work reported in these papers was absolutely
necessary for this run to complete.
Our perspective: the developers of density functionals and basis sets usually get cited in chemistry papers
Good! But without the algorithms to do something with them, the functionals or basis sets would not do anything.
Hence, in our opinion, the algorithm design and method developments papers are equally worthy of getting cited

  1. Neese,F.
     An improvement of the resolution of the identity approximation for the formation of the Coulomb matrix
     J. Comp. Chem., 2003 24(14)1740-1747
     doi.org/10.1002/jcc.10318
  2. Neese,F.; Wennmohs,F.; Hansen,A.; Becker,U.
     Efficient, approximate and parallel Hartree-Fock and hybrid DFT calculations. A 'chain-of-spheres' algorithm for the Hartree-Fock exchange
     Chem. Phys., 2009 356(1-3)98-109
     doi.org/10.1016/j.chemphys.2008.10.036
  3. Helmich-Paris,B.; de Souza,B.; Neese,F.; Izsák,R.
     An improved chain of spheres for exchange algorithm
     J. Chem. Phys., 2021 155 104109
     doi.org/doi: 10.1063/5.0058766.
  4. Neese,F.
     The SHARK Integral Generation and Digestion System
     J. Comp. Chem., 2022  1-16
     doi.org/10.1002/jcc.26942

List of suggested additional citations. These are papers that are important in the 'surrounding' of 
of this run, or papers that preceded the highly important papers. If you like your results we are grateful for a citation.

  1. Izsak,R.; Neese,F.
     An overlap fitted chain of spheres exchange method
     J. Chem. Phys., 2011 135 144105
     doi.org/10.1063/1.3646921
  2. Izsak,R.; Hansen,A.; Neese,F.
     The resolution of identity and chain of spheres approximations for the LPNO-CCSD singles Fock term
     Molec. Phys., 2012 110 2413-2417
     doi.org/10.1080/00268976.2012.687466
  3. Neese,F.
     The ORCA program system
     WIRES Comput. Molec. Sci., 2012 2(1)73-78
     doi.org/10.1002/wcms.81
  4. Izsak,R.; Neese,F.; Klopper,W.
     Robust fitting techniques in the chain of spheres approximation to the Fock exchange: The role of the complementary space
     J. Chem. Phys., 2013 139 
     doi.org/10.1063/1.4819264
  5. Neese,F.
     Software update: the ORCA program system, version 4.0
     WIRES Comput. Molec. Sci., 2018 8(1)1-6
     doi.org/10.1002/wcms.1327
  6. Neese,F.; Wennmohs,F.; Becker,U.; Riplinger,C.
     The ORCA quantum chemistry program package
     J. Chem. Phys., 2020 152 Art. No. L224108
     doi.org/10.1063/5.0004608

List of optional additional citations

  1. Neese,F.
     Approximate second-order SCF convergence for spin unrestricted wavefunctions
     Chem. Phys. Lett., 2000 325(1-3)93-98
     doi.org/10.1016/s0009-2614(00)00662-x

Timings for individual modules:

Sum of individual times          ...       93.307 sec (=   1.555 min)
Startup calculation              ...        1.301 sec (=   0.022 min)   1.4 %
SCF iterations                   ...       91.956 sec (=   1.533 min)  98.6 %
Property calculations            ...        0.049 sec (=   0.001 min)   0.1 %
                             ****ORCA TERMINATED NORMALLY****
TOTAL RUN TIME: 0 days 0 hours 1 minutes 33 seconds 363 msec
