19
 energy: -25.474441293326 gnorm: 0.027353053739 xtb: 6.7.1 (41059b4)
C            2.19754946661196       -1.18271402609940       -0.10495493972387
C            1.42536755159627        0.12165173686925       -0.05424173493032
O            1.98405867439997        1.21430943539386       -0.02830818974246
N            0.06849160348393        0.01452838538521       -0.02618426969204
C           -0.71700882826070       -1.22449431978090       -0.03696556045813
C           -2.12283177102382       -0.74371698113363        0.33621107279699
C           -2.17679955456756        0.66062293222968       -0.27634963800709
C           -0.77875894372555        1.21465568986237        0.00612914139897
H            3.24291068146178       -0.95007442307260       -0.30493773702440
H            1.81632009822004       -1.86040459262194       -0.87525097658064
H            2.13040810557868       -1.70257903688623        0.85725587996126
H           -0.71536845332305       -1.68612201360227       -1.03679227296973
H           -0.32286006884305       -1.95817406677929        0.67415478779039
H           -2.90361852922172       -1.41240482661040       -0.03455822041972
H           -2.21526165295072       -0.68011328502499        1.42632259647359
H           -2.34157833873399        0.59050824612981       -1.35762867218493
H           -2.96710811541012        1.28447036913635        0.14781738213491
H           -0.43320643249553        1.94286401043137       -0.73297805642821
H           -0.72066865589153        1.69462322856180        0.99293593967409
19
 energy: -25.475577572214 gnorm: 0.006663012850 xtb: 6.7.1 (41059b4)
C            2.19010933163714       -1.18148160243713       -0.10485363983304
C            1.41909176896263        0.11932060306963       -0.05401030106131
O            1.96845661853970        1.20613311258365       -0.03405937306281
N            0.07194861894264        0.01103000383704       -0.02489068187173
C           -0.71287670049265       -1.21290444620363       -0.03148728955614
C           -2.11989625219763       -0.74031557774312        0.33549663464175
C           -2.17570492737481        0.65764798473154       -0.27735187106368
C           -0.77682266484487        1.19775273079191        0.00516695626780
H            3.23415175900491       -0.95352421112317       -0.30249034563685
H            1.80655945318198       -1.84364173270869       -0.87973056131621
H            2.11916182871778       -1.69458841573626        0.85501192829480
H           -0.70241898715591       -1.66610358410180       -1.03201068276265
H           -0.31668741472791       -1.93903485564792        0.68221127661730
H           -2.89606504061272       -1.40394193552105       -0.04332905720507
H           -2.21690071593884       -0.67396302492765        1.42125047106429
H           -2.34032574655884        0.58641087549426       -1.35472103160888
H           -2.95935364622569        1.27886529353787        0.15358928750529
H           -0.42733233789407        1.92031656841817       -0.73497631984963
H           -0.71505810805753        1.66945867607441        0.99286113250543
19
 energy: -25.475676067485 gnorm: 0.002128429019 xtb: 6.7.1 (41059b4)
C            2.18332711250854       -1.18104303481252       -0.10534495986594
C            1.41540489739610        0.12209178571354       -0.05623930425526
O            1.96123783109122        1.20910889645477       -0.04064163854234
N            0.07220961017154        0.01044063149275       -0.02394587915379
C           -0.70913026432169       -1.21014149857502       -0.02746756354066
C           -2.11728175019129       -0.74141597642059        0.33472961930550
C           -2.17136395632427        0.65598100112471       -0.27789514628194
C           -0.77376252208150        1.19429881650657        0.00526485065555
H            3.22829233303117       -0.95662510032777       -0.29847331601619
H            1.80007876002400       -1.83523813570610       -0.88449640767117
H            2.10673475470249       -1.69341462526189        0.85227698876970
H           -0.69874282023851       -1.66536882125301       -1.02648129685234
H           -0.31537026877642       -1.93462995464291        0.68853267015035
H           -2.88841656723319       -1.40623513684562       -0.04882925366636
H           -2.21824356977922       -0.67519638838304        1.41867553564241
H           -2.33699196260551        0.58595296683536       -1.35366618097436
H           -2.95076555204718        1.27788048387331        0.15602526530180
H           -0.42265345444934        1.91698820559618       -0.73371330927406
H           -0.71452577397166        1.66400234701933        0.99336585833774
19
 energy: -25.475698138722 gnorm: 0.001077502571 xtb: 6.7.1 (41059b4)
C            2.18155768847988       -1.18093220599712       -0.10674090332013
C            1.41513885584478        0.12397457989489       -0.05811774527149
O            1.96004681020526        1.21175537122617       -0.04703074448868
N            0.07267215068706        0.01023412285816       -0.02231839055532
C           -0.70684409793571       -1.20982706550897       -0.02383480124923
C           -2.11663560384827       -0.74177531790158        0.33409301442069
C           -2.17053866881598        0.65612214761119       -0.27827691303924
C           -0.77278775438551        1.19332166387620        0.00637075539040
H            3.22813140453636       -0.95942439892130       -0.29485481821044
H            1.79896122141020       -1.83016350467447       -0.88997259006765
H            2.09834880785418       -1.69515388795510        0.84888924166815
H           -0.69499235899984       -1.66889809779821       -1.02136190228341
H           -0.31479831637155       -1.93311393780015        0.69459748263430
H           -2.88497458254197       -1.40746290143912       -0.05300121886476
H           -2.22207414912988       -0.67606630662137        1.41742074972436
H           -2.33622391343433        0.58656434220057       -1.35379296543184
H           -2.94915475903108        1.27822513949614        0.15634836377887
H           -0.42045805864604        1.91683726403905       -0.73136055771394
H           -0.71533783897224        1.66321945580310        0.99462047494802
19
 energy: -25.475733219525 gnorm: 0.003243106774 xtb: 6.7.1 (41059b4)
C            2.17870702103948       -1.18050766485243       -0.11274929623346
C            1.41607678842184        0.12868273499694       -0.06660478913462
O            1.95988855738008        1.21758866384729       -0.06985597251299
N            0.07415486720755        0.01081461468337       -0.01609679795657
C           -0.70151827730870       -1.20900778435395       -0.01063244698153
C           -2.11720447918205       -0.74316474555613        0.33194913095079
C           -2.16842881203972        0.65653399601186       -0.27924083104302
C           -0.77090884595761        1.19277116666335        0.01108780060276
H            3.23063124051652       -0.96645103856643       -0.28077474576150
H            1.80270079496001       -1.81526383439487       -0.91108899594104
H            2.07188328279871       -1.70419426927254        0.83529956111800
H           -0.68207551608006       -1.68176512615043       -1.00275707789973
H           -0.31524827181133       -1.92667248411464        0.71774122309632
H           -2.87782266928452       -1.41106751184481       -0.06661506368536
H           -2.23727321013528       -0.67989610549339        1.41385210863723
H           -2.33261288758795        0.58920479427908       -1.35490644406294
H           -2.94695272479307        1.27825414882625        0.15593079167915
H           -0.41490941444901        1.91867545631926       -0.72308675380847
H           -0.71905060678961        1.66290145136029        1.00022513100564
19
 energy: -25.475753149260 gnorm: 0.002784086174 xtb: 6.7.1 (41059b4)
C            2.17876812184108       -1.18043705744196       -0.11606076175707
C            1.41665960842317        0.12882390483596       -0.06938261201775
O            1.96080251974338        1.21732712647828       -0.07859423247476
N            0.07446064526441        0.01140524518398       -0.01254372622453
C           -0.70076169924791       -1.20906651153981       -0.00486299311450
C           -2.11815358894982       -0.74305592141514        0.33105562144113
C           -2.16807698955878        0.65683624471821       -0.27979348097373
C           -0.77127301342342        1.19338087290924        0.01363379934527
H            3.23186331320208       -0.96647827793446       -0.27568912867641
H            1.80832691587016       -1.81128513849234       -0.92036479194987
H            2.06446065103270       -1.70951923944500        0.82815585736931
H           -0.67674941736521       -1.68629344542976       -0.99475084723885
H           -0.31654785843152       -1.92325831138738        0.72823247323344
H           -2.87679846771598       -1.41101096150278       -0.07131838082264
H           -2.24353509098120       -0.68066981725602        1.41248477858352
H           -2.32989860954816        0.59008864645939       -1.35597709142733
H           -2.94795094548150        1.27814670410395        0.15387245811654
H           -0.41408367083783        1.91956401258807       -0.71964567286428
H           -0.72147558693035        1.66293838695564        1.00322526352116
19
 energy: -25.475795628805 gnorm: 0.001612290676 xtb: 6.7.1 (41059b4)
C            2.17878349020909       -1.18028247853116       -0.12672893327698
C            1.41776807361007        0.12825150596166       -0.08029469402971
O            1.96341954366146        1.21523660033228       -0.10720510798639
N            0.07519912275879        0.01370693375898       -0.00074988231707
C           -0.69956105186872       -1.20887092358384        0.01349060566102
C           -2.12175345541411       -0.74272217036072        0.32877798587889
C           -2.16601637940715        0.65700286766267       -0.28204537897157
C           -0.77254260329104        1.19557993464052        0.02291687504121
H            3.23513253315168       -0.96407422936537       -0.25918342518628
H            1.82817165384217       -1.79927101446152       -0.95020692770345
H            2.04180177961063       -1.72724588810404        0.80479264403114
H           -0.66055768379616       -1.69879509370032       -0.96924414983752
H           -0.32159095529214       -1.91141733368678        0.76133763274656
H           -2.87491089996012       -1.41054863180904       -0.08454321273341
H           -2.26307045421415       -0.68177688881416        1.40857540003961
H           -2.31834956723372        0.59117524627233       -1.36004443103088
H           -2.95108106698373        1.27709302411357        0.14472097781739
H           -0.41090883229250        1.92257561226106       -0.70700987110327
H           -0.72989641018502        1.66181938980194        1.01432042502937
19
 energy: -25.475807638340 gnorm: 0.001299487456 xtb: 6.7.1 (41059b4)
C            2.17815977718780       -1.18017827144799       -0.13496340696443
C            1.41717817095233        0.12731220710450       -0.08591118873354
O            1.96321382483010        1.21376090509832       -0.12742194081417
N            0.07554996268863        0.01488984203976        0.00922013923887
C           -0.69893201530984       -1.20881625836076        0.02716136409406
C           -2.12390633865752       -0.74197261581767        0.32734705120286
C           -2.16381389585310        0.65691487730241       -0.28513888587542
C           -0.77324644401145        1.19618467256007        0.03043379624473
H            3.23564493590032       -0.96154164467135       -0.25136777801290
H            1.84032823137556       -1.79058419360109       -0.97018614818591
H            2.02935922344331       -1.73900977021814        0.78714642430523
H           -0.64991963758351       -1.70646189857082       -0.95050869184317
H           -0.32593625734402       -1.90351457626444        0.78463643806804
H           -2.87310365636292       -1.41021432736087       -0.09243774966215
H           -2.27595278356163       -0.68012658714595        1.40560871337831
H           -2.30674726296753        0.59020635752002       -1.36443309118226
H           -2.95298541136650        1.27697287442012        0.13423467259724
H           -0.40711082605678        1.92482029741919       -0.69534255494148
H           -0.73774276039792        1.65879457238275        1.02359936915473
19
 energy: -25.475813717721 gnorm: 0.000736346278 xtb: 6.7.1 (41059b4)
C            2.17763780350759       -1.18011005136894       -0.13760325505590
C            1.41617487337325        0.12721528352032       -0.08850849038392
O            1.96168369779257        1.21370367622202       -0.13119053163040
N            0.07565748575314        0.01490509643706        0.01213530975208
C           -0.69894467465887       -1.20865495081819        0.03103373773142
C           -2.12427865962140       -0.74148682135512        0.32765627065505
C           -2.16231169926905        0.65634272097088       -0.28745621471137
C           -0.77313060968013        1.19563361096881        0.03352775424026
H            3.23495417724968       -0.96103538104254       -0.25210695966337
H            1.84141856433627       -1.78759669943135       -0.97469794923076
H            2.02767548227099       -1.74092972230994        0.78232786677703
H           -0.64835609329588       -1.70763688021928       -0.94542113174973
H           -0.32761169026773       -1.90205164820425        0.79004192817624
H           -2.87245410145470       -1.41054479033940       -0.09223022809566
H           -2.27851209009705       -0.67711191901146        1.40523175404733
H           -2.30043817056894        0.58764622347538       -1.36711239329202
H           -2.95307817492072        1.27706384510630        0.12751931166113
H           -0.40463077378357        1.92600527255843       -0.68926804552695
H           -0.74141850976009        1.65607959722931        1.02779779836820
19
 energy: -25.475819536903 gnorm: 0.000896741928 xtb: 6.7.1 (41059b4)
C            2.17680968182791       -1.18004149619722       -0.14231721094046
C            1.41531425946156        0.12763829592920       -0.08930939602832
O            1.96035093850360        1.21462025916703       -0.13623492792948
N            0.07591051459930        0.01483405978107        0.01755358556510
C           -0.69875598869032       -1.20855713588490        0.03708232459790
C           -2.12498740087454       -0.74058691616954        0.32827075808639
C           -2.16006318463445        0.65534810173188       -0.29161300060889
C           -0.77308364471220        1.19480038878746        0.03810931135480
H            3.23422129618058       -0.96052752712148       -0.25575090858178
H            1.84047249242586       -1.78315778287128       -0.98231197019954
H            2.02577968105808       -1.74379188278468        0.77538161985729
H           -0.64566964544925       -1.70983317854971       -0.93806815452103
H           -0.32985870133493       -1.90042535799714        0.79860142349833
H           -2.87187783844562       -1.41114654643982       -0.09135770863969
H           -2.28231076982309       -0.67180077359094        1.40506488777400
H           -2.29007086627397        0.58295087007508       -1.37196269223419
H           -2.95368506143634        1.27724126782151        0.11583501776535
H           -0.40045106534754        1.92814761016732       -0.67960931943119
H           -0.74800786012932        1.65172420653423        1.03431289268405
19
 energy: -25.475822942219 gnorm: 0.000605095817 xtb: 6.7.1 (41059b4)
C            2.17641468806962       -1.17984843081473       -0.14588134470784
C            1.41523447882124        0.12809843482442       -0.09057755581779
O            1.96030541968889        1.21493558053871       -0.13781632543891
N            0.07600222027207        0.01500747172129        0.02111925219856
C           -0.69860661622188       -1.20853920538520        0.04119990310542
C           -2.12545479248531       -0.73968680909213        0.32866387173865
C           -2.15870978782798        0.65468938146852       -0.29473100631267
C           -0.77361075266742        1.19467808741220        0.04168358218949
H            3.23398502184702       -0.96076836414326       -0.26013865148941
H            1.83878154586358       -1.78138896628260       -0.98666999814631
H            2.02573854525395       -1.74518510326792        0.77113304400538
H           -0.64400421602593       -1.71132981326060       -0.93327453483191
H           -0.33098922711071       -1.89959560381770        0.80434283554723
H           -2.87182968674541       -1.41137398300519       -0.09023661377730
H           -2.28437375292929       -0.66781376684569        1.40510914604023
H           -2.28213227940991        0.57931074037341       -1.37571977502494
H           -2.95502210972639        1.27729571525874        0.10643774919093
H           -0.39832602603858        1.93016240381388       -0.67234194505265
H           -0.75336583572222        1.64878869289192        1.03937489865250
19
 energy: -25.475825047908 gnorm: 0.000389992892 xtb: 6.7.1 (41059b4)
C            2.17586722040026       -1.17964255416211       -0.14860255747273
C            1.41543481679305        0.12847813569402       -0.08966907046931
O            1.96073040285116        1.21507996876834       -0.13735589970131
N            0.07611667032863        0.01537414664314        0.02392428476779
C           -0.69855386010214       -1.20816735185261        0.04377913744612
C           -2.12589849171429       -0.73910161741254        0.32870212742424
C           -2.15749282334422        0.65396710989903       -0.29728641098995
C           -0.77412055166069        1.19488117250439        0.04430390222784
H            3.23294899933385       -0.96130138033392       -0.26737917422857
H            1.83459181447369       -1.78172604274558       -0.98752886236378
H            2.02905714014372       -1.74477139619022        0.76906945566575
H           -0.64260343892271       -1.71195268640941       -0.93023333957982
H           -0.33200263327138       -1.89870323606676        0.80802532746053
H           -2.87197528190634       -1.41165485141918       -0.08951113613782
H           -2.28581089378876       -0.66498574983497        1.40493656013102
H           -2.27566641524043        0.57637889389832       -1.37871554012771
H           -2.95608531909341        1.27681437983612        0.09882804073236
H           -0.39685723056250        1.93201272624243       -0.66680347986784
H           -0.75764328781217        1.64645679532957        1.04319316715186
19
 energy: -25.475826130333 gnorm: 0.000261906039 xtb: 6.7.1 (41059b4)
C            2.17525462289709       -1.17960846547500       -0.15035702478342
C            1.41561026582476        0.12870314044515       -0.08970822195448
O            1.96110194991775        1.21516025636408       -0.13737096643172
N            0.07624541993885        0.01568876203273        0.02563111792852
C           -0.69809743177067       -1.20800541206972        0.04586910102757
C           -2.12593677438342       -0.73877816472135        0.32829140069665
C           -2.15681809256309        0.65371084950294       -0.29876736388747
C           -0.77448215583037        1.19497619258623        0.04618290331621
H            3.23216726706715       -0.96168413473399       -0.27272868842204
H            1.83075932501258       -1.78213302005256       -0.98803107800459
H            2.03109191118025       -1.74435535846680        0.76830573813410
H           -0.64072223423011       -1.71291084856781       -0.92749143375151
H           -0.33233516655247       -1.89756283018361        0.81148518399514
H           -2.87133506164938       -1.41170927961682       -0.09052075625161
H           -2.28754138871910       -0.66389498823073        1.40427514443894
H           -2.27181784823598        0.57520866127476       -1.38047059356305
H           -2.95674071342768        1.27656697553075        0.09458953856965
H           -0.39611916300884        1.93304702616612       -0.66326389102111
H           -0.76024789456197        1.64501710060366        1.04575642203289
19
 energy: -25.475827195342 gnorm: 0.000370855266 xtb: 6.7.1 (41059b4)
C            2.17468480385610       -1.17955940732205       -0.15238702603777
C            1.41570357496753        0.12892962339437       -0.09002438745275
O            1.96143699545248        1.21526407163967       -0.13810485422886
N            0.07637720574320        0.01617944140731        0.02755747606771
C           -0.69764258650916       -1.20777452870635        0.04862011410839
C           -2.12638798962664       -0.73878356505086        0.32720998490338
C           -2.15597241725261        0.65359956913517       -0.30015754305456
C           -0.77467776963930        1.19522524960915        0.04839235394319
H            3.23117748834573       -0.96228063817775       -0.27998757671766
H            1.82611822150166       -1.78340229988011       -0.98748841879507
H            2.03464176547982       -1.74305884330855        0.76777998614498
H           -0.63810730737557       -1.71456801108264       -0.92361166888550
H           -0.33306485430021       -1.89571931155507        0.81634756584776
H           -2.87054272399855       -1.41201742855570       -0.09340012301549
H           -2.29081448469647       -0.66378153104770        1.40276545458542
H           -2.26785320437209        0.57485519985923       -1.38218633545807
H           -2.95718760097329        1.27629375661201        0.09082963770210
H           -0.39503587154378        1.93440656381560       -0.65920172312306
H           -0.76281640815351        1.64362855160232        1.04872361553453
19
 energy: -25.475828049479 gnorm: 0.000257192436 xtb: 6.7.1 (41059b4)
C            2.17446988076889       -1.17960688437146       -0.15354354342378
C            1.41563041067049        0.12891317358785       -0.09046266597781
O            1.96141422084953        1.21518513329371       -0.13906040890344
N            0.07648912825028        0.01636268341976        0.02847638040736
C           -0.69731889022619       -1.20773639104230        0.05045539308103
C           -2.12671378291833       -0.73892356539832        0.32611718411472
C           -2.15560383908238        0.65384740994482       -0.30055791320644
C           -0.77460226273385        1.19522239193911        0.04948131072074
H            3.23058537985643       -0.96234857529923       -0.28423617314518
H            1.82375027311649       -1.78451823399744       -0.98697116898397
H            2.03699995602259       -1.74191910392832        0.76772994040608
H           -0.63590034649288       -1.71634974572203       -0.92064072918076
H           -0.33372769982838       -1.89404411268382        0.82010260422516
H           -2.86965461670927       -1.41200940992752       -0.09677164591379
H           -2.29390650215697       -0.66471128094623        1.40126123005213
H           -2.26666557708012        0.57584330376186       -1.38269291227576
H           -2.95708189300187        1.27629779220744        0.09024093952109
H           -0.39444570690337        1.93488037379221       -0.65733350268426
H           -0.76368129549576        1.64305150375797        1.05008221323554
19
 energy: -25.475828546465 gnorm: 0.000103148622 xtb: 6.7.1 (41059b4)
C            2.17449924507535       -1.17961454766544       -0.15426757040009
C            1.41549461315003        0.12889595705203       -0.09133869446087
O            1.96127695794025        1.21519584571114       -0.14078232805598
N            0.07654837298765        0.01639423654791        0.02891423829384
C           -0.69719599261516       -1.20776607911180        0.05197713552043
C           -2.12719808773373       -0.73922172044530        0.32497720352151
C           -2.15533054128527        0.65416560452971       -0.30055912629041
C           -0.77438060516206        1.19519300726205        0.05026734898450
H            3.23032210513295       -0.96217123685377       -0.28684031547225
H            1.82263123176302       -1.78546484614486       -0.98639689481238
H            2.03863548300659       -1.74085501809575        0.76784128127825
H           -0.63429532230869       -1.71803925808834       -0.91802308650564
H           -0.33443741020482       -1.89258397681078        0.82329983352321
H           -2.86907607196766       -1.41205194987856       -0.10015745830019
H           -2.29680095728592       -0.66604795129862        1.39973770801318
H           -2.26631335152363        0.57723288526056       -1.38278228991611
H           -2.95672915955123        1.27642069551667        0.09076415202985
H           -0.39385377227304        1.93516739249715       -0.65605871762230
H           -0.76375990023928        1.64258742240407        1.05110411274012
19
 energy: -25.475828660035 gnorm: 0.000061012571 xtb: 6.7.1 (41059b4)
C            2.17455555079368       -1.17960271686767       -0.15463665696538
C            1.41538137796825        0.12885692182610       -0.09184262203999
O            1.96105761180951        1.21516196947610       -0.14197643447246
N            0.07656322548062        0.01632629256465        0.02907064251019
C           -0.69713150770948       -1.20784886499547        0.05265528508756
C           -2.12737225923251       -0.73924896907987        0.32448709750358
C           -2.15521433724082        0.65437463952669       -0.30061594296437
C           -0.77431386831442        1.19512219905575        0.05077876371088
H            3.23022060949440       -0.96208742572614       -0.28810593553252
H            1.82223132003957       -1.78604439193422       -0.98607583113948
H            2.03947794312068       -1.74018051529518        0.76792322606831
H           -0.63345150536845       -1.71901744812465       -0.91682183114661
H           -0.33483529662589       -1.89193081174358        0.82485894543185
H           -2.86873385336147       -1.41194261024985       -0.10172679197955
H           -2.29825889300800       -0.66650311019066        1.39907876843940
H           -2.26596041384307        0.57796120200361       -1.38290197855122
H           -2.95665147813178        1.27653598879413        0.09080318378421
H           -0.39358036548591        1.93541092429699       -0.65510178009716
H           -0.76394702347960        1.64209318905134        1.05182642442143
19
 energy: -25.475828633181 gnorm: 0.000178479455 xtb: 6.7.1 (41059b4)
C            2.17460698156989       -1.17959659543446       -0.15492468431147
C            1.41527817070895        0.12881187919238       -0.09217006591922
O            1.96086003763300        1.21512462765227       -0.14283091727786
N            0.07656923817326        0.01625688908071        0.02921003187120
C           -0.69707863838472       -1.20793456366186        0.05316975872544
C           -2.12749155017275       -0.73925721567740        0.32411667990621
C           -2.15513888136557        0.65454801437652       -0.30066164437911
C           -0.77426352764836        1.19505370341091        0.05116022559072
H            3.23012605635231       -0.96202166423321       -0.28915635135546
H            1.82190721514683       -1.78649457850502       -0.98579678013991
H            2.04022224038250       -1.73965481707225        0.76797454097010
H           -0.63276240309634       -1.71979220216105       -0.91591082158781
H           -0.33515338610455       -1.89144505830472        0.82606541189695
H           -2.86844135111218       -1.41184051832222       -0.10295670939360
H           -2.29942249016805       -0.66683552292371        1.39857859947963
H           -2.26571538066304        0.57855913546436       -1.38299839077716
H           -2.95659441019559        1.27663995494334        0.09085479508536
H           -0.39337467676810        1.93556794316481       -0.65439919098968
H           -0.76409640738217        1.64174705139866        1.05235204467431
19
 energy: -25.475828700877 gnorm: 0.000057987478 xtb: 6.7.1 (41059b4)
C            2.17457844491782       -1.17958585450326       -0.15488925536412
C            1.41534583335394        0.12886770798743       -0.09232516209539
O            1.96095398311275        1.21516238977732       -0.14306138352935
N            0.07659865694141        0.01630852691379        0.02917082313290
C           -0.69710200234967       -1.20784398371155        0.05316757438070
C           -2.12754371876463       -0.73928045999227        0.32413096249934
C           -2.15508559342532        0.65448449756515       -0.30068336384966
C           -0.77426884718802        1.19508614224110        0.05119753518449
H            3.23017509198880       -0.96199586252349       -0.28880625544436
H            1.82201566987575       -1.78641651142026       -0.98597802312261
H            2.03983698999299       -1.73973923803069        0.76799557616021
H           -0.63296757440030       -1.71961560273659       -0.91594003442996
H           -0.33511458437854       -1.89145477216211        0.82593729931567
H           -2.86860878861666       -1.41189366925873       -0.10270970019638
H           -2.29914270472269       -0.66679877842984        1.39860058781197
H           -2.26557376121646        0.57832629283235       -1.38300135883962
H           -2.95659279052895        1.27657937966930        0.09067733320891
H           -0.39334766204977        1.93565850315983       -0.65426268913591
H           -0.76411980563711        1.64158775501058        1.05245606638183
