      -----------------------------------------------------------      
     |                   =====================                   |     
     |                           x T B                           |     
     |                   =====================                   |     
     |                         S. Grimme                         |     
     |          Mulliken Center for Theoretical Chemistry        |     
     |                    University of Bonn                     |     
      -----------------------------------------------------------      

   * xtb version 6.7.1 (41059b4) compiled by 'michael@archlinux' on 2025-03-24

   xtb is free software: you can redistribute it and/or modify it under
   the terms of the GNU Lesser General Public License as published by
   the Free Software Foundation, either version 3 of the License, or
   (at your option) any later version.
   
   xtb is distributed in the hope that it will be useful,
   but WITHOUT ANY WARRANTY; without even the implied warranty of
   MERCHANTABILITY or FITNESS FOR A PARTICULAR PURPOSE.  See the
   GNU Lesser General Public License for more details.
   
   Cite this work as:
   * C. Bannwarth, E. Caldeweyher, S. Ehlert, A. Hansen, P. Pracht,
     J. Seibert, S. Spicher, S. Grimme, WIREs Comput. Mol. Sci., 2020, 11,
     e01493. DOI: 10.1002/wcms.1493
   
   for GFN2-xTB:
   * C. Bannwarth, S. Ehlert and S. Grimme., J. Chem. Theory Comput., 2019,
     15, 1652-1671. DOI: 10.1021/acs.jctc.8b01176
   for GFN1-xTB:
   * S. Grimme, C. Bannwarth, P. Shushkov, J. Chem. Theory Comput., 2017,
     13, 1989-2009. DOI: 10.1021/acs.jctc.7b00118
   for GFN0-xTB:
   * P. Pracht, E. Caldeweyher, S. Ehlert, S. Grimme, ChemRxiv, 2019, preprint.
     DOI: 10.26434/chemrxiv.8326202.v1
   for GFN-FF:
   * S. Spicher and S. Grimme, Angew. Chem. Int. Ed., 2020, 59, 15665-15673.
     DOI: 10.1002/anie.202004239
   
   for ALPB and GBSA implicit solvation:
   * S. Ehlert, M. Stahn, S. Spicher, S. Grimme, J. Chem. Theory Comput.,
     2021, 17, 4250-4261. DOI: 10.1021/acs.jctc.1c00471
   
   for ddCOSMO and CPCM-X implicit solvation:
   * M. Stahn, S. Ehlert, S. Grimme, J. Phys. Chem. A,
     2023, XX, XXXX-XXXX. DOI: 10.1021/acs.jpca.3c04382
   
   for DFT-D4:
   * E. Caldeweyher, C. Bannwarth and S. Grimme, J. Chem. Phys., 2017,
     147, 034112. DOI: 10.1063/1.4993215
   * E. Caldeweyher, S. Ehlert, A. Hansen, H. Neugebauer, S. Spicher,
     C. Bannwarth and S. Grimme, J. Chem. Phys., 2019, 150, 154122.
     DOI: 10.1063/1.5090222
   * E. Caldeweyher, J.-M. Mewes, S. Ehlert and S. Grimme, Phys. Chem. Chem. Phys.
     2020, 22, 8499-8512. DOI: 10.1039/D0CP00502A
   
   for sTDA-xTB:
   * S. Grimme and C. Bannwarth, J. Chem. Phys., 2016, 145, 054103.
     DOI: 10.1063/1.4959605
   
   in the mass-spec context:
   * V. Asgeirsson, C. Bauer and S. Grimme, Chem. Sci., 2017, 8, 4879.
     DOI: 10.1039/c7sc00601b
   * J. Koopman and S. Grimme, ACS Omega 2019, 4, 12, 15120-15133.
     DOI: 10.1021/acsomega.9b02011
   
   for metadynamics refer to:
   * S. Grimme, J. Chem. Theory Comput., 2019, 155, 2847-2862
     DOI: 10.1021/acs.jctc.9b00143
   
   for SPH calculations refer to:
   * S. Spicher and S. Grimme, J. Chem. Theory Comput., 2021, 17, 1701-1714
     DOI: 10.1021/acs.jctc.0c01306
   
   for ONIOM refer to:
   * C. Plett, A. Katbashev, S. Ehlert, S. Grimme, M. Bursch,
     Phys. Chem. Chem. Phys., 2023, 25, 17860-17868. DOI: 10.1039/D3CP02178E
   
   for DIPRO refer to:
   * J. Kohn, N. Gildemeister, S. Grimme, D. Fazzi, A. Hansen,
     J. Chem. Phys., 2023, just accepted.
   
   for PTB refer to:
   * S. Grimme, M. Mueller, A. Hansen, J. Chem. Phys., 2023, 158, 124111.
     DOI: 10.1063/5.0137838
   
   with help from (in alphabetical order)
   P. Atkinson, C. Bannwarth, F. Bohle, G. Brandenburg, E. Caldeweyher
   M. Checinski, S. Dohm, S. Ehlert, S. Ehrlich, I. Gerasimov, C. Hölzer
   A. Katbashev, J. Kohn, J. Koopman, C. Lavigne, S. Lehtola, F. März, M. Müller,
   F. Musil, H. Neugebauer, J. Pisarek, C. Plett, P. Pracht, F. Pultar,
   J. Seibert, P. Shushkov, S. Spicher, M. Stahn, M. Steiner, T. Strunk,
   J. Stückrath, T. Rose, and J. Unsleber
   
 * started run on 2025/04/08 at 23:24:17.219     
   ID    Z sym.   atoms
    1    6 C      1-8
    2    8 O      9
    3    1 H      10-19

           -------------------------------------------------
          |                Calculation Setup                |
           -------------------------------------------------

          program call               : /usr/bin/xtb xtb_opt.coord --opt normal --orca -I xtb_opt-xcontrol-inp
          coordinate file            : xtb_opt.coord
          omp threads                :                    16

           -------------------------------------------------
          |                   Orca driver                   |
           -------------------------------------------------
orca executable           : /home/michael/Documents/CHEM4561/orca_avx2/orca
orca input file           : xtb_opt.inp
orca input line           : 
orca parallel             : true
orca number of threads    : 16
                         * ORCA takes the control...
  ------------------------------------------------------------------------

                                 *****************
                                 * O   R   C   A *
                                 *****************

                                            #,                                       
                                            ###                                      
                                            ####                                     
                                            #####                                    
                                            ######                                   
                                           ########,                                 
                                     ,,################,,,,,                         
                               ,,#################################,,                 
                          ,,##########################################,,             
                       ,#########################################, ''#####,          
                    ,#############################################,,   '####,        
                  ,##################################################,,,,####,       
                ,###########''''           ''''###############################       
              ,#####''   ,,,,##########,,,,          '''####'''          '####       
            ,##' ,,,,###########################,,,                        '##       
           ' ,,###''''                  '''############,,,                           
         ,,##''                                '''############,,,,        ,,,,,,###''
      ,#''                                            '''#######################'''  
     '                                                          ''''####''''         
             ,#######,   #######,   ,#######,      ##                                
            ,#'     '#,  ##    ##  ,#'     '#,    #''#        ,####,   ,####,        
            ##       ##  ##   ,#'  ##            #'  '#       #'       #'  '#        
            ##       ##  #######   ##           ,######,      #####,   #    #        
            '#,     ,#'  ##    ##  '#,     ,#' ,#      #,     #,   #   #,  ,#        
             '#######'   ##     ##  '#######'  #'      '#     '####' # '####'        



                #########################################################
                #                        -***-                          #
                #          Department of theory and spectroscopy        #
                #                                                       #
                #                      Frank Neese                      #
                #                                                       #
                #     Directorship, Architecture, Infrastructure        #
                #                    SHARK, DRIVERS                     #
                #        Core code/Algorithms in most modules           #
                #                                                       #
                #        Max Planck Institute fuer Kohlenforschung      #
                #                Kaiser Wilhelm Platz 1                 #
                #                 D-45470 Muelheim/Ruhr                 #
                #                      Germany                          #
                #                                                       #
                #                  All rights reserved                  #
                #                        -***-                          #
                #########################################################


                         Program Version 6.0.1  -  RELEASE   -


 With contributions from (in alphabetic order):
[Max-Planck-Institut fuer Kohlenforschung]                               
  Daniel Aravena         : Magnetic Suceptibility                        
  Michael Atanasov       : Ab Initio Ligand Field Theory (pilot matlab implementation)
  Alexander A. Auer      : GIAO ZORA, VPT2 properties, NMR spectrum      
  Ute Becker             : All parallelization in ORCA, NUMFREQ, NUMCALC 
  Giovanni Bistoni       : ED, misc. LED, open-shell LED, HFLD           
  Martin Brehm           : Molecular dynamics                            
  Dmytro Bykov           : pre 5.0 version of the SCF Hessian            
  Marcos Casanova-Páez   : Triplet and SCS-CIS(D). UHF-(DLPNO)-IP/EA/STEOM-CCSD. UHF-CVS-IP/STEOM-CCSD   
  Vijay G. Chilkuri      : MRCI spin determinant printing, contributions to CSF-ICE 
  Pauline Colinet        : FMM embedding                                 
  Dipayan Datta          : RHF DLPNO-CCSD density                        
  Achintya Kumar Dutta   : EOM-CC, STEOM-CC                              
  Nicolas Foglia         : Exact transition moments, OPA infrastructure, MCD improvements    
  Dmitry Ganyushin       : Spin-Orbit,Spin-Spin,Magnetic field MRCI      
  Miquel Garcia-Rates    : C-PCM and meta-GGA Hessian, CCSD/C-PCM, Gaussian charge scheme 
  Tiago L. C. Gouveia    : GS-ROHF, GS-ROCIS                             
  Yang Guo               : DLPNO-NEVPT2, F12-NEVPT2, CIM, IAO-localization        
  Andreas Hansen         : Spin unrestricted coupled pair/coupled cluster methods 
  Ingolf Harden          : AUTO-CI MPn and infrastructure                
  Benjamin Helmich-Paris : MC-RPA, TRAH-(SCF,CASSCF), AVAS, COSX integrals, SCF dyn. polar. 
  Lee Huntington         : MR-EOM, pCC                                   
  Robert Izsak           : Overlap fitted RIJCOSX, COSX-SCS-MP3, EOM     
  Riya Kayal             : Wick's Theorem for AUTO-CI, AUTO-CI UHF-CCSDT 
  Emily Kempfer          : AUTO-CI, RHF CISDT and CCSDT                  
  Christian Kollmar      : KDIIS, OOCD, Brueckner-CCSD(T), CCSD density, CASPT2, CASPT2-K, improved NEVPT2 
  Axel Koslowski         : Symmetry handling                             
  Simone Kossmann        : meta-GGA functionals, TD-DFT gradient, OOMP2, (MP2 Hessian; deprecated post 5.0) 
  Lucas Lang             : DCDCAS                                        
  Marvin Lechner         : AUTO-CI (C++ implementation), FIC-MRCC        
  Spencer Leger          : CASSCF response                               
  Dagmar Lenk            : GEPOL surface, SMD, ORCA-2-JSON               
  Dimitrios Liakos       : Extrapolation schemes; Compound Job, initial MDCI parallelization 
  Dimitrios Manganas     : Further ROCIS development; embedding schemes. LFT, Crystal Embedding 
  Dimitrios Pantazis     : SARC Basis sets                               
  Anastasios Papadopoulos: AUTO-CI, single reference methods and gradients 
  Taras Petrenko         : pre 6.0 DFT Hessian and TD-DFT gradient, (ASA, deprecated), ECA, 1-Electron XAS/XES, NRVS 
  Peter Pinski           : DLPNO-MP2, DLPNO-MP2 Gradient                 
  Christoph Reimann      : Effective Core Potentials                     
  Marius Retegan         : Local ZFS, SOC                                
  Christoph Riplinger    : Optimizer, TS searches, QM/MM, DLPNO-CCSD(T), (RO)-DLPNO pert. Triples 
  Michael Roemelt        : Original ROCIS implementation                 
  Masaaki Saitow         : Open-shell DLPNO-CCSD energy and density      
  Barbara Sandhoefer     : DKH picture change effects                    
  Kantharuban Sivalingam : CASSCF convergence/infrastructure, NEVPT2 and variants, FIC-MRCI 
  Bernardo de Souza      : ESD, SOC TD-DFT                               
  Georgi L. Stoychev     : AutoAux, RI-MP2 NMR, DLPNO-MP2 response, X2C  
  Van Anh Tran           : RI-MP2 g-tensors                              
  Willem Van den Heuvel  : Paramagnetic NMR                              
  Zikuan Wang            : NOTCH, Electric field optimization            
  Frank Wennmohs         : Technical directorship and infrastructure     
  Hang Xu                : AUTO-CI-Response properties                   
                                                                         
[FACCTs GmbH]                                                            
  Markus Bursch, Miquel Garcia-Rates, Christoph Riplinger, Bernardo de Souza, Georgi L. Stoychev 
                                                                 
  APM, Basis sets (HGBS, AHGBS, def-TZVP (Ac-Lr), def2-XVPD (La-Lu)), CI-OPT, improved COSX, DLPNO-Multilevel,           
  DOCKER, DRACO, updates on ESD, GOAT, IRC, LR-CPCM, MBIS, meta-GGA TD-DFT gradient, ML-optimized integration grids, 
  MM, NACMEs, nearIR, NEB, NEB-TS, NL-DFT gradient (VV10), 2- and 3-layer-ONIOM, interface openCOSMO-RS, QMMM,   
  Crystal-QMMM, SF, symmetry and pop. for TD-DFT, r2SCAN hybrids, SOLVATOR                                   
                                                                         
[Other institutions]                                                     
  V. Asgeirsson          : NEB                                           
  Christoph Bannwarth    : sTDA-DFT, sTD-DFT, PBEh-3c, B97-3c, D3        
  Sebastian Ehlert       : rSCAN, r2SCAN, r2SCAN-3c, D4, dhf basis sets  
  Marvin Friede          : D4 for Fr, Ra, Ac-Lr                          
  Lars Goerigk           : TD-DFT with DH, B97 family of functionals     
  Stefan Grimme          : VdW corrections, initial TS optimization, DFT functionals, gCP, sTDA/sTD-DF 
  Waldemar Hujo          : DFT-NL                                        
  H. Jonsson             : NEB                                           
  Holger Kruse           : gCP                                           
  Marcel Mueller         : wB97X-3c, vDZP basis set                      
  Hagen Neugebauer       : wr2SCAN                                       
  Tobias Risthaus        : range-separated hybrid DFT                    
  Lukas Wittmann         : regularized MP2, r2SCAN double-hybrids, wr2SCAN        
                                                                         
We gratefully acknowledge several colleagues who have allowed us to      
interface, adapt or use parts of their codes:                            
  Ed Valeev, F. Pavosevic, A. Kumar             : LibInt (2-el integral package), F12 methods 
  Garnet Chan, S. Sharma, J. Yang, R. Olivares  : DMRG                   
  Ulf Ekstrom                                   : XCFun DFT Library      
  Mihaly Kallay                                 : mrcc  (arbitrary order and MRCC methods)
  Frank Weinhold                                : gennbo (NPA and NBO analysis)           
  Simon Mueller                                 : openCOSMO-RS                            
  Christopher J. Cramer and Donald G. Truhlar   : smd solvation model                     
  S Lehtola, MJT Oliveira, MAL Marques          : LibXC Library                           
  Liviu Ungur et al                             : ANISO software                          


 Your calculation uses the libint2 library for the computation of 2-el integrals
 For citations please refer to: http://libint.valeyev.net

 Your ORCA version has been built with support for libXC version: 6.2.2
 For citations please refer to: https://libxc.gitlab.io

 This ORCA versions uses:
   CBLAS   interface :  Fast vector & matrix operations
   LAPACKE interface :  Fast linear algebra routines
   SCALAPACK package :  Parallel linear algebra routines
   Shared memory     :  Shared parallel matrices
   BLAS/LAPACK       :  OpenBLAS 0.3.27  USE64BITINT DYNAMIC_ARCH NO_AFFINITY Zen SINGLE_THREADED
        Core in use  :  Zen
   Copyright (c) 2011-2014, The OpenBLAS Project




***************************************
The coordinates will be read from file: xtb_opt.xyz
***************************************


Your calculation utilizes the geometrical counterpoise correction gCP
Please cite in your paper:
H.Kruse, S. Grimme J.Chem.Phys., 136, (2012), 154101 
   

Your calculation utilizes the atom-pairwise dispersion correction
based on EEQ partial charges (D4)


================================================================================

----- Orbital basis set information -----
Your calculation utilizes the basis: def2-mTZVPP
   Stefan Grimme, Andreas Hansen, Sebastian Ehlert, and Jan-Michael Mewes 
   J. Chem. Phys. 154, 064103 (2021). DOI: 10.1063/5.0040021

----- AuxJ basis set information -----
Your calculation utilizes the auxiliary basis: def2/J
   F. Weigend, Phys. Chem. Chem. Phys. 8, 1057 (2006).

================================================================================
                                        WARNINGS
                       Please study these warnings very carefully!
================================================================================



WARNING: SCAN, rSCAN, or r2SCAN functional requested.
  ===> : libXC variant has now been activated.



================================================================================
                                       INPUT FILE
================================================================================
NAME = xtb_opt.inp
|  1> ! r2scan-3c def2/J RI DEFGRID2 scfconv7 ENGRAD tightSCF miniprint
|  2> * xyzfile 0 1 xtb_opt.xyz
|  3> 
|  4>                          ****END OF INPUT****
================================================================================

                     *******************************
                     * Energy+Gradient Calculation *
                     *******************************

---------------------------------
CARTESIAN COORDINATES (ANGSTROEM)
---------------------------------
  C     -2.587400    0.578067    0.000017
  C     -1.228844   -0.062604    0.000062
  C     -1.136107   -1.448693   -0.000052
  C      0.092735   -2.082085    0.000018
  C      1.251908   -1.334338    0.000080
  C      1.174920    0.052571    0.000011
  C     -0.062927    0.704318    0.000134
  C     -0.086554    2.211481   -0.000013
  O      2.352845    0.740108   -0.000076
  H     -2.724764    1.200839    0.883387
  H     -2.724796    1.200616   -0.883501
  H     -3.361366   -0.185033    0.000158
  H     -2.041009   -2.038471   -0.000298
  H      0.147260   -3.160241   -0.000162
  H      2.226112   -1.796204    0.000095
  H      0.416992    2.606520    0.885279
  H      0.411238    2.606115   -0.888757
  H     -1.102052    2.590117    0.003258
  H      2.175863    1.687819   -0.001306

----------------------------
CARTESIAN COORDINATES (A.U.)
----------------------------
  NO LB      ZA    FRAG     MASS         X           Y           Z
   0 C     6.0000    0    12.011   -4.889478    1.092388    0.000032
   1 C     6.0000    0    12.011   -2.322179   -0.118304    0.000117
   2 C     6.0000    0    12.011   -2.146931   -2.737634   -0.000098
   3 C     6.0000    0    12.011    0.175243   -3.934570    0.000034
   4 C     6.0000    0    12.011    2.365764   -2.521534    0.000152
   5 C     6.0000    0    12.011    2.220277    0.099344    0.000022
   6 C     6.0000    0    12.011   -0.118914    1.330969    0.000253
   7 C     6.0000    0    12.011   -0.163563    4.179094   -0.000025
   8 O     8.0000    0    15.999    4.446233    1.398601   -0.000144
   9 H     1.0000    0     1.008   -5.149057    2.269256    1.669360
  10 H     1.0000    0     1.008   -5.149119    2.268835   -1.669574
  11 H     1.0000    0     1.008   -6.352061   -0.349661    0.000300
  12 H     1.0000    0     1.008   -3.856947   -3.852152   -0.000564
  13 H     1.0000    0     1.008    0.278280   -5.971989   -0.000307
  14 H     1.0000    0     1.008    4.206742   -3.394334    0.000179
  15 H     1.0000    0     1.008    0.788000    4.925609    1.672934
  16 H     1.0000    0     1.008    0.777126    4.924843   -1.679507
  17 H     1.0000    0     1.008   -2.082576    4.894612    0.006156
  18 H     1.0000    0     1.008    4.111784    3.189517   -0.002468

------------------------------------------------------------------------------
                   ___                                                        
                  /   \      - P O W E R E D   B Y -                         
                 /     \                                                     
                 |  |  |   _    _      __       _____    __    __             
                 |  |  |  | |  | |    /  \     |  _  \  |  |  /  |          
                  \  \/   | |  | |   /    \    | | | |  |  | /  /          
                 / \  \   | |__| |  /  /\  \   | |_| |  |  |/  /          
                |  |  |   |  __  | /  /__\  \  |    /   |      \           
                |  |  |   | |  | | |   __   |  |    \   |  |\   \          
                \     /   | |  | | |  |  |  |  | |\  \  |  | \   \       
                 \___/    |_|  |_| |__|  |__|  |_| \__\ |__|  \__/        
                                                                              
                      - O R C A' S   B I G   F R I E N D -                    
                                      &                                       
                       - I N T E G R A L  F E E D E R -                       
                                                                              
 v1 FN, 2020, v2 2021, v3 2022-2024                                           
------------------------------------------------------------------------------


----------------------
SHARK INTEGRAL PACKAGE
----------------------

Number of atoms                             ...     19
Number of basis functions                   ...    226
Number of shells                            ...    112
Maximum angular momentum                    ...      2
Integral batch strategy                     ... SHARK/LIBINT Hybrid
RI-J (if used) integral strategy            ... SPLIT-RIJ (Revised 2003 algorithm where possible)
Printlevel                                  ...      1
Contraction scheme used                     ... SEGMENTED contraction
Prescreening option                         ... SCHWARTZ
   Thresh                                   ... 3.000e-11
   Tcut                                     ... 1.000e-12
   Tpresel                                  ... 1.000e-12 
Coulomb Range Separation                    ... NOT USED
Exchange Range Separation                   ... NOT USED
Multipole approximations                    ... NOT USED
Finite Nucleus Model                        ... NOT USED
CABS basis                                  ... NOT available
Auxiliary Coulomb fitting basis             ... AVAILABLE
   # of basis functions in Aux-J            ...    551
   # of shells in Aux-J                     ...    185
   Maximum angular momentum in Aux-J        ...      4
Auxiliary J/K fitting basis                 ... NOT available
Auxiliary Correlation fitting basis         ... NOT available
Auxiliary 'external' fitting basis          ... NOT available

Checking pre-screening integrals            ... done (  0.0 sec) Dimension = 112
Check shell pair data                       ... done (  0.0 sec)
Shell pair information
Shell pair cut-off parameter TPreSel        ...   1.0e-12
Total number of shell pairs                 ...      6328
Shell pairs after pre-screening             ...      5728
Total number of primitive shell pairs       ...     23019
Primitive shell pairs kept                  ...     14802
          la=0 lb=0:   1893 shell pairs
          la=1 lb=0:   2182 shell pairs
          la=1 lb=1:    649 shell pairs
          la=2 lb=0:    601 shell pairs
          la=2 lb=1:    349 shell pairs
          la=2 lb=2:     54 shell pairs

Calculating one electron integrals          ... done (  0.0 sec)
Calculating RI/J V-Matrix + Cholesky decomp.... done (  0.0 sec)
Calculating Nuclear repulsion               ... done (  0.0 sec) ENN=    433.141046158339 Eh

Diagonalization of the overlap matrix:
Smallest eigenvalue                        ... 1.823e-05
Time for diagonalization                   ...    0.003 sec
Threshold for overlap eigenvalues          ... 1.000e-07
Number of eigenvalues below threshold      ... 0
Time for construction of square roots      ...    0.001 sec
Total time needed                          ...    0.006 sec

-------------------
DFT GRID GENERATION
-------------------

General Integration Accuracy     IntAcc      ... 4.388
Radial Grid Type                 RadialGrid  ... OptM3 with GC (2021)
Angular Grid (max. ang.)         AngularGrid ... 4 (Lebedev-302)
Angular grid pruning method      GridPruning ... 4 (adaptive)
Weight generation scheme         WeightScheme... mBecke (2022)
Basis function cutoff            BFCut       ... 1.0000e-11
Integration weight cutoff        WCut        ... 1.0000e-14
Partially contracted basis set               ... off
Rotationally invariant grid construction     ... off
Angular grids for H and He will be reduced by one unit
Diffuse basis detected: some atoms will have their outermost
                        angular grid increased by 1.

Total number of grid points                  ...    86339
Total number of batches                      ...     1359
Average number of points per batch           ...       63
Average number of grid points per atom       ...     4544
Initializing property integral containers    ... done (  0.0 sec)

SHARK setup successfully completed in   0.6 seconds

Maximum memory used throughout the entire STARTUP-calculation: 40.0 MB
Occupation numbers will be reassigned to an Aufbau configuration
             **** ENERGY FILE WAS UPDATED (xtb_opt.en.tmp) ****
Finished Guess after   0.1 sec
Maximum memory used throughout the entire GUESS-calculation: 16.9 MB
----------------------------------------D-I-I-S--------------------------------------------
Iteration    Energy (Eh)           Delta-E    RMSDP     MaxDP     DIISErr   Damp  Time(sec)
-------------------------------------------------------------------------------------------
               ***  Starting incremental Fock matrix formation  ***
                              *** Initializing SOSCF ***
---------------------------------------S-O-S-C-F--------------------------------------
Iteration    Energy (Eh)           Delta-E    RMSDP     MaxDP     MaxGrad    Time(sec)
--------------------------------------------------------------------------------------
    1    -386.0052453276635447     0.00e+00  7.06e-06  1.39e-04  3.57e-05     1.6
               *** Restarting incremental Fock matrix formation ***
    2    -386.0052453581000123    -3.04e-08  8.56e-06  1.68e-04  4.64e-05     1.6
    3    -386.0052451913833806     1.67e-07  5.93e-06  1.15e-04  1.26e-04     1.2
    4    -386.0052454265613164    -2.35e-07  3.32e-06  8.47e-05  2.40e-05     1.2
                  *** Gradient check signals convergence ***

               *****************************************************
               *                     SUCCESS                       *
               *           SCF CONVERGED AFTER   4 CYCLES          *
               *****************************************************

             **** ENERGY FILE WAS UPDATED (xtb_opt.en.tmp) ****

----------------
TOTAL SCF ENERGY
----------------

Total Energy       :       -386.00524542656132 Eh          -10503.73673 eV

Components:
Nuclear Repulsion  :        433.14104615833929 Eh           11786.36707 eV
Electronic Energy  :       -819.14629158490061 Eh          -22290.10380 eV
One Electron Energy:      -1380.33955332404093 Eh          -37560.94881 eV
Two Electron Energy:        561.19326173914033 Eh           15270.84501 eV

Virial components:
Potential Energy   :       -770.44657103720738 Eh          -20964.91703 eV
Kinetic Energy     :        384.44132561064606 Eh           10461.18031 eV
Virial Ratio       :          2.00406803252338

DFT components:
N(Alpha)           :       32.999989993161 electrons
N(Beta)            :       32.999989993161 electrons
N(Total)           :       65.999979986322 electrons
E(X)               :      -53.532133041545 Eh       
E(C)               :       -2.123386294889 Eh       
E(XC)              :      -55.655519336435 Eh       

---------------
SCF CONVERGENCE
---------------

  Last Energy change         ...    2.3518e-07  Tolerance :   1.0000e-07
  Last MAX-Density change    ...    8.4741e-05  Tolerance :   1.0000e-07
  Last RMS-Density change    ...    3.3206e-06  Tolerance :   5.0000e-09
  Last DIIS Error            ...    1.2258e-04  Tolerance :   1.0000e-07
  Last Orbital Gradient      ...    2.3965e-05  Tolerance :   1.0000e-04
  Last Orbital Rotation      ...    1.0742e-04  Tolerance :   1.0000e-04


----------------
ORBITAL ENERGIES
----------------

  NO   OCC          E(Eh)            E(eV) 
   0   2.0000     -18.981708      -516.5185 
   1   2.0000     -10.089045      -274.5369 
   2   2.0000     -10.041556      -273.2446 
   3   2.0000     -10.040928      -273.2275 
   4   2.0000     -10.038861      -273.1713 
   5   2.0000     -10.028946      -272.9015 
   6   2.0000     -10.027471      -272.8613 
   7   2.0000     -10.021608      -272.7018 
   8   2.0000     -10.018780      -272.6249 
   9   2.0000      -1.026607       -27.9354 
  10   2.0000      -0.824427       -22.4338 
  11   2.0000      -0.749854       -20.4046 
  12   2.0000      -0.726106       -19.7584 
  13   2.0000      -0.672518       -18.3002 
  14   2.0000      -0.645294       -17.5594 
  15   2.0000      -0.573526       -15.6064 
  16   2.0000      -0.548779       -14.9330 
  17   2.0000      -0.507238       -13.8026 
  18   2.0000      -0.462460       -12.5842 
  19   2.0000      -0.434394       -11.8205 
  20   2.0000      -0.416279       -11.3275 
  21   2.0000      -0.389820       -10.6075 
  22   2.0000      -0.385495       -10.4898 
  23   2.0000      -0.376874       -10.2553 
  24   2.0000      -0.373161       -10.1542 
  25   2.0000      -0.370491       -10.0816 
  26   2.0000      -0.362141        -9.8544 
  27   2.0000      -0.339649        -9.2423 
  28   2.0000      -0.317840        -8.6489 
  29   2.0000      -0.300663        -8.1815 
  30   2.0000      -0.298492        -8.1224 
  31   2.0000      -0.220057        -5.9881 
  32   2.0000      -0.198509        -5.4017 
  33   0.0000      -0.023857        -0.6492 
  34   0.0000      -0.009886        -0.2690 
  35   0.0000       0.051131         1.3913 
  36   0.0000       0.086315         2.3488 
  37   0.0000       0.099806         2.7159 
  38   0.0000       0.117114         3.1868 
  39   0.0000       0.117435         3.1956 
  40   0.0000       0.134915         3.6712 
  41   0.0000       0.141679         3.8553 
  42   0.0000       0.148037         4.0283 
  43   0.0000       0.153911         4.1881 
*Only the first 10 virtual orbitals were printed.
Total SCF time: 0 days 0 hours 0 min 5 sec 
Finished LeanSCF after   5.6 sec

Maximum memory used throughout the entire LEANSCF-calculation: 26.4 MB


-------------------------------------------------------------------------------
                          DFT DISPERSION CORRECTION                            
                                                                               
                                DFTD4 V3.4.0                                   
-------------------------------------------------------------------------------
-------------------------   ----------------
Dispersion correction           -0.006350214
-------------------------   ----------------

------------------   -----------------
gCP correction             0.007591949
------------------   -----------------

-------------------------   --------------------
FINAL SINGLE POINT ENERGY      -386.004003691782
-------------------------   --------------------

------------------------------------------------------------------------------
                         ORCA SCF GRADIENT CALCULATION
------------------------------------------------------------------------------

Nuc. rep. gradient        (SHARK) ... done (  0.0 sec)
HCore & Overlap gradient  (SHARK) ... done (  0.2 sec)
Split-RIJ-J gradient      (SHARK) ... done (  1.2 sec)
XC gradient                       ... done (  4.8 sec)
Dispersion correction             ... done (  0.0 sec)

-------------------
DISPERSION GRADIENT
-------------------

   1   C   :   -0.000116759    0.000026991    0.000000008
   2   C   :   -0.000064852   -0.000010165    0.000000008
   3   C   :   -0.000049702   -0.000090547   -0.000000001
   4   C   :    0.000019820   -0.000116113    0.000000003
   5   C   :    0.000075095   -0.000078909    0.000000007
   6   C   :    0.000082871   -0.000002137    0.000000004
   7   C   :    0.000015679    0.000040128    0.000000007
   8   C   :    0.000012830    0.000114444   -0.000000008
   9   O   :    0.000093742    0.000052944   -0.000000028
  10   H   :   -0.000046145    0.000014821    0.000011840
  11   H   :   -0.000046143    0.000014820   -0.000011834
  12   H   :   -0.000047761    0.000000047    0.000000002
  13   H   :   -0.000028363   -0.000036745   -0.000000005
  14   H   :    0.000005019   -0.000044841   -0.000000002
  15   H   :    0.000036317   -0.000026155    0.000000003
  16   H   :    0.000013535    0.000046998    0.000012674
  17   H   :    0.000013468    0.000047031   -0.000012734
  18   H   :   -0.000010513    0.000045176    0.000000047
  19   H   :    0.000041864    0.000002212    0.000000008

Difference to translation invariance:
           :    0.0000000000   -0.0000000000    0.0000000000

Difference to rotation invariance:
           :    0.0000000000    0.0000000000   -0.0000000000

Norm of the Dispersion gradient    ...    0.0003333635
RMS gradient                       ...    0.0000441551
MAX gradient                       ...    0.0001167593
gCP correction                   ... done

------------------
CARTESIAN GRADIENT
------------------

   1   C   :   -0.003212633    0.001162890   -0.000001005
   2   C   :    0.003418864    0.001066839    0.000002575
   3   C   :    0.003655301    0.002975277    0.000001981
   4   C   :   -0.000951274    0.000802998    0.000007412
   5   C   :   -0.005632446   -0.001326767   -0.000002551
   6   C   :    0.004268655    0.002222669   -0.000006272
   7   C   :   -0.002326230   -0.006980629   -0.000006250
   8   C   :   -0.000623029    0.006816327    0.000011830
   9   O   :   -0.004332281   -0.002556071    0.000011181
  10   H   :    0.002068633   -0.002981853   -0.002351739
  11   H   :    0.002066339   -0.002987696    0.002352863
  12   H   :    0.002781436    0.001570063    0.000001339
  13   H   :    0.003440692    0.001886834   -0.000005491
  14   H   :   -0.000480484    0.003885152   -0.000005648
  15   H   :   -0.004139578    0.002350526    0.000002659
  16   H   :   -0.001228764   -0.003199696   -0.002625648
  17   H   :   -0.001216402   -0.003207237    0.002626204
  18   H   :    0.002449574   -0.002655570   -0.000008277
  19   H   :   -0.000006377    0.001155947   -0.000005163

Difference to translation invariance:
           :    0.0000000000   -0.0000000000    0.0000000000

Difference to rotation invariance:
           :   -0.0000044290   -0.0000054982    0.0007698465

Norm of the Cartesian gradient     ...    0.0195937967
RMS gradient                       ...    0.0025952618
MAX gradient                       ...    0.0069806293

-------
TIMINGS
-------

Total SCF gradient time     ....        6.261 sec

Densities                   ....       0.000 sec  (  0.0%)
One electron gradient       ....       0.232 sec  (  3.7%)
RI-J Coulomb gradient       ....       1.241 sec  ( 19.8%)
XC gradient                 ....       4.767 sec  ( 76.1%)

Maximum memory used throughout the entire SCFGRAD-calculation: 37.2 MB

------------------------------------------------------------------------------
                              ORCA PROPERTY CALCULATIONS
------------------------------------------------------------------------------

GBWName                                 ... xtb_opt.gbw
Number of atoms                         ...     19
Number of basis functions               ...    226
Max core memory                         ...   1024 MB

Electric properties:
Dipole moment                           ... YES
Quadrupole moment                       ...  NO
Static polarizability (Dipole/Dipole)   ...  NO
Static polarizability (Dipole/Quad.)    ...  NO
Static polarizability (Quad./Quad.)     ...  NO
Static polarizability (Velocity)        ...  NO

Atomic electric properties:
Dipole moment                           ...  NO
Quadrupole moment                       ...  NO
Static polarizability                   ...  NO

Choice of electric origin               ... Center of mass
Position of electric origin             ...    -0.000025     0.000003    -0.000000

General magnetic properties:
Magnetizability                         ...  NO

EPR properties:
g-Tensor (aka g-matrix)                 ...  NO
Zero-Field splitting spin-orbit         ...  NO
Zero-field splitting spin-spin          ...  NO
Hyperfine couplings                     ...  NO (   0 nuclei)
Quadrupole couplings                    ...  NO (   0 nuclei)
Contact density                         ...  NO (   0 nuclei)

NMR properties:
Chemical shifts                         ...  NO (   0 nuclei)
Spin-rotation constants                 ...  NO (   0 nuclei)
Spin-spin couplings                     ...  NO (   0 nuclei,    0 pairs)

Choice of magnetic origin               ... GIAO
Position of magnetic origin             ...     0.000000     0.000000     0.000000

Properties with geometric perturbations:
SCF Hessian                             ...  NO
IR spectrum                             ...  NO
VCD spectrum                            ...  NO
X-ray spectroscopy properties:
SCF XES/XAS/RIXS spectra                ...  NO


-------------
DIPOLE MOMENT
-------------

Method             : SCF
Type of density    : Electron Density
Multiplicity       :   1
Irrep              :   0
Energy             :  -386.0052454265613164 Eh
Relativity type    : 
Basis              : AO
                                X                 Y                 Z
Electronic contribution:      5.709484382      -3.760208945       0.000834580
Nuclear contribution   :     -6.135019167       4.431692079      -0.001733978
                        -----------------------------------------
Total Dipole Moment    :     -0.425534785       0.671483134      -0.000899399
                        -----------------------------------------
Magnitude (a.u.)       :      0.794965573
Magnitude (Debye)      :      2.020641903



--------------------
Rotational spectrum 
--------------------
 
Rotational constants in cm-1:             0.075587             0.059468             0.033703 
Rotational constants in MHz :          2266.055345          1782.815448          1010.405148 

Dipole components along the rotational axes: 
x,y,z [a.u.] :    -0.393471    -0.690761    -0.000899 
x,y,z [Debye]:    -1.000123    -1.755774    -0.002285 

 

Dipole moment calculation done in   0.0 sec 

Maximum memory used throughout the entire PROP-calculation: 15.7 MB

--------------------------------
SUGGESTED CITATIONS FOR THIS RUN
--------------------------------

Below you find a list of papers that are relevant to this ORCA run
We neither can nor want to force you to cite these papers, but we appreciate if you do
You receive ORCA, which is the product of decades of hard work by many enthusiastic individuals, for free
The only thing we kindly ask in return is that you cite our papers,
We deeply appreciate it, if you show your appreciation for ORCA by not just citing the generic ORCA reference.

Please note that relegating all ORCA citations to the supporting information does *not* help us.
SI sections are not indexed - citations you put there will not count into any citation statistics
But we need these citations in order to attract the funding resources that allow us to do what we are doing

Therefore, if you are a happy ORCA user, please consider citing a few of the papers listed below in the main body of your paper

In addition to the list printed below, the program has created the file xtb_opt.bibtex that contains the list in bibtex format
You can import this file easily into all common literature databanks and citation aid programs


List of essential papers. We consider these as the minimum necessary citations

  1. Neese,F.
     Software update: the ORCA program system, version 5.0
     WIRES Comput. Molec. Sci., 2022 12(1)e1606
     doi.org/10.1002/wcms.1606
  2. Grimme,S.; Hansen,A.; Ehlert,S.; Mewes,J.
     r2SCAN-3c: A 'Swiss army knife' composite electronic-structure method
     J. Chem. Phys., 2021 154 064103
     doi.org/10.1063/5.0040021

List of papers to cite with high priority. The work reported in these papers was absolutely
necessary for this run to complete.
Our perspective: the developers of density functionals and basis sets usually get cited in chemistry papers
Good! But without the algorithms to do something with them, the functionals or basis sets would not do anything.
Hence, in our opinion, the algorithm design and method developments papers are equally worthy of getting cited

  1. Neese,F.
     An improvement of the resolution of the identity approximation for the formation of the Coulomb matrix
     J. Comp. Chem., 2003 24(14)1740-1747
     doi.org/10.1002/jcc.10318
  2. Neese,F.
     The SHARK Integral Generation and Digestion System
     J. Comp. Chem., 2022  1-16
     doi.org/10.1002/jcc.26942
  3. Lehtola,S.; Steigemann,C.; Oliveira,M.; Marques,M.
     Recent developments in Libxc - A comprehensive library of functionals for density functional theory
     Software X, 2018 7 
     doi.org/10.1016/j.softx.2017.11.002
  4. Caldeweyher,E.; Bannwarth,C.; Grimme,S.
     Extension of the D3 dispersion coefficient model
     J. Chem. Phys., 2017 147 034112
     doi.org/10.1063/1.4993215
  5. Caldeweyher,E.; Ehlert,S.; Hansen,A.; Neugebauer,H.; Spicher,S.; Bannwarth,C.; Grimme,S.
     A generally applicable atomic-charge dependent London dispersion correction
     J. Chem. Phys., 2019 150 154122
     doi.org/10.1063/1.5090222
  6. Caldeweyher,E.; Mewes,J.; Ehlert,S.; Grimme,S.
     Extension and evaluation of the D4 London-dispersion model for periodic systems
     Phys. Chem. Chem. Phys., 2020 22(16)8499-8512
     doi.org/10.1039/D0CP00502A
  7. Wittmann,L.; Gordiy,I.; Friede,M.; Helmich-Paris,B.; Grimme,S.; Hansen,A.; Bursch,M.
     Extension of the D3 and D4 London Dispersion Corrections to the full Actinides Series
     Phys. Chem. Chem. Phys., 2024 26(32)21379-21394
     doi.org/https://doi.org/10.1039/D4CP01514B 

List of suggested additional citations. These are papers that are important in the 'surrounding' of 
of this run, or papers that preceded the highly important papers. If you like your results we are grateful for a citation.

  1. Neese,F.
     The ORCA program system
     WIRES Comput. Molec. Sci., 2012 2(1)73-78
     doi.org/10.1002/wcms.81
  2. Neese,F.
     Software update: the ORCA program system, version 4.0
     WIRES Comput. Molec. Sci., 2018 8(1)1-6
     doi.org/10.1002/wcms.1327
  3. Neese,F.; Wennmohs,F.; Becker,U.; Riplinger,C.
     The ORCA quantum chemistry program package
     J. Chem. Phys., 2020 152 Art. No. L224108
     doi.org/10.1063/5.0004608

List of optional additional citations

  1. Neese,F.
     Approximate second-order SCF convergence for spin unrestricted wavefunctions
     Chem. Phys. Lett., 2000 325(1-3)93-98
     doi.org/10.1016/s0009-2614(00)00662-x

Timings for individual modules:

Sum of individual times          ...       12.711 sec (=   0.212 min)
Startup calculation              ...        0.648 sec (=   0.011 min)   5.1 %
SCF iterations                   ...        5.713 sec (=   0.095 min)  44.9 %
Property calculations            ...        0.044 sec (=   0.001 min)   0.3 %
SCF Gradient evaluation          ...        6.306 sec (=   0.105 min)  49.6 %
                             ****ORCA TERMINATED NORMALLY****
TOTAL RUN TIME: 0 days 0 hours 0 minutes 12 seconds 784 msec
  ------------------------------------------------------------------------
          * successful ORCA run, taking over control again...

         :::::::::::::::::::::::::::::::::::::::::::::::::::::
         ::                  ORCA SUMMARY                   ::
         :::::::::::::::::::::::::::::::::::::::::::::::::::::
         :: total energy            -386.004003691782 Eh    ::
         :: gradient norm              0.019593796745 Eh/a0 ::
         :: HOMO-LUMO gap              0.000000000000 eV    ::
         :::::::::::::::::::::::::::::::::::::::::::::::::::::

      ----------------------------------------------------------- 
     |                       L-ANC optimizer                     |
      ----------------------------------------------------------- 
          low memory version by Sebastian Ehlert

          ...................................................
          :                      SETUP                      :
          :.................................................:
          :   energy convergence        0.5000000E-05 Eh    :
          :   grad. convergence         0.1000000E-02 Eh/a0 :
          :   optimization log               true           :
          :   writing optlog all                1     steps :
          :   Hessian reset                     8     steps :
          :   maximium step len.        1.0000000     a0    :
          :   LBFGS images                      8           :
          ...................................................
 * calculating model hessian...
Using Lindh-Hessian (1995)
 Shifting diagonal of input Hessian by    1.0000000000000000E-002
 Lowest  eigenvalues of input Hessian
    0.000000    0.000000    0.000000    0.000000    0.000000    0.000000
    0.012642    0.016881    0.019304    0.020584    0.020723    0.023058
    0.026746    0.031359    0.046507    0.049511    0.052838    0.056822
 Highest eigenvalues
    1.491989    1.642119    1.727869    1.899782    2.025548    2.074744


........................................................................
.............................. CYCLE    1 ..............................
........................................................................
                         * ORCA takes the control...
  ------------------------------------------------------------------------

                                 *****************
                                 * O   R   C   A *
                                 *****************

                                            #,                                       
                                            ###                                      
                                            ####                                     
                                            #####                                    
                                            ######                                   
                                           ########,                                 
                                     ,,################,,,,,                         
                               ,,#################################,,                 
                          ,,##########################################,,             
                       ,#########################################, ''#####,          
                    ,#############################################,,   '####,        
                  ,##################################################,,,,####,       
                ,###########''''           ''''###############################       
              ,#####''   ,,,,##########,,,,          '''####'''          '####       
            ,##' ,,,,###########################,,,                        '##       
           ' ,,###''''                  '''############,,,                           
         ,,##''                                '''############,,,,        ,,,,,,###''
      ,#''                                            '''#######################'''  
     '                                                          ''''####''''         
             ,#######,   #######,   ,#######,      ##                                
            ,#'     '#,  ##    ##  ,#'     '#,    #''#        ,####,   ,####,        
            ##       ##  ##   ,#'  ##            #'  '#       #'       #'  '#        
            ##       ##  #######   ##           ,######,      #####,   #    #        
            '#,     ,#'  ##    ##  '#,     ,#' ,#      #,     #,   #   #,  ,#        
             '#######'   ##     ##  '#######'  #'      '#     '####' # '####'        



                #########################################################
                #                        -***-                          #
                #          Department of theory and spectroscopy        #
                #                                                       #
                #                      Frank Neese                      #
                #                                                       #
                #     Directorship, Architecture, Infrastructure        #
                #                    SHARK, DRIVERS                     #
                #        Core code/Algorithms in most modules           #
                #                                                       #
                #        Max Planck Institute fuer Kohlenforschung      #
                #                Kaiser Wilhelm Platz 1                 #
                #                 D-45470 Muelheim/Ruhr                 #
                #                      Germany                          #
                #                                                       #
                #                  All rights reserved                  #
                #                        -***-                          #
                #########################################################


                         Program Version 6.0.1  -  RELEASE   -


 With contributions from (in alphabetic order):
[Max-Planck-Institut fuer Kohlenforschung]                               
  Daniel Aravena         : Magnetic Suceptibility                        
  Michael Atanasov       : Ab Initio Ligand Field Theory (pilot matlab implementation)
  Alexander A. Auer      : GIAO ZORA, VPT2 properties, NMR spectrum      
  Ute Becker             : All parallelization in ORCA, NUMFREQ, NUMCALC 
  Giovanni Bistoni       : ED, misc. LED, open-shell LED, HFLD           
  Martin Brehm           : Molecular dynamics                            
  Dmytro Bykov           : pre 5.0 version of the SCF Hessian            
  Marcos Casanova-Páez   : Triplet and SCS-CIS(D). UHF-(DLPNO)-IP/EA/STEOM-CCSD. UHF-CVS-IP/STEOM-CCSD   
  Vijay G. Chilkuri      : MRCI spin determinant printing, contributions to CSF-ICE 
  Pauline Colinet        : FMM embedding                                 
  Dipayan Datta          : RHF DLPNO-CCSD density                        
  Achintya Kumar Dutta   : EOM-CC, STEOM-CC                              
  Nicolas Foglia         : Exact transition moments, OPA infrastructure, MCD improvements    
  Dmitry Ganyushin       : Spin-Orbit,Spin-Spin,Magnetic field MRCI      
  Miquel Garcia-Rates    : C-PCM and meta-GGA Hessian, CCSD/C-PCM, Gaussian charge scheme 
  Tiago L. C. Gouveia    : GS-ROHF, GS-ROCIS                             
  Yang Guo               : DLPNO-NEVPT2, F12-NEVPT2, CIM, IAO-localization        
  Andreas Hansen         : Spin unrestricted coupled pair/coupled cluster methods 
  Ingolf Harden          : AUTO-CI MPn and infrastructure                
  Benjamin Helmich-Paris : MC-RPA, TRAH-(SCF,CASSCF), AVAS, COSX integrals, SCF dyn. polar. 
  Lee Huntington         : MR-EOM, pCC                                   
  Robert Izsak           : Overlap fitted RIJCOSX, COSX-SCS-MP3, EOM     
  Riya Kayal             : Wick's Theorem for AUTO-CI, AUTO-CI UHF-CCSDT 
  Emily Kempfer          : AUTO-CI, RHF CISDT and CCSDT                  
  Christian Kollmar      : KDIIS, OOCD, Brueckner-CCSD(T), CCSD density, CASPT2, CASPT2-K, improved NEVPT2 
  Axel Koslowski         : Symmetry handling                             
  Simone Kossmann        : meta-GGA functionals, TD-DFT gradient, OOMP2, (MP2 Hessian; deprecated post 5.0) 
  Lucas Lang             : DCDCAS                                        
  Marvin Lechner         : AUTO-CI (C++ implementation), FIC-MRCC        
  Spencer Leger          : CASSCF response                               
  Dagmar Lenk            : GEPOL surface, SMD, ORCA-2-JSON               
  Dimitrios Liakos       : Extrapolation schemes; Compound Job, initial MDCI parallelization 
  Dimitrios Manganas     : Further ROCIS development; embedding schemes. LFT, Crystal Embedding 
  Dimitrios Pantazis     : SARC Basis sets                               
  Anastasios Papadopoulos: AUTO-CI, single reference methods and gradients 
  Taras Petrenko         : pre 6.0 DFT Hessian and TD-DFT gradient, (ASA, deprecated), ECA, 1-Electron XAS/XES, NRVS 
  Peter Pinski           : DLPNO-MP2, DLPNO-MP2 Gradient                 
  Christoph Reimann      : Effective Core Potentials                     
  Marius Retegan         : Local ZFS, SOC                                
  Christoph Riplinger    : Optimizer, TS searches, QM/MM, DLPNO-CCSD(T), (RO)-DLPNO pert. Triples 
  Michael Roemelt        : Original ROCIS implementation                 
  Masaaki Saitow         : Open-shell DLPNO-CCSD energy and density      
  Barbara Sandhoefer     : DKH picture change effects                    
  Kantharuban Sivalingam : CASSCF convergence/infrastructure, NEVPT2 and variants, FIC-MRCI 
  Bernardo de Souza      : ESD, SOC TD-DFT                               
  Georgi L. Stoychev     : AutoAux, RI-MP2 NMR, DLPNO-MP2 response, X2C  
  Van Anh Tran           : RI-MP2 g-tensors                              
  Willem Van den Heuvel  : Paramagnetic NMR                              
  Zikuan Wang            : NOTCH, Electric field optimization            
  Frank Wennmohs         : Technical directorship and infrastructure     
  Hang Xu                : AUTO-CI-Response properties                   
                                                                         
[FACCTs GmbH]                                                            
  Markus Bursch, Miquel Garcia-Rates, Christoph Riplinger, Bernardo de Souza, Georgi L. Stoychev 
                                                                 
  APM, Basis sets (HGBS, AHGBS, def-TZVP (Ac-Lr), def2-XVPD (La-Lu)), CI-OPT, improved COSX, DLPNO-Multilevel,           
  DOCKER, DRACO, updates on ESD, GOAT, IRC, LR-CPCM, MBIS, meta-GGA TD-DFT gradient, ML-optimized integration grids, 
  MM, NACMEs, nearIR, NEB, NEB-TS, NL-DFT gradient (VV10), 2- and 3-layer-ONIOM, interface openCOSMO-RS, QMMM,   
  Crystal-QMMM, SF, symmetry and pop. for TD-DFT, r2SCAN hybrids, SOLVATOR                                   
                                                                         
[Other institutions]                                                     
  V. Asgeirsson          : NEB                                           
  Christoph Bannwarth    : sTDA-DFT, sTD-DFT, PBEh-3c, B97-3c, D3        
  Sebastian Ehlert       : rSCAN, r2SCAN, r2SCAN-3c, D4, dhf basis sets  
  Marvin Friede          : D4 for Fr, Ra, Ac-Lr                          
  Lars Goerigk           : TD-DFT with DH, B97 family of functionals     
  Stefan Grimme          : VdW corrections, initial TS optimization, DFT functionals, gCP, sTDA/sTD-DF 
  Waldemar Hujo          : DFT-NL                                        
  H. Jonsson             : NEB                                           
  Holger Kruse           : gCP                                           
  Marcel Mueller         : wB97X-3c, vDZP basis set                      
  Hagen Neugebauer       : wr2SCAN                                       
  Tobias Risthaus        : range-separated hybrid DFT                    
  Lukas Wittmann         : regularized MP2, r2SCAN double-hybrids, wr2SCAN        
                                                                         
We gratefully acknowledge several colleagues who have allowed us to      
interface, adapt or use parts of their codes:                            
  Ed Valeev, F. Pavosevic, A. Kumar             : LibInt (2-el integral package), F12 methods 
  Garnet Chan, S. Sharma, J. Yang, R. Olivares  : DMRG                   
  Ulf Ekstrom                                   : XCFun DFT Library      
  Mihaly Kallay                                 : mrcc  (arbitrary order and MRCC methods)
  Frank Weinhold                                : gennbo (NPA and NBO analysis)           
  Simon Mueller                                 : openCOSMO-RS                            
  Christopher J. Cramer and Donald G. Truhlar   : smd solvation model                     
  S Lehtola, MJT Oliveira, MAL Marques          : LibXC Library                           
  Liviu Ungur et al                             : ANISO software                          


 Your calculation uses the libint2 library for the computation of 2-el integrals
 For citations please refer to: http://libint.valeyev.net

 Your ORCA version has been built with support for libXC version: 6.2.2
 For citations please refer to: https://libxc.gitlab.io

 This ORCA versions uses:
   CBLAS   interface :  Fast vector & matrix operations
   LAPACKE interface :  Fast linear algebra routines
   SCALAPACK package :  Parallel linear algebra routines
   Shared memory     :  Shared parallel matrices
   BLAS/LAPACK       :  OpenBLAS 0.3.27  USE64BITINT DYNAMIC_ARCH NO_AFFINITY Zen SINGLE_THREADED
        Core in use  :  Zen
   Copyright (c) 2011-2014, The OpenBLAS Project




***************************************
The coordinates will be read from file: xtb_opt.xyz
***************************************


Your calculation utilizes the geometrical counterpoise correction gCP
Please cite in your paper:
H.Kruse, S. Grimme J.Chem.Phys., 136, (2012), 154101 
   

Your calculation utilizes the atom-pairwise dispersion correction
based on EEQ partial charges (D4)


================================================================================

----- Orbital basis set information -----
Your calculation utilizes the basis: def2-mTZVPP
   Stefan Grimme, Andreas Hansen, Sebastian Ehlert, and Jan-Michael Mewes 
   J. Chem. Phys. 154, 064103 (2021). DOI: 10.1063/5.0040021

----- AuxJ basis set information -----
Your calculation utilizes the auxiliary basis: def2/J
   F. Weigend, Phys. Chem. Chem. Phys. 8, 1057 (2006).

================================================================================
                                        WARNINGS
                       Please study these warnings very carefully!
================================================================================

WARNING: Old DensityContainer found on disk!
         Will remove this file - 
         If you want to keep old densities, please start your calculation with a different basename. 



WARNING: SCAN, rSCAN, or r2SCAN functional requested.
  ===> : libXC variant has now been activated.



================================================================================
                                       INPUT FILE
================================================================================
NAME = xtb_opt.inp
|  1> ! r2scan-3c def2/J RI DEFGRID2 scfconv7 ENGRAD tightSCF miniprint
|  2> * xyzfile 0 1 xtb_opt.xyz
|  3> 
|  4>                          ****END OF INPUT****
================================================================================

                     *******************************
                     * Energy+Gradient Calculation *
                     *******************************

---------------------------------
CARTESIAN COORDINATES (ANGSTROEM)
---------------------------------
  C     -2.592441    0.580625   -0.000007
  C     -1.232691   -0.066809    0.000037
  C     -1.138648   -1.458292   -0.000053
  C      0.098143   -2.089952   -0.000001
  C      1.262084   -1.339944    0.000054
  C      1.176731    0.048839    0.000005
  C     -0.062478    0.705004    0.000129
  C     -0.083794    2.213413   -0.000018
  O      2.357828    0.737964   -0.000163
  H     -2.738754    1.209685    0.883140
  H     -2.738742    1.209562   -0.883245
  H     -3.372661   -0.181338    0.000079
  H     -2.047120   -2.050399   -0.000176
  H      0.155305   -3.172251   -0.000059
  H      2.241433   -1.802931    0.000036
  H      0.418028    2.621163    0.886224
  H      0.412398    2.620881   -0.889575
  H     -1.100004    2.601195    0.003222
  H      2.179435    1.684488   -0.001296

----------------------------
CARTESIAN COORDINATES (A.U.)
----------------------------
  NO LB      ZA    FRAG     MASS         X           Y           Z
   0 C     6.0000    0    12.011   -4.899004    1.097221   -0.000014
   1 C     6.0000    0    12.011   -2.329448   -0.126250    0.000070
   2 C     6.0000    0    12.011   -2.151733   -2.755772   -0.000101
   3 C     6.0000    0    12.011    0.185463   -3.949436   -0.000002
   4 C     6.0000    0    12.011    2.384994   -2.532127    0.000103
   5 C     6.0000    0    12.011    2.223699    0.092292    0.000009
   6 C     6.0000    0    12.011   -0.118066    1.332264    0.000243
   7 C     6.0000    0    12.011   -0.158347    4.182744   -0.000034
   8 O     8.0000    0    15.999    4.455649    1.394549   -0.000307
   9 H     1.0000    0     1.008   -5.175495    2.285973    1.668893
  10 H     1.0000    0     1.008   -5.175472    2.285740   -1.669092
  11 H     1.0000    0     1.008   -6.373406   -0.342679    0.000149
  12 H     1.0000    0     1.008   -3.868495   -3.874692   -0.000332
  13 H     1.0000    0     1.008    0.293484   -5.994686   -0.000111
  14 H     1.0000    0     1.008    4.235694   -3.407046    0.000068
  15 H     1.0000    0     1.008    0.789958    4.953280    1.674721
  16 H     1.0000    0     1.008    0.779320    4.952748   -1.681053
  17 H     1.0000    0     1.008   -2.078706    4.915545    0.006089
  18 H     1.0000    0     1.008    4.118536    3.183221   -0.002449

------------------------------------------------------------------------------
                   ___                                                        
                  /   \      - P O W E R E D   B Y -                         
                 /     \                                                     
                 |  |  |   _    _      __       _____    __    __             
                 |  |  |  | |  | |    /  \     |  _  \  |  |  /  |          
                  \  \/   | |  | |   /    \    | | | |  |  | /  /          
                 / \  \   | |__| |  /  /\  \   | |_| |  |  |/  /          
                |  |  |   |  __  | /  /__\  \  |    /   |      \           
                |  |  |   | |  | | |   __   |  |    \   |  |\   \          
                \     /   | |  | | |  |  |  |  | |\  \  |  | \   \       
                 \___/    |_|  |_| |__|  |__|  |_| \__\ |__|  \__/        
                                                                              
                      - O R C A' S   B I G   F R I E N D -                    
                                      &                                       
                       - I N T E G R A L  F E E D E R -                       
                                                                              
 v1 FN, 2020, v2 2021, v3 2022-2024                                           
------------------------------------------------------------------------------


----------------------
SHARK INTEGRAL PACKAGE
----------------------

Number of atoms                             ...     19
Number of basis functions                   ...    226
Number of shells                            ...    112
Maximum angular momentum                    ...      2
Integral batch strategy                     ... SHARK/LIBINT Hybrid
RI-J (if used) integral strategy            ... SPLIT-RIJ (Revised 2003 algorithm where possible)
Printlevel                                  ...      1
Contraction scheme used                     ... SEGMENTED contraction
Prescreening option                         ... SCHWARTZ
   Thresh                                   ... 3.000e-11
   Tcut                                     ... 1.000e-12
   Tpresel                                  ... 1.000e-12 
Coulomb Range Separation                    ... NOT USED
Exchange Range Separation                   ... NOT USED
Multipole approximations                    ... NOT USED
Finite Nucleus Model                        ... NOT USED
CABS basis                                  ... NOT available
Auxiliary Coulomb fitting basis             ... AVAILABLE
   # of basis functions in Aux-J            ...    551
   # of shells in Aux-J                     ...    185
   Maximum angular momentum in Aux-J        ...      4
Auxiliary J/K fitting basis                 ... NOT available
Auxiliary Correlation fitting basis         ... NOT available
Auxiliary 'external' fitting basis          ... NOT available

Checking pre-screening integrals            ... done (  0.0 sec) Dimension = 112
Check shell pair data                       ... done (  0.0 sec)
Shell pair information
Shell pair cut-off parameter TPreSel        ...   1.0e-12
Total number of shell pairs                 ...      6328
Shell pairs after pre-screening             ...      5725
Total number of primitive shell pairs       ...     23019
Primitive shell pairs kept                  ...     14788
          la=0 lb=0:   1893 shell pairs
          la=1 lb=0:   2179 shell pairs
          la=1 lb=1:    649 shell pairs
          la=2 lb=0:    601 shell pairs
          la=2 lb=1:    349 shell pairs
          la=2 lb=2:     54 shell pairs

Calculating one electron integrals          ... done (  0.0 sec)
Calculating RI/J V-Matrix + Cholesky decomp.... done (  0.0 sec)
Calculating Nuclear repulsion               ... done (  0.0 sec) ENN=    431.802443673669 Eh

Diagonalization of the overlap matrix:
Smallest eigenvalue                        ... 1.893e-05
Time for diagonalization                   ...    0.004 sec
Threshold for overlap eigenvalues          ... 1.000e-07
Number of eigenvalues below threshold      ... 0
Time for construction of square roots      ...    0.001 sec
Total time needed                          ...    0.006 sec

-------------------
DFT GRID GENERATION
-------------------

General Integration Accuracy     IntAcc      ... 4.388
Radial Grid Type                 RadialGrid  ... OptM3 with GC (2021)
Angular Grid (max. ang.)         AngularGrid ... 4 (Lebedev-302)
Angular grid pruning method      GridPruning ... 4 (adaptive)
Weight generation scheme         WeightScheme... mBecke (2022)
Basis function cutoff            BFCut       ... 1.0000e-11
Integration weight cutoff        WCut        ... 1.0000e-14
Partially contracted basis set               ... off
Rotationally invariant grid construction     ... off
Angular grids for H and He will be reduced by one unit
Diffuse basis detected: some atoms will have their outermost
                        angular grid increased by 1.

Total number of grid points                  ...    86359
Total number of batches                      ...     1361
Average number of points per batch           ...       63
Average number of grid points per atom       ...     4545
Initializing property integral containers    ... done (  0.0 sec)

SHARK setup successfully completed in   0.6 seconds

Maximum memory used throughout the entire STARTUP-calculation: 40.0 MB
Occupation numbers will be reassigned to an Aufbau configuration
             **** ENERGY FILE WAS UPDATED (xtb_opt.en.tmp) ****
Finished Guess after   0.0 sec
Maximum memory used throughout the entire GUESS-calculation: 16.9 MB
----------------------------------------D-I-I-S--------------------------------------------
Iteration    Energy (Eh)           Delta-E    RMSDP     MaxDP     DIISErr   Damp  Time(sec)
-------------------------------------------------------------------------------------------
               ***  Starting incremental Fock matrix formation  ***
                              *** Initializing SOSCF ***
---------------------------------------S-O-S-C-F--------------------------------------
Iteration    Energy (Eh)           Delta-E    RMSDP     MaxDP     MaxGrad    Time(sec)
--------------------------------------------------------------------------------------
    1    -386.0057513542654419     0.00e+00  3.86e-04  1.31e-02  2.05e-04     1.6
               *** Restarting incremental Fock matrix formation ***
    2    -386.0058437217148253    -9.24e-05  1.07e-04  2.91e-03  3.27e-04     1.6
    3    -386.0058383614206718     5.36e-06  6.19e-05  1.63e-03  6.52e-04     1.3
    4    -386.0058510693378935    -1.27e-05  4.36e-05  1.50e-03  2.33e-04     1.2
    5    -386.0058494157703421     1.65e-06  2.52e-05  7.92e-04  2.25e-04     1.2
    6    -386.0058523130804247    -2.90e-06  5.53e-06  1.44e-04  3.39e-05     1.2
    7    -386.0058522650052169     4.81e-08  3.54e-06  1.11e-04  5.75e-05     1.2
                 **** Energy Check signals convergence ****

               *****************************************************
               *                     SUCCESS                       *
               *           SCF CONVERGED AFTER   7 CYCLES          *
               *****************************************************

             **** ENERGY FILE WAS UPDATED (xtb_opt.en.tmp) ****

----------------
TOTAL SCF ENERGY
----------------

Total Energy       :       -386.00585226500522 Eh          -10503.75324 eV

Components:
Nuclear Repulsion  :        431.80244367366851 Eh           11749.94185 eV
Electronic Energy  :       -817.80829593867372 Eh          -22253.69509 eV
One Electron Energy:      -1377.68947833567540 Eh          -37488.83660 eV
Two Electron Energy:        559.88118239700168 Eh           15235.14151 eV

Virial components:
Potential Energy   :       -770.30125092602145 Eh          -20960.96267 eV
Kinetic Energy     :        384.29539866101624 Eh           10457.20943 eV
Virial Ratio       :          2.00445088234194

DFT components:
N(Alpha)           :       32.999985582431 electrons
N(Beta)            :       32.999985582431 electrons
N(Total)           :       65.999971164863 electrons
E(X)               :      -53.497589387022 Eh       
E(C)               :       -2.121582609243 Eh       
E(XC)              :      -55.619171996264 Eh       

---------------
SCF CONVERGENCE
---------------

  Last Energy change         ...   -4.8075e-08  Tolerance :   1.0000e-07
  Last MAX-Density change    ...    1.1081e-04  Tolerance :   1.0000e-07
  Last RMS-Density change    ...    3.5401e-06  Tolerance :   5.0000e-09
  Last DIIS Error            ...    2.3960e-03  Tolerance :   1.0000e-07
  Last Orbital Gradient      ...    5.7546e-05  Tolerance :   1.0000e-04
  Last Orbital Rotation      ...    6.7956e-05  Tolerance :   1.0000e-04


----------------
ORBITAL ENERGIES
----------------

  NO   OCC          E(Eh)            E(eV) 
   0   2.0000     -18.980915      -516.4970 
   1   2.0000     -10.090290      -274.5708 
   2   2.0000     -10.043522      -273.2981 
   3   2.0000     -10.043260      -273.2910 
   4   2.0000     -10.040916      -273.2272 
   5   2.0000     -10.030778      -272.9513 
   6   2.0000     -10.029999      -272.9302 
   7   2.0000     -10.023912      -272.7645 
   8   2.0000     -10.021431      -272.6970 
   9   2.0000      -1.025195       -27.8970 
  10   2.0000      -0.822414       -22.3790 
  11   2.0000      -0.748492       -20.3675 
  12   2.0000      -0.724874       -19.7248 
  13   2.0000      -0.671631       -18.2760 
  14   2.0000      -0.644541       -17.5389 
  15   2.0000      -0.572752       -15.5854 
  16   2.0000      -0.548395       -14.9226 
  17   2.0000      -0.505909       -13.7665 
  18   2.0000      -0.461659       -12.5624 
  19   2.0000      -0.433718       -11.8021 
  20   2.0000      -0.414318       -11.2742 
  21   2.0000      -0.390079       -10.6146 
  22   2.0000      -0.383455       -10.4343 
  23   2.0000      -0.375938       -10.2298 
  24   2.0000      -0.373631       -10.1670 
  25   2.0000      -0.369505       -10.0547 
  26   2.0000      -0.361018        -9.8238 
  27   2.0000      -0.339535        -9.2392 
  28   2.0000      -0.317861        -8.6494 
  29   2.0000      -0.299645        -8.1537 
  30   2.0000      -0.299615        -8.1529 
  31   2.0000      -0.219980        -5.9859 
  32   2.0000      -0.198627        -5.4049 
  33   0.0000      -0.025726        -0.7000 
  34   0.0000      -0.011206        -0.3049 
  35   0.0000       0.051285         1.3955 
  36   0.0000       0.085852         2.3361 
  37   0.0000       0.099076         2.6960 
  38   0.0000       0.114509         3.1160 
  39   0.0000       0.116632         3.1737 
  40   0.0000       0.133996         3.6462 
  41   0.0000       0.141432         3.8486 
  42   0.0000       0.146403         3.9838 
  43   0.0000       0.152390         4.1468 
*Only the first 10 virtual orbitals were printed.
Total SCF time: 0 days 0 hours 0 min 9 sec 
Finished LeanSCF after   9.3 sec

Maximum memory used throughout the entire LEANSCF-calculation: 26.4 MB


-------------------------------------------------------------------------------
                          DFT DISPERSION CORRECTION                            
                                                                               
                                DFTD4 V3.4.0                                   
-------------------------------------------------------------------------------
-------------------------   ----------------
Dispersion correction           -0.006329367
-------------------------   ----------------

------------------   -----------------
gCP correction             0.007526390
------------------   -----------------

-------------------------   --------------------
FINAL SINGLE POINT ENERGY      -386.004655241293
-------------------------   --------------------

------------------------------------------------------------------------------
                         ORCA SCF GRADIENT CALCULATION
------------------------------------------------------------------------------

Nuc. rep. gradient        (SHARK) ... done (  0.0 sec)
HCore & Overlap gradient  (SHARK) ... done (  0.2 sec)
Split-RIJ-J gradient      (SHARK) ... done (  1.2 sec)
XC gradient                       ... done (  4.7 sec)
Dispersion correction             ... done (  0.0 sec)

-------------------
DISPERSION GRADIENT
-------------------

   1   C   :   -0.000117017    0.000027228    0.000000007
   2   C   :   -0.000065328   -0.000010479    0.000000007
   3   C   :   -0.000049505   -0.000090895   -0.000000000
   4   C   :    0.000019801   -0.000115748    0.000000003
   5   C   :    0.000075024   -0.000078579    0.000000006
   6   C   :    0.000082918   -0.000002392    0.000000004
   7   C   :    0.000015891    0.000040423    0.000000007
   8   C   :    0.000013069    0.000114865   -0.000000006
   9   O   :    0.000093528    0.000052648   -0.000000028
  10   H   :   -0.000046015    0.000014651    0.000011647
  11   H   :   -0.000046013    0.000014651   -0.000011642
  12   H   :   -0.000047385    0.000000242    0.000000000
  13   H   :   -0.000028366   -0.000036797   -0.000000003
  14   H   :    0.000004987   -0.000044661   -0.000000000
  15   H   :    0.000036279   -0.000025977    0.000000002
  16   H   :    0.000013328    0.000046809    0.000012471
  17   H   :    0.000013265    0.000046842   -0.000012528
  18   H   :   -0.000010173    0.000045018    0.000000046
  19   H   :    0.000041710    0.000002148    0.000000006

Difference to translation invariance:
           :   -0.0000000000   -0.0000000000   -0.0000000000

Difference to rotation invariance:
           :    0.0000000000   -0.0000000000    0.0000000000

Norm of the Dispersion gradient    ...    0.0003332336
RMS gradient                       ...    0.0000441379
MAX gradient                       ...    0.0001170174
gCP correction                   ... done

------------------
CARTESIAN GRADIENT
------------------

   1   C   :   -0.000951971    0.000637524    0.000000399
   2   C   :    0.001253013    0.000168757   -0.000000293
   3   C   :    0.001042765    0.000916860   -0.000001809
   4   C   :   -0.000227686   -0.000153955   -0.000001965
   5   C   :   -0.001950925   -0.000164591   -0.000001001
   6   C   :    0.002503586    0.001145946    0.000002342
   7   C   :   -0.001318646   -0.003027462    0.000002645
   8   C   :   -0.000198211    0.002768397    0.000003291
   9   O   :   -0.002102747   -0.000771599    0.000005981
  10   H   :    0.000512646   -0.000726672   -0.000604478
  11   H   :    0.000510817   -0.000729875    0.000602873
  12   H   :    0.000911721    0.000323467    0.000002395
  13   H   :    0.000671685    0.000413978   -0.000001677
  14   H   :   -0.000146529    0.000970990   -0.000000928
  15   H   :   -0.000713049    0.000555882    0.000001520
  16   H   :   -0.000331346   -0.000880648   -0.000683526
  17   H   :   -0.000330122   -0.000883434    0.000679721
  18   H   :    0.000682437   -0.000755447   -0.000001557
  19   H   :    0.000182564    0.000191881   -0.000003931

Difference to translation invariance:
           :   -0.0000000000    0.0000000000    0.0000000000

Difference to rotation invariance:
           :   -0.0000053530   -0.0000066839    0.0007428876

Norm of the Cartesian gradient     ...    0.0070297804
RMS gradient                       ...    0.0009311172
MAX gradient                       ...    0.0030274621

-------
TIMINGS
-------

Total SCF gradient time     ....        6.171 sec

Densities                   ....       0.000 sec  (  0.0%)
One electron gradient       ....       0.215 sec  (  3.5%)
RI-J Coulomb gradient       ....       1.234 sec  ( 20.0%)
XC gradient                 ....       4.701 sec  ( 76.2%)

Maximum memory used throughout the entire SCFGRAD-calculation: 37.2 MB

------------------------------------------------------------------------------
                              ORCA PROPERTY CALCULATIONS
------------------------------------------------------------------------------

GBWName                                 ... xtb_opt.gbw
Number of atoms                         ...     19
Number of basis functions               ...    226
Max core memory                         ...   1024 MB

Electric properties:
Dipole moment                           ... YES
Quadrupole moment                       ...  NO
[...]
E(C)               :       -2.120945142135 Eh       
E(XC)              :      -55.606063837775 Eh       

---------------
SCF CONVERGENCE
---------------

  Last Energy change         ...    2.8053e-09  Tolerance :   1.0000e-07
  Last MAX-Density change    ...    3.1337e-05  Tolerance :   1.0000e-07
  Last RMS-Density change    ...    1.3068e-06  Tolerance :   5.0000e-09
  Last DIIS Error            ...    2.4926e-05  Tolerance :   1.0000e-07
  Last Orbital Gradient      ...    5.8553e-06  Tolerance :   1.0000e-04
  Last Orbital Rotation      ...    3.0518e-05  Tolerance :   1.0000e-04


----------------
ORBITAL ENERGIES
----------------

  NO   OCC          E(Eh)            E(eV) 
   0   2.0000     -18.980810      -516.4941 
   1   2.0000     -10.090723      -274.5825 
   2   2.0000     -10.044651      -273.3288 
   3   2.0000     -10.043979      -273.3106 
   4   2.0000     -10.041759      -273.2502 
   5   2.0000     -10.031603      -272.9738 
   6   2.0000     -10.030796      -272.9518 
   7   2.0000     -10.024539      -272.7816 
   8   2.0000     -10.022536      -272.7271 
   9   2.0000      -1.024049       -27.8658 
  10   2.0000      -0.821817       -22.3628 
  11   2.0000      -0.748261       -20.3612 
  12   2.0000      -0.724689       -19.7198 
  13   2.0000      -0.671359       -18.2686 
  14   2.0000      -0.644352       -17.5337 
  15   2.0000      -0.572198       -15.5703 
  16   2.0000      -0.548364       -14.9217 
  17   2.0000      -0.505134       -13.7454 
  18   2.0000      -0.461587       -12.5604 
  19   2.0000      -0.433477       -11.7955 
  20   2.0000      -0.413679       -11.2568 
  21   2.0000      -0.390376       -10.6227 
  22   2.0000      -0.382807       -10.4167 
  23   2.0000      -0.375763       -10.2250 
  24   2.0000      -0.373924       -10.1750 
  25   2.0000      -0.369220       -10.0470 
  26   2.0000      -0.360336        -9.8052 
  27   2.0000      -0.339591        -9.2407 
  28   2.0000      -0.317831        -8.6486 
  29   2.0000      -0.300347        -8.1729 
  30   2.0000      -0.299210        -8.1419 
  31   2.0000      -0.219941        -5.9849 
  32   2.0000      -0.198807        -5.4098 
  33   0.0000      -0.026521        -0.7217 
  34   0.0000      -0.011775        -0.3204 
  35   0.0000       0.051289         1.3957 
  36   0.0000       0.085646         2.3305 
  37   0.0000       0.098846         2.6897 
  38   0.0000       0.113425         3.0864 
  39   0.0000       0.116143         3.1604 
  40   0.0000       0.133487         3.6324 
  41   0.0000       0.141390         3.8474 
  42   0.0000       0.145784         3.9670 
  43   0.0000       0.151887         4.1331 
*Only the first 10 virtual orbitals were printed.
Total SCF time: 0 days 0 hours 0 min 3 sec 
Finished LeanSCF after   3.3 sec

Maximum memory used throughout the entire LEANSCF-calculation: 26.3 MB


-------------------------------------------------------------------------------
                          DFT DISPERSION CORRECTION                            
                                                                               
                                DFTD4 V3.4.0                                   
-------------------------------------------------------------------------------
-------------------------   ----------------
Dispersion correction           -0.006321906
-------------------------   ----------------

------------------   -----------------
gCP correction             0.007505800
------------------   -----------------

-------------------------   --------------------
FINAL SINGLE POINT ENERGY      -386.004714391133
-------------------------   --------------------

------------------------------------------------------------------------------
                         ORCA SCF GRADIENT CALCULATION
------------------------------------------------------------------------------

Nuc. rep. gradient        (SHARK) ... done (  0.0 sec)
HCore & Overlap gradient  (SHARK) ... done (  0.2 sec)
Split-RIJ-J gradient      (SHARK) ... done (  1.2 sec)
XC gradient                       ... done (  5.1 sec)
Dispersion correction             ... done (  0.0 sec)

-------------------
DISPERSION GRADIENT
-------------------

   1   C   :   -0.000117159    0.000027247    0.000000005
   2   C   :   -0.000065502   -0.000010537    0.000000007
   3   C   :   -0.000049412   -0.000090962    0.000000005
   4   C   :    0.000019792   -0.000115632    0.000000007
   5   C   :    0.000074977   -0.000078460    0.000000003
   6   C   :    0.000082891   -0.000002477   -0.000000002
   7   C   :    0.000016025    0.000040569    0.000000004
   8   C   :    0.000013203    0.000115079   -0.000000002
   9   O   :    0.000093401    0.000052516   -0.000000029
  10   H   :   -0.000045987    0.000014555    0.000011571
  11   H   :   -0.000045983    0.000014556   -0.000011566
  12   H   :   -0.000047239    0.000000310   -0.000000002
  13   H   :   -0.000028357   -0.000036812    0.000000000
  14   H   :    0.000004984   -0.000044595    0.000000002
  15   H   :    0.000036254   -0.000025933    0.000000000
  16   H   :    0.000013248    0.000046738    0.000012389
  17   H   :    0.000013189    0.000046768   -0.000012440
  18   H   :   -0.000010015    0.000044965    0.000000046
  19   H   :    0.000041690    0.000002104   -0.000000000

Difference to translation invariance:
           :    0.0000000000    0.0000000000   -0.0000000000

Difference to rotation invariance:
           :   -0.0000000000   -0.0000000000   -0.0000000000

Norm of the Dispersion gradient    ...    0.0003331819
RMS gradient                       ...    0.0000441310
MAX gradient                       ...    0.0001171587
gCP correction                   ... done

------------------
CARTESIAN GRADIENT
------------------

   1   C   :    0.000010277   -0.000036271    0.000000040
   2   C   :    0.000004724    0.000081669   -0.000000979
   3   C   :   -0.000044102   -0.000119337   -0.000001021
   4   C   :    0.000019684    0.000022738   -0.000000728
   5   C   :    0.000041647   -0.000009844   -0.000000286
   6   C   :    0.000214141    0.000052125    0.000001240
   7   C   :   -0.000062763    0.000013482    0.000002071
   8   C   :    0.000015227   -0.000026267    0.000000797
   9   O   :   -0.000158576   -0.000053911    0.000003546
  10   H   :   -0.000019619    0.000025165    0.000029628
  11   H   :   -0.000021285    0.000023004   -0.000031640
  12   H   :   -0.000042035   -0.000021363    0.000001535
  13   H   :   -0.000018289   -0.000012449   -0.000000767
  14   H   :    0.000030874   -0.000040224   -0.000000310
  15   H   :    0.000037424   -0.000012823    0.000000689
  16   H   :    0.000005669    0.000031112    0.000030114
  17   H   :    0.000002710    0.000030417   -0.000033433
  18   H   :   -0.000044884    0.000026217    0.000001415
  19   H   :    0.000029177    0.000026560   -0.000001911

Difference to translation invariance:
           :    0.0000000000   -0.0000000000    0.0000000000

Difference to rotation invariance:
           :   -0.0000052001   -0.0000075440    0.0007553813

Norm of the Cartesian gradient     ...    0.0003573222
RMS gradient                       ...    0.0000473285
MAX gradient                       ...    0.0002141408

-------
TIMINGS
-------

Total SCF gradient time     ....        6.533 sec

Densities                   ....       0.000 sec  (  0.0%)
One electron gradient       ....       0.212 sec  (  3.2%)
RI-J Coulomb gradient       ....       1.245 sec  ( 19.1%)
XC gradient                 ....       5.056 sec  ( 77.4%)

Maximum memory used throughout the entire SCFGRAD-calculation: 37.2 MB

------------------------------------------------------------------------------
                              ORCA PROPERTY CALCULATIONS
------------------------------------------------------------------------------

GBWName                                 ... xtb_opt.gbw
Number of atoms                         ...     19
Number of basis functions               ...    226
Max core memory                         ...   1024 MB

Electric properties:
Dipole moment                           ... YES
Quadrupole moment                       ...  NO
Static polarizability (Dipole/Dipole)   ...  NO
Static polarizability (Dipole/Quad.)    ...  NO
Static polarizability (Quad./Quad.)     ...  NO
Static polarizability (Velocity)        ...  NO

Atomic electric properties:
Dipole moment                           ...  NO
Quadrupole moment                       ...  NO
Static polarizability                   ...  NO

Choice of electric origin               ... Center of mass
Position of electric origin             ...     0.003991    -0.006414    -0.000109

General magnetic properties:
Magnetizability                         ...  NO

EPR properties:
g-Tensor (aka g-matrix)                 ...  NO
Zero-Field splitting spin-orbit         ...  NO
Zero-field splitting spin-spin          ...  NO
Hyperfine couplings                     ...  NO (   0 nuclei)
Quadrupole couplings                    ...  NO (   0 nuclei)
Contact density                         ...  NO (   0 nuclei)

NMR properties:
Chemical shifts                         ...  NO (   0 nuclei)
Spin-rotation constants                 ...  NO (   0 nuclei)
Spin-spin couplings                     ...  NO (   0 nuclei,    0 pairs)

Choice of magnetic origin               ... GIAO
Position of magnetic origin             ...     0.000000     0.000000     0.000000

Properties with geometric perturbations:
SCF Hessian                             ...  NO
IR spectrum                             ...  NO
VCD spectrum                            ...  NO
X-ray spectroscopy properties:
SCF XES/XAS/RIXS spectra                ...  NO


-------------
DIPOLE MOMENT
-------------

Method             : SCF
Type of density    : Electron Density
Multiplicity       :   1
Irrep              :   0
Energy             :  -386.0058982841927104 Eh
Relativity type    : 
Basis              : AO
                                X                 Y                 Z
Electronic contribution:      5.737131664      -3.828894630       0.000134970
Nuclear contribution   :     -6.174222751       4.497730590      -0.000694570
                        -----------------------------------------
Total Dipole Moment    :     -0.437091088       0.668835961      -0.000559599
                        -----------------------------------------
Magnitude (a.u.)       :      0.798993413
Magnitude (Debye)      :      2.030879859



--------------------
Rotational spectrum 
--------------------
 
Rotational constants in cm-1:             0.074976             0.058998             0.033431 
Rotational constants in MHz :          2247.738496          1768.714161          1002.243378 

Dipole components along the rotational axes: 
x,y,z [a.u.] :    -0.411086    -0.685127    -0.000560 
x,y,z [Debye]:    -1.044898    -1.741453    -0.001423 

 

Dipole moment calculation done in   0.0 sec 

Maximum memory used throughout the entire PROP-calculation: 15.7 MB

--------------------------------
SUGGESTED CITATIONS FOR THIS RUN
--------------------------------

Below you find a list of papers that are relevant to this ORCA run
We neither can nor want to force you to cite these papers, but we appreciate if you do
You receive ORCA, which is the product of decades of hard work by many enthusiastic individuals, for free
The only thing we kindly ask in return is that you cite our papers,
We deeply appreciate it, if you show your appreciation for ORCA by not just citing the generic ORCA reference.

Please note that relegating all ORCA citations to the supporting information does *not* help us.
SI sections are not indexed - citations you put there will not count into any citation statistics
But we need these citations in order to attract the funding resources that allow us to do what we are doing

Therefore, if you are a happy ORCA user, please consider citing a few of the papers listed below in the main body of your paper

In addition to the list printed below, the program has created the file xtb_opt.bibtex that contains the list in bibtex format
You can import this file easily into all common literature databanks and citation aid programs


List of essential papers. We consider these as the minimum necessary citations

  1. Neese,F.
     Software update: the ORCA program system, version 5.0
     WIRES Comput. Molec. Sci., 2022 12(1)e1606
     doi.org/10.1002/wcms.1606
  2. Grimme,S.; Hansen,A.; Ehlert,S.; Mewes,J.
     r2SCAN-3c: A 'Swiss army knife' composite electronic-structure method
     J. Chem. Phys., 2021 154 064103
     doi.org/10.1063/5.0040021

List of papers to cite with high priority. The work reported in these papers was absolutely
necessary for this run to complete.
Our perspective: the developers of density functionals and basis sets usually get cited in chemistry papers
Good! But without the algorithms to do something with them, the functionals or basis sets would not do anything.
Hence, in our opinion, the algorithm design and method developments papers are equally worthy of getting cited

  1. Neese,F.
     An improvement of the resolution of the identity approximation for the formation of the Coulomb matrix
     J. Comp. Chem., 2003 24(14)1740-1747
     doi.org/10.1002/jcc.10318
  2. Neese,F.
     The SHARK Integral Generation and Digestion System
     J. Comp. Chem., 2022  1-16
     doi.org/10.1002/jcc.26942
  3. Lehtola,S.; Steigemann,C.; Oliveira,M.; Marques,M.
     Recent developments in Libxc - A comprehensive library of functionals for density functional theory
     Software X, 2018 7 
     doi.org/10.1016/j.softx.2017.11.002
  4. Caldeweyher,E.; Bannwarth,C.; Grimme,S.
     Extension of the D3 dispersion coefficient model
     J. Chem. Phys., 2017 147 034112
     doi.org/10.1063/1.4993215
  5. Caldeweyher,E.; Ehlert,S.; Hansen,A.; Neugebauer,H.; Spicher,S.; Bannwarth,C.; Grimme,S.
     A generally applicable atomic-charge dependent London dispersion correction
     J. Chem. Phys., 2019 150 154122
     doi.org/10.1063/1.5090222
  6. Caldeweyher,E.; Mewes,J.; Ehlert,S.; Grimme,S.
     Extension and evaluation of the D4 London-dispersion model for periodic systems
     Phys. Chem. Chem. Phys., 2020 22(16)8499-8512
     doi.org/10.1039/D0CP00502A
  7. Wittmann,L.; Gordiy,I.; Friede,M.; Helmich-Paris,B.; Grimme,S.; Hansen,A.; Bursch,M.
     Extension of the D3 and D4 London Dispersion Corrections to the full Actinides Series
     Phys. Chem. Chem. Phys., 2024 26(32)21379-21394
     doi.org/https://doi.org/10.1039/D4CP01514B 

List of suggested additional citations. These are papers that are important in the 'surrounding' of 
of this run, or papers that preceded the highly important papers. If you like your results we are grateful for a citation.

  1. Neese,F.
     The ORCA program system
     WIRES Comput. Molec. Sci., 2012 2(1)73-78
     doi.org/10.1002/wcms.81
  2. Neese,F.
     Software update: the ORCA program system, version 4.0
     WIRES Comput. Molec. Sci., 2018 8(1)1-6
     doi.org/10.1002/wcms.1327
  3. Neese,F.; Wennmohs,F.; Becker,U.; Riplinger,C.
     The ORCA quantum chemistry program package
     J. Chem. Phys., 2020 152 Art. No. L224108
     doi.org/10.1063/5.0004608

List of optional additional citations

  1. Neese,F.
     Approximate second-order SCF convergence for spin unrestricted wavefunctions
     Chem. Phys. Lett., 2000 325(1-3)93-98
     doi.org/10.1016/s0009-2614(00)00662-x

Timings for individual modules:

Sum of individual times          ...       10.661 sec (=   0.178 min)
Startup calculation              ...        0.646 sec (=   0.011 min)   6.1 %
SCF iterations                   ...        3.393 sec (=   0.057 min)  31.8 %
Property calculations            ...        0.043 sec (=   0.001 min)   0.4 %
SCF Gradient evaluation          ...        6.579 sec (=   0.110 min)  61.7 %
                             ****ORCA TERMINATED NORMALLY****
TOTAL RUN TIME: 0 days 0 hours 0 minutes 10 seconds 730 msec
  ------------------------------------------------------------------------
          * successful ORCA run, taking over control again...

         :::::::::::::::::::::::::::::::::::::::::::::::::::::
         ::                  ORCA SUMMARY                   ::
         :::::::::::::::::::::::::::::::::::::::::::::::::::::
         :: total energy            -386.004714391133 Eh    ::
         :: gradient norm              0.000357322196 Eh/a0 ::
         :: HOMO-LUMO gap              0.000000000000 eV    ::
         :::::::::::::::::::::::::::::::::::::::::::::::::::::

           -------------------------------------------------
          |                Property Printout                |
           -------------------------------------------------
           -------------------------------------------------
          |                Geometry Summary                 |
           -------------------------------------------------

      molecular mass/u    :      122.1646996
   center of mass at/Å    :        0.0021283      -0.0033909      -0.0000576
  moments of inertia/u·Å² :        0.2248328E+03   0.2857291E+03   0.5042387E+03
rotational constants/cm⁻¹ :        0.7497854E-01   0.5899865E-01   0.3343185E-01

 * 17 selected distances

     #   Z          #   Z                                           value/Å
     2   6          3   6                                         1.3967169
     3   6          4   6                                         1.3908277
     4   6          5   6                                         1.3860971
     5   6          6   6                                         1.3919737
     2   6          7   6                                         1.4051999 (max)
     6   6          7   6                                         1.4029833
     6   6          9   8                                         1.3705959
     1   6         10   1                                         1.0958124
     1   6         11   1                                         1.0958120
     1   6         12   1                                         1.0920595
     3   6         13   1                                         1.0854831
     4   6         14   1                                         1.0853543
     5   6         15   1                                         1.0843734
     8   6         16   1                                         1.0989160
     8   6         17   1                                         1.0989286
     8   6         18   1                                         1.0893723
     9   8         19   1                                         0.9631445 (min)

 * 4 distinct bonds (by element types)

   Z      Z             #   av. dist./Å        max./Å        min./Å
   1 H    6 C           9     1.0917902     1.0989286     1.0843734
   6 C    6 C           6     1.3956331     1.4051999     1.3860971
   1 H    8 O           1     0.9631445     0.9631445     0.9631445
   6 C    8 O           1     1.3705959     1.3705959     1.3705959


optimized geometry written to: xtbopt.coord


           -------------------------------------------------
          | TOTAL ENERGY             -386.004714391133 Eh   |
          | GRADIENT NORM               0.000357322196 Eh/α |
           -------------------------------------------------

------------------------------------------------------------------------
 * finished run on 2025/04/08 at 23:25:24.797     
------------------------------------------------------------------------
 total:
 * wall-time:     0 d,  0 h,  1 min,  7.578 sec
 *  cpu-time:     0 d,  0 h,  0 min,  0.452 sec
 * ratio c/w:     0.007 speedup
 SCF:
 * wall-time:     0 d,  0 h,  0 min, 12.801 sec
 *  cpu-time:     0 d,  0 h,  0 min,  0.071 sec
 * ratio c/w:     0.006 speedup
 ANC optimizer:
 * wall-time:     0 d,  0 h,  0 min, 54.634 sec
 *  cpu-time:     0 d,  0 h,  0 min,  0.005 sec
 * ratio c/w:     0.000 speedup

