19
 energy: -386.004003691782 gnorm: 0.019593796745 xtb: 6.7.1 (41059b4)
C           -2.58740047894655        0.57806669505616        0.00001704130001
C           -1.22884435854453       -0.06260351962774        0.00006179110003
C           -1.13610682510344       -1.44869342934195       -0.00005198750002
C            0.09273456114109       -2.08208453542263        0.00001780760001
C            1.25190824165475       -1.33433823839128        0.00008024020004
C            1.17492021862064        0.05257069972330        0.00001145650001
C           -0.06292679732788        0.70431822401210        0.00013371160006
C           -0.08655360173835        2.21148146917997       -0.00001328040001
O            2.35284518694261        0.74010793712796       -0.00007641200003
H           -2.72476362170741        1.20083855603212        0.88338706709145
H           -2.72479645890743        1.20061575773202       -0.88350056459150
H           -3.36136595008951       -0.18503257548199        0.00015849700007
H           -2.04100862010442       -2.03847082080330       -0.00029828130013
H            0.14725951776525       -3.16024067910039       -0.00016242750007
H            2.22611175808645       -1.79620423899595        0.00009479930004
H            0.41699178588478        2.60652013465502        0.88527876109229
H            0.41123758068223        2.60611458535484       -0.88875660229383
H           -1.10205192238835        2.59011718044775        0.00325756530144
H            2.17586262486418        1.68781948564792       -0.00130586570058
19
 energy: -386.004655241293 gnorm: 0.007029780398 xtb: 6.7.1 (41059b4)
C           -2.59244112114588        0.58062455050933       -0.00000748891396
C           -1.23269064575585       -0.06680862510905        0.00003693473789
C           -1.13864830569316       -1.45829191406422       -0.00005339438081
C            0.09814255968508       -2.08995157737364       -0.00000114261490
C            1.26208428233401       -1.33994393090944        0.00005424460906
C            1.17673073115277        0.04883902107088        0.00000494307781
C           -0.06247783980432        0.70500383629661        0.00012873590474
C           -0.08379381656287        2.21341275197234       -0.00001809668225
O            2.35782782373008        0.73796367632483       -0.00016263371419
H           -2.73875425099297        1.20968490894012        0.88313997490499
H           -2.73874156626029        1.20956175826899       -0.88324532175132
H           -3.37266127836903       -0.18133814385223        0.00007907958592
H           -2.04711953609150       -2.05039865814109       -0.00017585210129
H            0.15530498305083       -3.17225123340353       -0.00005878163476
H            2.24143270030359       -1.80293106705628        0.00003613913503
H            0.41802798752687        2.62116300312177        0.88622417636277
H            0.41239835738391        2.62088132154898       -0.88957474602137
H           -1.10000374955275        2.60119453984216        0.00322228365505
H            2.17943519656139        1.68448819842193       -0.00129581345761
19
 energy: -386.004712359432 gnorm: 0.001797425258 xtb: 6.7.1 (41059b4)
C           -2.59490818252416        0.58047856861268       -0.00003306241641
C           -1.23416413941715       -0.06760724389483        0.00002276842481
C           -1.13936361759732       -1.46104321369659       -0.00001137227386
C            0.10012485983146       -2.09196426824490        0.00004307100552
C            1.26588008443145       -1.34189086243663        0.00002509312338
C            1.17696877526002        0.04736485779491       -0.00006301990338
C           -0.06188662141370        0.70623563063459        0.00008577498245
C           -0.08231056821717        2.21369846030334       -0.00000725616093
O            2.36042832088790        0.73677605162693       -0.00026452071365
H           -2.74422201829776        1.21184506546452        0.88299917903524
H           -2.74414845620686        1.21181771222040       -0.88309802695687
H           -3.37845620172238       -0.18013107601844       -0.00001725960483
H           -2.04855753612615       -2.05424427742701       -0.00007913976549
H            0.15819445919550       -3.17573919981498        0.00002575036945
H            2.24631368390393       -1.80565776472038       -0.00001895101499
H            0.41877744211494        2.62649781070166        0.88649529808203
H            0.41327217018254        2.62633212479174       -0.88969500177600
H           -1.09876920714923        2.60520632466885        0.00319383054852
H            2.18087913459948        1.68292761449545       -0.00126996212096
19
 energy: -386.004714278265 gnorm: 0.000334571598 xtb: 6.7.1 (41059b4)
C           -2.59512110327697        0.58028796360718       -0.00004979012177
C           -1.23437401701563       -0.06737250842085        0.00002238187415
C           -1.13927859575151       -1.46084822062313        0.00003013285108
C            0.10023670587118       -2.09172319454510        0.00006876743452
C            1.26605104550810       -1.34196213014250       -0.00000461718431
C            1.17647212755110        0.04712602527737       -0.00011147254327
C           -0.06171219596060        0.70686950781776        0.00005150193942
C           -0.08207127889170        2.21338476319897        0.00000254699880
O            2.36100710290577        0.73662549810216       -0.00036449369870
H           -2.74475366401203        1.21162669909264        0.88302781392434
H           -2.74460646822115        1.21169979854760       -0.88309959728693
H           -3.37874409796312       -0.18032284979035       -0.00011276751571
H           -2.04817598920046       -2.05429488570522        0.00000181513275
H            0.15822812595456       -3.17552705997935        0.00009936637835
H            2.24617072678777       -1.80589187318902       -0.00006167093310
H            0.41893990865928        2.62666160383078        0.88645969009783
H            0.41357026694326        2.62658074165172       -0.88952117276874
H           -1.09852416779072        2.60523362310813        0.00314727603952
H            2.18073794304351        1.68274880829055       -0.00125254036409
19
 energy: -386.004714278265 gnorm: 0.000334571598 xtb: 6.7.1 (41059b4)
C           -2.59512110327697        0.58028796360718       -0.00004979012177
C           -1.23437401701563       -0.06737250842085        0.00002238187415
C           -1.13927859575151       -1.46084822062313        0.00003013285108
C            0.10023670587118       -2.09172319454510        0.00006876743452
C            1.26605104550810       -1.34196213014250       -0.00000461718431
C            1.17647212755110        0.04712602527737       -0.00011147254327
C           -0.06171219596060        0.70686950781776        0.00005150193942
C           -0.08207127889170        2.21338476319897        0.00000254699880
O            2.36100710290577        0.73662549810216       -0.00036449369870
H           -2.74475366401203        1.21162669909264        0.88302781392434
H           -2.74460646822115        1.21169979854760       -0.88309959728693
H           -3.37874409796312       -0.18032284979035       -0.00011276751571
H           -2.04817598920046       -2.05429488570522        0.00000181513275
H            0.15822812595456       -3.17552705997935        0.00009936637835
H            2.24617072678777       -1.80589187318902       -0.00006167093310
H            0.41893990865928        2.62666160383078        0.88645969009783
H            0.41357026694326        2.62658074165172       -0.88952117276874
H           -1.09852416779072        2.60523362310813        0.00314727603952
H            2.18073794304351        1.68274880829055       -0.00125254036409
