
                                 *****************
                                 * O   R   C   A *
                                 *****************

                                            #,                                       
                                            ###                                      
                                            ####                                     
                                            #####                                    
                                            ######                                   
                                           ########,                                 
                                     ,,################,,,,,                         
                               ,,#################################,,                 
                          ,,##########################################,,             
                       ,#########################################, ''#####,          
                    ,#############################################,,   '####,        
                  ,##################################################,,,,####,       
                ,###########''''           ''''###############################       
              ,#####''   ,,,,##########,,,,          '''####'''          '####       
            ,##' ,,,,###########################,,,                        '##       
           ' ,,###''''                  '''############,,,                           
         ,,##''                                '''############,,,,        ,,,,,,###''
      ,#''                                            '''#######################'''  
     '                                                          ''''####''''         
             ,#######,   #######,   ,#######,      ##                                
            ,#'     '#,  ##    ##  ,#'     '#,    #''#        ,####,   ,####,        
            ##       ##  ##   ,#'  ##            #'  '#       #'       #'  '#        
            ##       ##  #######   ##           ,######,      #####,   #    #        
            '#,     ,#'  ##    ##  '#,     ,#' ,#      #,     #,   #   #,  ,#        
             '#######'   ##     ##  '#######'  #'      '#     '####' # '####'        



                #########################################################
                #                        -***-                          #
                #          Department of theory and spectroscopy        #
                #                                                       #
                #                      Frank Neese                      #
                #                                                       #
                #     Directorship, Architecture, Infrastructure        #
                #                    SHARK, DRIVERS                     #
                #        Core code/Algorithms in most modules           #
                #                                                       #
                #        Max Planck Institute fuer Kohlenforschung      #
                #                Kaiser Wilhelm Platz 1                 #
                #                 D-45470 Muelheim/Ruhr                 #
                #                      Germany                          #
                #                                                       #
                #                  All rights reserved                  #
                #                        -***-                          #
                #########################################################


                         Program Version 6.0.1  -  RELEASE   -


 With contributions from (in alphabetic order):
[Max-Planck-Institut fuer Kohlenforschung]                               
  Daniel Aravena         : Magnetic Suceptibility                        
  Michael Atanasov       : Ab Initio Ligand Field Theory (pilot matlab implementation)
  Alexander A. Auer      : GIAO ZORA, VPT2 properties, NMR spectrum      
  Ute Becker             : All parallelization in ORCA, NUMFREQ, NUMCALC 
  Giovanni Bistoni       : ED, misc. LED, open-shell LED, HFLD           
  Martin Brehm           : Molecular dynamics                            
  Dmytro Bykov           : pre 5.0 version of the SCF Hessian            
  Marcos Casanova-Páez   : Triplet and SCS-CIS(D). UHF-(DLPNO)-IP/EA/STEOM-CCSD. UHF-CVS-IP/STEOM-CCSD   
  Vijay G. Chilkuri      : MRCI spin determinant printing, contributions to CSF-ICE 
  Pauline Colinet        : FMM embedding                                 
  Dipayan Datta          : RHF DLPNO-CCSD density                        
  Achintya Kumar Dutta   : EOM-CC, STEOM-CC                              
  Nicolas Foglia         : Exact transition moments, OPA infrastructure, MCD improvements    
  Dmitry Ganyushin       : Spin-Orbit,Spin-Spin,Magnetic field MRCI      
  Miquel Garcia-Rates    : C-PCM and meta-GGA Hessian, CCSD/C-PCM, Gaussian charge scheme 
  Tiago L. C. Gouveia    : GS-ROHF, GS-ROCIS                             
  Yang Guo               : DLPNO-NEVPT2, F12-NEVPT2, CIM, IAO-localization        
  Andreas Hansen         : Spin unrestricted coupled pair/coupled cluster methods 
  Ingolf Harden          : AUTO-CI MPn and infrastructure                
  Benjamin Helmich-Paris : MC-RPA, TRAH-(SCF,CASSCF), AVAS, COSX integrals, SCF dyn. polar. 
  Lee Huntington         : MR-EOM, pCC                                   
  Robert Izsak           : Overlap fitted RIJCOSX, COSX-SCS-MP3, EOM     
  Riya Kayal             : Wick's Theorem for AUTO-CI, AUTO-CI UHF-CCSDT 
  Emily Kempfer          : AUTO-CI, RHF CISDT and CCSDT                  
  Christian Kollmar      : KDIIS, OOCD, Brueckner-CCSD(T), CCSD density, CASPT2, CASPT2-K, improved NEVPT2 
  Axel Koslowski         : Symmetry handling                             
  Simone Kossmann        : meta-GGA functionals, TD-DFT gradient, OOMP2, (MP2 Hessian; deprecated post 5.0) 
  Lucas Lang             : DCDCAS                                        
  Marvin Lechner         : AUTO-CI (C++ implementation), FIC-MRCC        
  Spencer Leger          : CASSCF response                               
  Dagmar Lenk            : GEPOL surface, SMD, ORCA-2-JSON               
  Dimitrios Liakos       : Extrapolation schemes; Compound Job, initial MDCI parallelization 
  Dimitrios Manganas     : Further ROCIS development; embedding schemes. LFT, Crystal Embedding 
  Dimitrios Pantazis     : SARC Basis sets                               
  Anastasios Papadopoulos: AUTO-CI, single reference methods and gradients 
  Taras Petrenko         : pre 6.0 DFT Hessian and TD-DFT gradient, (ASA, deprecated), ECA, 1-Electron XAS/XES, NRVS 
  Peter Pinski           : DLPNO-MP2, DLPNO-MP2 Gradient                 
  Christoph Reimann      : Effective Core Potentials                     
  Marius Retegan         : Local ZFS, SOC                                
  Christoph Riplinger    : Optimizer, TS searches, QM/MM, DLPNO-CCSD(T), (RO)-DLPNO pert. Triples 
  Michael Roemelt        : Original ROCIS implementation                 
  Masaaki Saitow         : Open-shell DLPNO-CCSD energy and density      
  Barbara Sandhoefer     : DKH picture change effects                    
  Kantharuban Sivalingam : CASSCF convergence/infrastructure, NEVPT2 and variants, FIC-MRCI 
  Bernardo de Souza      : ESD, SOC TD-DFT                               
  Georgi L. Stoychev     : AutoAux, RI-MP2 NMR, DLPNO-MP2 response, X2C  
  Van Anh Tran           : RI-MP2 g-tensors                              
  Willem Van den Heuvel  : Paramagnetic NMR                              
  Zikuan Wang            : NOTCH, Electric field optimization            
  Frank Wennmohs         : Technical directorship and infrastructure     
  Hang Xu                : AUTO-CI-Response properties                   
                                                                         
[FACCTs GmbH]                                                            
  Markus Bursch, Miquel Garcia-Rates, Christoph Riplinger, Bernardo de Souza, Georgi L. Stoychev 
                                                                 
  APM, Basis sets (HGBS, AHGBS, def-TZVP (Ac-Lr), def2-XVPD (La-Lu)), CI-OPT, improved COSX, DLPNO-Multilevel,           
  DOCKER, DRACO, updates on ESD, GOAT, IRC, LR-CPCM, MBIS, meta-GGA TD-DFT gradient, ML-optimized integration grids, 
  MM, NACMEs, nearIR, NEB, NEB-TS, NL-DFT gradient (VV10), 2- and 3-layer-ONIOM, interface openCOSMO-RS, QMMM,   
  Crystal-QMMM, SF, symmetry and pop. for TD-DFT, r2SCAN hybrids, SOLVATOR                                   
                                                                         
[Other institutions]                                                     
  V. Asgeirsson          : NEB                                           
  Christoph Bannwarth    : sTDA-DFT, sTD-DFT, PBEh-3c, B97-3c, D3        
  Sebastian Ehlert       : rSCAN, r2SCAN, r2SCAN-3c, D4, dhf basis sets  
  Marvin Friede          : D4 for Fr, Ra, Ac-Lr                          
  Lars Goerigk           : TD-DFT with DH, B97 family of functionals     
  Stefan Grimme          : VdW corrections, initial TS optimization, DFT functionals, gCP, sTDA/sTD-DF 
  Waldemar Hujo          : DFT-NL                                        
  H. Jonsson             : NEB                                           
  Holger Kruse           : gCP                                           
  Marcel Mueller         : wB97X-3c, vDZP basis set                      
  Hagen Neugebauer       : wr2SCAN                                       
  Tobias Risthaus        : range-separated hybrid DFT                    
  Lukas Wittmann         : regularized MP2, r2SCAN double-hybrids, wr2SCAN        
                                                                         
We gratefully acknowledge several colleagues who have allowed us to      
interface, adapt or use parts of their codes:                            
  Ed Valeev, F. Pavosevic, A. Kumar             : LibInt (2-el integral package), F12 methods 
  Garnet Chan, S. Sharma, J. Yang, R. Olivares  : DMRG                   
  Ulf Ekstrom                                   : XCFun DFT Library      
  Mihaly Kallay                                 : mrcc  (arbitrary order and MRCC methods)
  Frank Weinhold                                : gennbo (NPA and NBO analysis)           
  Simon Mueller                                 : openCOSMO-RS                            
  Christopher J. Cramer and Donald G. Truhlar   : smd solvation model                     
  S Lehtola, MJT Oliveira, MAL Marques          : LibXC Library                           
  Liviu Ungur et al                             : ANISO software                          


 Your calculation uses the libint2 library for the computation of 2-el integrals
 For citations please refer to: http://libint.valeyev.net

 Your ORCA version has been built with support for libXC version: 6.2.2
 For citations please refer to: https://libxc.gitlab.io

 This ORCA versions uses:
   CBLAS   interface :  Fast vector & matrix operations
   LAPACKE interface :  Fast linear algebra routines
   SCALAPACK package :  Parallel linear algebra routines
   Shared memory     :  Shared parallel matrices
   BLAS/LAPACK       :  OpenBLAS 0.3.27  USE64BITINT DYNAMIC_ARCH NO_AFFINITY Zen SINGLE_THREADED
        Core in use  :  Zen
   Copyright (c) 2011-2014, The OpenBLAS Project


Your calculation utilizes the geometrical counterpoise correction gCP
Please cite in your paper:
H.Kruse, S. Grimme J.Chem.Phys., 136, (2012), 154101 
   

Your calculation utilizes the DFT-NL dispersion correction.
Cite in your paper:
Vydrov, O. A.; Van Voorhis, T. J. Chem. Phys. 2010, 133, 244103
Hujo, W.; Grimme, S. J. Chem. Theory Comput. 2011, 7, 3866 
   

================================================================================

----- Orbital basis set information -----
Your calculation utilizes the basis: def2-TZVP
   F. Weigend and R. Ahlrichs, Phys. Chem. Chem. Phys. 7, 3297 (2005).

----- AuxJ basis set information -----
Your calculation utilizes the auxiliary basis: def2/J
   F. Weigend, Phys. Chem. Chem. Phys. 8, 1057 (2006).

================================================================================
                                        WARNINGS
                       Please study these warnings very carefully!
================================================================================

WARNING: Old DensityContainer found on disk!
         Will remove this file - 
         If you want to keep old densities, please start your calculation with a different basename. 


================================================================================
                                       INPUT FILE
================================================================================
NAME = sp.inp
|  1> ! wb97x-v def2-tzvp def2/J RIJCOSX DEFGRID2 scfconv7 GCP(DFT/TZ) printgap
|  2> %output
|  3>     printlevel normal
|  4> end
|  5> * xyz 0 1
|  6> C -2.5072085593497095 0.03474047861511934 -0.01998416503000967
|  7> C -1.0806918506780758 -0.5103168271958681 0.04113003875715033
|  8> C -0.05307793031599721 0.6116745755309162 -0.056117632386162714
|  9> S 1.6481435915180902 -0.1099231856457528 0.021516313719729743
| 10> H -2.6846394293072584 0.5688582772023489 -0.9593316996496415
| 11> H -3.2399245955096916 -0.7743497321398681 0.048870381910678065
| 12> H -2.6985231039324655 0.7311221124202174 0.8032329683306555
| 13> H -0.9180171185378706 -1.223972629577125 -0.7753950104290707
| 14> H -0.9304938336368259 -1.0611069120366294 0.9773226689424184
| 15> H -0.1707022697349584 1.1522220777424403 -1.0006306005172327
| 16> H -0.18153632499822564 1.3163770324024204 0.7715814630636216
| 17> H 2.3205699969686813 1.0494438784334237 -0.08080399776120238
| 18> *
| 19> 
| 20>                          ****END OF INPUT****
================================================================================

                       ****************************
                       * Single Point Calculation *
                       ****************************

---------------------------------
CARTESIAN COORDINATES (ANGSTROEM)
---------------------------------
  C     -2.507209    0.034740   -0.019984
  C     -1.080692   -0.510317    0.041130
  C     -0.053078    0.611675   -0.056118
  S      1.648144   -0.109923    0.021516
  H     -2.684639    0.568858   -0.959332
  H     -3.239925   -0.774350    0.048870
  H     -2.698523    0.731122    0.803233
  H     -0.918017   -1.223973   -0.775395
  H     -0.930494   -1.061107    0.977323
  H     -0.170702    1.152222   -1.000631
  H     -0.181536    1.316377    0.771581
  H      2.320570    1.049444   -0.080804

----------------------------
CARTESIAN COORDINATES (A.U.)
----------------------------
  NO LB      ZA    FRAG     MASS         X           Y           Z
   0 C     6.0000    0    12.011   -4.737938    0.065650   -0.037765
   1 C     6.0000    0    12.011   -2.042212   -0.964359    0.077725
   2 C     6.0000    0    12.011   -0.100303    1.155897   -0.106047
   3 S    16.0000    0    32.060    3.114540   -0.207725    0.040660
   4 H     1.0000    0     1.008   -5.073233    1.074986   -1.812874
   5 H     1.0000    0     1.008   -6.122570   -1.463309    0.092352
   6 H     1.0000    0     1.008   -5.099470    1.381621    1.517890
   7 H     1.0000    0     1.008   -1.734801   -2.312973   -1.465284
   8 H     1.0000    0     1.008   -1.758379   -2.005201    1.846872
   9 H     1.0000    0     1.008   -0.322581    2.177384   -1.890918
  10 H     1.0000    0     1.008   -0.343054    2.487592    1.458078
  11 H     1.0000    0     1.008    4.385242    1.983162   -0.152697

--------------------------------
INTERNAL COORDINATES (ANGSTROEM)
--------------------------------
 C      0   0   0     0.000000000000     0.00000000     0.00000000
 C      1   0   0     1.528323373060     0.00000000     0.00000000
 C      2   1   0     1.524569508634   111.35352000     0.00000000
 S      3   2   1     1.849563468734   109.27938012   180.06291055
 H      1   2   3     1.095051289747   111.06890140    59.93787788
 H      1   2   3     1.093727894597   111.03620810   179.92553209
 H      1   2   3     1.095095924350   111.08747037   299.90892999
 H      2   1   3     1.096576868577   109.92508859   238.64926654
 H      2   1   3     1.096533539248   109.94578651   121.39032105
 H      3   2   1     1.094592085819   110.24542965   300.00165009
 H      3   2   1     1.094619981772   110.27064517    60.13502969
 H      4   3   2     1.344157247557    96.91702523   180.02798779

---------------------------
INTERNAL COORDINATES (A.U.)
---------------------------
 C      0   0   0     0.000000000000     0.00000000     0.00000000
 C      1   0   0     2.888112619154     0.00000000     0.00000000
 C      2   1   0     2.881018843446   111.35352000     0.00000000
 S      3   2   1     3.495168423212   109.27938012   180.06291055
 H      1   2   3     2.069347040220   111.06890140    59.93787788
 H      1   2   3     2.066846185819   111.03620810   179.92553209
 H      1   2   3     2.069431387395   111.08747037   299.90892999
 H      2   1   3     2.072229966403   109.92508859   238.64926654
 H      2   1   3     2.072148085838   109.94578651   121.39032105
 H      3   2   1     2.068479270556   110.24542965   300.00165009
 H      3   2   1     2.068531986266   110.27064517    60.13502969
 H      4   3   2     2.540089078808    96.91702523   180.02798779

---------------------
BASIS SET INFORMATION
---------------------
There are 3 groups of distinct atoms

 Group   1 Type C   : 11s6p2d1f contracted to 5s3p2d1f pattern {62111/411/11/1}
 Group   2 Type S   : 14s9p3d1f contracted to 5s5p2d1f pattern {73211/51111/21/1}
 Group   3 Type H   : 5s1p contracted to 3s1p pattern {311/1}

Atom   0C    basis set group =>   1
Atom   1C    basis set group =>   1
Atom   2C    basis set group =>   1
Atom   3S    basis set group =>   2
Atom   4H    basis set group =>   3
Atom   5H    basis set group =>   3
Atom   6H    basis set group =>   3
Atom   7H    basis set group =>   3
Atom   8H    basis set group =>   3
Atom   9H    basis set group =>   3
Atom  10H    basis set group =>   3
Atom  11H    basis set group =>   3
---------------------------------
AUXILIARY/J BASIS SET INFORMATION
---------------------------------
There are 3 groups of distinct atoms

 Group   1 Type C   : 12s5p4d2f1g contracted to 6s4p3d1f1g pattern {711111/2111/211/2/1}
 Group   2 Type S   : 14s5p5d2f1g contracted to 8s4p3d1f1g pattern {71111111/2111/311/2/1}
 Group   3 Type H   : 5s2p1d contracted to 3s1p1d pattern {311/2/1}

Atom   0C    basis set group =>   1
Atom   1C    basis set group =>   1
Atom   2C    basis set group =>   1
Atom   3S    basis set group =>   2
Atom   4H    basis set group =>   3
Atom   5H    basis set group =>   3
Atom   6H    basis set group =>   3
Atom   7H    basis set group =>   3
Atom   8H    basis set group =>   3
Atom   9H    basis set group =>   3
Atom  10H    basis set group =>   3
Atom  11H    basis set group =>   3

Checking for AutoStart:
The File: sp.gbw exists
Trying to determine its content:
     ... Fine, the file contains calculation information
     ... Fine, the calculation information was read
     ... Fine, the file contains a basis set
     ... Fine, the basis set was read
     ... Fine, the file contains a geometry
     ... Fine, the geometry was read
     ... Fine, the file contains a set of orbitals
     ... Fine, the orbitals can be read
     => possible old guess file was deleted
     => GBW file was renamed to GES file
     => GES file is set as startup file
     => Guess is set to MORead
     ... now leaving AutoStart

------------------------------------------------------------------------------
                             ORCA STARTUP CALCULATIONS
                           -- RI-GTO INTEGRALS CHOSEN --
------------------------------------------------------------------------------
------------------------------------------------------------------------------
                   ___                                                        
                  /   \      - P O W E R E D   B Y -                         
                 /     \                                                     
                 |  |  |   _    _      __       _____    __    __             
                 |  |  |  | |  | |    /  \     |  _  \  |  |  /  |          
                  \  \/   | |  | |   /    \    | | | |  |  | /  /          
                 / \  \   | |__| |  /  /\  \   | |_| |  |  |/  /          
                |  |  |   |  __  | /  /__\  \  |    /   |      \           
                |  |  |   | |  | | |   __   |  |    \   |  |\   \          
                \     /   | |  | | |  |  |  |  | |\  \  |  | \   \       
                 \___/    |_|  |_| |__|  |__|  |_| \__\ |__|  \__/        
                                                                              
                      - O R C A' S   B I G   F R I E N D -                    
                                      &                                       
                       - I N T E G R A L  F E E D E R -                       
                                                                              
 v1 FN, 2020, v2 2021, v3 2022-2024                                           
------------------------------------------------------------------------------


----------------------
SHARK INTEGRAL PACKAGE
----------------------

Number of atoms                             ...     12
Number of basis functions                   ...    178
Number of shells                            ...     78
Maximum angular momentum                    ...      3
Integral batch strategy                     ... SHARK/LIBINT Hybrid
RI-J (if used) integral strategy            ... SPLIT-RIJ (Revised 2003 algorithm where possible)
Printlevel                                  ...      1
Contraction scheme used                     ... SEGMENTED contraction
Prescreening option                         ... SCHWARTZ
   Thresh                                   ... 3.000e-11
   Tcut                                     ... 1.000e-12
   Tpresel                                  ... 1.000e-12 
Coulomb Range Separation                    ... NOT USED
Exchange Range Separation                   ... Long Range
   Mu parameter                             ... 3.000e-01
   Scaling (regular/separated)              ... 1.670e-01 8.330e-01
Multipole approximations                    ... NOT USED
Finite Nucleus Model                        ... NOT USED
CABS basis                                  ... NOT available
Auxiliary Coulomb fitting basis             ... AVAILABLE
   # of basis functions in Aux-J            ...    286
   # of shells in Aux-J                     ...    102
   Maximum angular momentum in Aux-J        ...      4
Auxiliary J/K fitting basis                 ... NOT available
Auxiliary Correlation fitting basis         ... NOT available
Auxiliary 'external' fitting basis          ... NOT available

Checking pre-screening integrals            ... done (  0.0 sec) Dimension = 78
Check shell pair data                       ... done (  0.0 sec)
Shell pair information
Shell pair cut-off parameter TPreSel        ...   1.0e-12
Total number of shell pairs                 ...      3081
Shell pairs after pre-screening             ...      2942
Total number of primitive shell pairs       ...      9306
Primitive shell pairs kept                  ...      7127
          la=0 lb=0:    931 shell pairs
          la=1 lb=0:    921 shell pairs
          la=1 lb=1:    240 shell pairs
          la=2 lb=0:    343 shell pairs
          la=2 lb=1:    172 shell pairs
          la=2 lb=2:     36 shell pairs
          la=3 lb=0:    171 shell pairs
          la=3 lb=1:     86 shell pairs
          la=3 lb=2:     32 shell pairs
          la=3 lb=3:     10 shell pairs

Calculating one electron integrals          ... done (  0.0 sec)
Calculating RI/J V-Matrix + Cholesky decomp.... done (  0.0 sec)
Calculating Nuclear repulsion               ... done (  0.0 sec) ENN=    162.388550896660 Eh

Diagonalization of the overlap matrix:
Smallest eigenvalue                        ... 3.538e-04
Time for diagonalization                   ...    0.002 sec
Threshold for overlap eigenvalues          ... 1.000e-07
Number of eigenvalues below threshold      ... 0
Time for construction of square roots      ...    0.001 sec
Total time needed                          ...    0.004 sec

-------------------
DFT GRID GENERATION
-------------------

General Integration Accuracy     IntAcc      ... 4.388
Radial Grid Type                 RadialGrid  ... OptM3 with GC (2021)
Angular Grid (max. ang.)         AngularGrid ... 4 (Lebedev-302)
Angular grid pruning method      GridPruning ... 4 (adaptive)
Weight generation scheme         WeightScheme... mBecke (2022)
Basis function cutoff            BFCut       ... 1.0000e-11
Integration weight cutoff        WCut        ... 1.0000e-14
Partially contracted basis set               ... off
Rotationally invariant grid construction     ... off
Angular grids for H and He will be reduced by one unit

Total number of grid points                  ...    51323
Total number of batches                      ...      809
Average number of points per batch           ...       63
Average number of grid points per atom       ...     4277

--------------------
COSX GRID GENERATION
--------------------

GRIDX 1
-------
General Integration Accuracy     IntAcc      ... 3.816
Radial Grid Type                 RadialGrid  ... OptM3 with GC (2021)
Angular Grid (max. ang.)         AngularGrid ... 1 (Lebedev-50)
Angular grid pruning method      GridPruning ... 4 (adaptive)
Weight generation scheme         WeightScheme... mBecke (2022)
Basis function cutoff            BFCut       ... 1.0000e-11
Integration weight cutoff        WCut        ... 1.0000e-14
Partially contracted basis set               ... on
Rotationally invariant grid construction     ... off
Angular grids for H and He will be reduced by one unit

Total number of grid points                  ...     7649
Total number of batches                      ...       67
Average number of points per batch           ...      114
Average number of grid points per atom       ...      637
UseSFitting                                  ... on

GRIDX 2
-------
General Integration Accuracy     IntAcc      ... 4.020
Radial Grid Type                 RadialGrid  ... OptM3 with GC (2021)
Angular Grid (max. ang.)         AngularGrid ... 2 (Lebedev-110)
Angular grid pruning method      GridPruning ... 4 (adaptive)
Weight generation scheme         WeightScheme... mBecke (2022)
Basis function cutoff            BFCut       ... 1.0000e-11
Integration weight cutoff        WCut        ... 1.0000e-14
Partially contracted basis set               ... on
Rotationally invariant grid construction     ... off
Angular grids for H and He will be reduced by one unit

Total number of grid points                  ...    13616
Total number of batches                      ...      112
Average number of points per batch           ...      121
Average number of grid points per atom       ...     1135
UseSFitting                                  ... on

GRIDX 3
-------
General Integration Accuracy     IntAcc      ... 4.338
Radial Grid Type                 RadialGrid  ... OptM3 with GC (2021)
Angular Grid (max. ang.)         AngularGrid ... 3 (Lebedev-194)
Angular grid pruning method      GridPruning ... 4 (adaptive)
Weight generation scheme         WeightScheme... mBecke (2022)
Basis function cutoff            BFCut       ... 1.0000e-11
Integration weight cutoff        WCut        ... 1.0000e-14
Partially contracted basis set               ... on
Rotationally invariant grid construction     ... off
Angular grids for H and He will be reduced by one unit

Total number of grid points                  ...    30352
Total number of batches                      ...      243
Average number of points per batch           ...      124
Average number of grid points per atom       ...     2529
UseSFitting                                  ... on
Initializing property integral containers    ... done (  0.0 sec)

SHARK setup successfully completed in   0.6 seconds

Maximum memory used throughout the entire STARTUP-calculation: 26.5 MB
-------------------------------------------------------------------------------
                                 ORCA GUESS
                   Start orbitals & Density for SCF / CASSCF
-------------------------------------------------------------------------------

------------
SCF SETTINGS
------------
Hamiltonian:
 Density Functional     Method          .... DFT(GTOs)
 Exchange Functional    Exchange        .... WB97X-V
 Correlation Functional Correlation     .... WB97X-V
 Gradients option       PostSCFGGA      .... off
 Hybrid DFT is turned on
   Fraction HF Exchange ScalHFX         ....  0.167000
   Scaling of DF-GGA-X  ScalDFX         ....  0.000000
   Scaling of DF-GGA-C  ScalDFC         ....  1.000000
   Scaling of DF-LDA-C  ScalLDAC        ....  1.000000
   Perturbative correction              ....  0.000000
 Long-range corrected/Screened/Range-Separated Hybrid DFT is turned on
   Amount of maximum screened exact exchange              ....  0.833000
   Range separation parameter mu (erf(mu*r12)/r12)        ....  0.300000
   NL short-range parameter             ....  6.000000
   NL long-range parameter              ....  0.010000
 RI-approximation to the Coulomb term is turned on
   Number of AuxJ basis functions       .... 286
   RIJ-COSX (HFX calculated with COS-X)).... on


General Settings:
 Integral files         IntName         .... sp
 Hartree-Fock type      HFTyp           .... RHF
 Total Charge           Charge          ....    0
 Multiplicity           Mult            ....    1
 Number of Electrons    NEL             ....   42
 Basis Dimension        Dim             ....  178
 Nuclear Repulsion      ENuc            ....    162.3885508967 Eh

Convergence Acceleration:
 AO-DIIS                CNVDIIS         .... on
   Start iteration      DIISMaxIt       ....    12
   Startup error        DIISStart       ....  0.200000
   # of expansion vecs  DIISMaxEq       ....     5
   Bias factor          DIISBfac        ....   1.050
   Max. coefficient     DIISMaxC        ....  10.000
 MO-DIIS                CNVKDIIS        .... off
 Trust-Rad. Augm. Hess. CNVTRAH         .... auto
   Auto Start mean grad. ratio tolernc. ....  1.125000
   Auto Start start iteration           ....     1
   Auto Start num. interpolation iter.  ....    10
   Max. Number of Micro iterations      ....    24
   Max. Number of Macro iterations      .... Maxiter - #DIIS iter
   Number of Davidson start vectors     ....     2
   Converg. threshold    (grad. norm)   ....   1.000e-04
   Grad. Scal. Fac. for Micro threshold ....   0.100
   Minimum threshold for Micro iter.    ....   1.000e-02
   NR start threshold (gradient norm)   ....   1.000e-04
   Initial trust radius                 ....   0.400
   Minimum AH scaling param. (alpha)    ....   1.000
   Maximum AH scaling param. (alpha)    .... 1000.000
   Quad. conv. algorithm                .... NR
   White noise on init. David. guess    .... on
   Maximum white noise                  ....   0.010
   Pseudo random numbers                .... off
   Inactive MOs                         .... canonical
   Orbital update algorithm             .... Taylor
   Preconditioner                       .... Diag
   Full preconditioner red. dimension   ....   250
 SOSCF                  CNVSOSCF        .... on
   Start iteration      SOSCFMaxIt      ....   150
   Startup grad/error   SOSCFStart      ....  0.003300
   Hessian update       SOSCFHessUp     .... L-BFGS
 Level Shifting         CNVShift        .... on
   Level shift para.    LevelShift      ....    0.2500
   Turn off err/grad.   ShiftErr        ....    0.0010
 Zerner damping         CNVZerner       .... off
 Static damping         CNVDamp         .... on
   Fraction old density DampFac         ....    0.7000
   Max. Damping (<1)    DampMax         ....    0.9800
   Min. Damping (>=0)   DampMin         ....    0.0000
   Turn off err/grad.   DampErr         ....    0.1000

SCF Procedure:
 Maximum # iterations   MaxIter         ....   125
 SCF integral mode      SCFMode         .... Direct
   Integral package                     .... SHARK and LIBINT hybrid scheme
 Reset frequency        DirectResetFreq ....    20
 Integral Threshold     Thresh          ....  3.000e-11 Eh
 Primitive CutOff       TCut            ....  1.000e-12 Eh

Convergence Tolerance:
 Convergence Check Mode ConvCheckMode   .... Total+1el-Energy
 Convergence forced     ConvForced      .... 0
 Energy Change          TolE            ....  1.000e-07 Eh
 1-El. energy change                    ....  1.000e-04 Eh
 Orbital Gradient       TolG            ....  1.000e-04
 Orbital Rotation angle TolX            ....  1.000e-04
 DIIS Error             TolErr          ....  1.000e-07

---------------------
INITIAL GUESS: MOREAD
---------------------
Guess MOs are being read from file: sp.ges
Input Geometry matches current geometry (good)
Atom 0: N(Shells)= 11 and 9 - projection required
Input basis set needs projection
NBasis(read)= 124
NBasis(calc)= 178
Basis set overlap was calculated
Using GuessMode=FMatrix for the initial guess
C*T matrix was formed
Effective Fockian was calculated
Effective Fockian was diagonalized
Initial density was built
                      ------------------
                      INITIAL GUESS DONE (   0.0 sec)
                      ------------------
             **** ENERGY FILE WAS UPDATED (sp.en.tmp) ****
Finished Guess after   0.0 sec
Maximum memory used throughout the entire GUESS-calculation: 14.5 MB

-------------------------------------------------------------------------------------------
                                      ORCA LEAN-SCF
                              memory conserving SCF solver
-------------------------------------------------------------------------------------------

----------------------------------------D-I-I-S--------------------------------------------
Iteration    Energy (Eh)           Delta-E    RMSDP     MaxDP     DIISErr   Damp  Time(sec)
-------------------------------------------------------------------------------------------
               ***  Starting incremental Fock matrix formation  ***
    1    -517.4430553279757987     0.00e+00  8.72e-04  1.52e-02  4.66e-02  0.700   3.3
    2    -517.4460788075984965    -3.02e-03  7.61e-04  1.39e-02  3.49e-02  0.700   1.9
                               ***Turning on AO-DIIS***
    3    -517.4483772220028186    -2.30e-03  6.44e-04  1.20e-02  2.53e-02  0.700   1.8
    4    -517.4500777043763264    -1.70e-03  1.64e-03  3.05e-02  1.79e-02  0.000   1.8
                              *** Initializing SOSCF ***
---------------------------------------S-O-S-C-F--------------------------------------
Iteration    Energy (Eh)           Delta-E    RMSDP     MaxDP     MaxGrad    Time(sec)
--------------------------------------------------------------------------------------
    5    -517.4544531324859236    -4.38e-03  9.10e-05  1.95e-03  1.16e-03     1.9
               *** Restarting incremental Fock matrix formation ***
    6    -517.4544570091645710    -3.88e-06  4.20e-05  1.08e-03  2.76e-04     3.3
    7    -517.4544595612162539    -2.55e-06  2.26e-05  5.42e-04  1.09e-04     2.6
    8    -517.4544598764528018    -3.15e-07  4.10e-06  1.05e-04  4.09e-05     2.5
    9    -517.4544599299047150    -5.35e-08  1.33e-06  2.80e-05  8.85e-06     2.3
                 **** Energy Check signals convergence ****

               *****************************************************
               *                     SUCCESS                       *
               *           SCF CONVERGED AFTER   9 CYCLES          *
               *****************************************************


------------------
NL GRID GENERATION
------------------

General Integration Accuracy     IntAcc      ... 4.004
Radial Grid Type                 RadialGrid  ... OptM3 with GC (2021)
Angular Grid (max. ang.)         AngularGrid ... 2 (Lebedev-110)
Angular grid pruning method      GridPruning ... 4 (adaptive)
Weight generation scheme         WeightScheme... mBecke (2022)
Basis function cutoff            BFCut       ... 1.0000e-10
Integration weight cutoff        WCut        ... 1.0000e-14
Partially contracted basis set               ... off
Rotationally invariant grid construction     ... off
Angular grids for H and He will be reduced by one unit

Total number of grid points                  ...    15027
Total number of batches                      ...      241
Average number of points per batch           ...       62
Average number of grid points per atom       ...     1252
Final grid set up in    0.1 sec

-------------------------------------------------------------------------------
                    post-SCF DFT-NL dispersion correction                      
-------------------------------------------------------------------------------

SCF Energy:     -517.454459930 
NL    Energy:      0.166021806 
SC+NL Energy:   -517.288438124 
NL done in  :              0.7 sec
-------------------------------------------------------------------------------
Recomputing exchange energy using gridx3       ... done (    6.156 sec)
Old exchange energy                            :    -12.740222727 Eh
New exchange energy                            :    -12.740230979 Eh
Exchange energy change after final integration :     -0.000008253 Eh
Total energy after final integration           :   -517.288446377 Eh
             **** ENERGY FILE WAS UPDATED (sp.en.tmp) ****

----------------
TOTAL SCF ENERGY
----------------

Total Energy       :       -517.28844637661916 Eh          -14076.13424 eV

Components:
Nuclear Repulsion  :        162.38855089666021 Eh            4418.81712 eV
Electronic Energy  :       -679.84301082656498 Eh          -18499.46882 eV
One Electron Energy:      -1031.17863739681025 Eh          -28059.79726 eV
Two Electron Energy:        351.33562657024521 Eh            9560.32844 eV

Virial components:
Potential Energy   :      -1033.27825359139638 Eh          -28116.93072 eV
Kinetic Energy     :        515.98980721477722 Eh           14040.79647 eV
Virial Ratio       :          2.00251679227706

DFT components:
N(Alpha)           :       20.999982536106 electrons
N(Beta)            :       20.999982536106 electrons
N(Total)           :       41.999965072213 electrons
E(X)               :      -30.470047250362 Eh       
E(C)               :       -1.843119642784 Eh       
NL Energy, E(C,NL) :        0.166021805858 Eh       
E(XC)              :      -32.147145087288 Eh       

---------------
SCF CONVERGENCE
---------------

  Last Energy change         ...    5.3452e-08  Tolerance :   1.0000e-07
  Last MAX-Density change    ...    2.7988e-05  Tolerance :   1.0000e-05
  Last RMS-Density change    ...    1.3319e-06  Tolerance :   1.0000e-06
  Last DIIS Error            ...    1.1555e-03  Tolerance :   1.0000e-07
  Last Orbital Gradient      ...    8.8507e-06  Tolerance :   1.0000e-04
  Last Orbital Rotation      ...    1.1623e-05  Tolerance :   1.0000e-04


----------------
ORBITAL ENERGIES
----------------

  NO   OCC          E(Eh)            E(eV) 
   0   2.0000     -88.852455     -2417.7982 
   1   2.0000     -10.304684      -280.4047 
   2   2.0000     -10.278327      -279.6875 
   3   2.0000     -10.267391      -279.3899 
   4   2.0000      -8.031103      -218.5374 
   5   2.0000      -5.986999      -162.9145 
   6   2.0000      -5.983468      -162.8184 
   7   2.0000      -5.978125      -162.6731 
   8   2.0000      -0.947285       -25.7769 
   9   2.0000      -0.871700       -23.7202 
  10   2.0000      -0.778871       -21.1942 
  11   2.0000      -0.714787       -19.4503 
  12   2.0000      -0.594763       -16.1843 
  13   2.0000      -0.552288       -15.0285 
  14   2.0000      -0.541611       -14.7380 
  15   2.0000      -0.513650       -13.9771 
  16   2.0000      -0.469477       -12.7751 
  17   2.0000      -0.448772       -12.2117 
  18   2.0000      -0.447512       -12.1774 
  19   2.0000      -0.424889       -11.5618 
  20   2.0000      -0.338272        -9.2048 
  21   0.0000       0.092269         2.5108 
  22   0.0000       0.116791         3.1780 
  23   0.0000       0.139105         3.7852 
  24   0.0000       0.155816         4.2400 
  25   0.0000       0.158694         4.3183 
  26   0.0000       0.169172         4.6034 
  27   0.0000       0.199949         5.4409 
  28   0.0000       0.203225         5.5300 
  29   0.0000       0.218054         5.9335 
  30   0.0000       0.222505         6.0547 
  31   0.0000       0.261254         7.1091 
*Only the first 10 virtual orbitals were printed.

                    ********************************
                    * MULLIKEN POPULATION ANALYSIS *
                    ********************************

-----------------------
MULLIKEN ATOMIC CHARGES
-----------------------
   0 C :   -0.343071
   1 C :   -0.167522
   2 C :   -0.169828
   3 S :   -0.216828
   4 H :    0.107404
   5 H :    0.119341
   6 H :    0.107535
   7 H :    0.103176
   8 H :    0.103210
   9 H :    0.111894
  10 H :    0.111897
  11 H :    0.132792
Sum of atomic charges:   -0.0000000

--------------------------------
MULLIKEN REDUCED ORBITAL CHARGES
--------------------------------
  0 C s       :     3.232142  s :     3.232142
      pz      :     1.047503  p :     3.049470
      px      :     0.958310
      py      :     1.043657
      dz2     :     0.006431  d :     0.058122
      dxz     :     0.011284
      dyz     :     0.015079
      dx2y2   :     0.008785
      dxy     :     0.016543
      f0      :     0.000355  f :     0.003337
      f+1     :     0.000137
      f-1     :     0.000863
      f+2     :     0.000259
      f-2     :     0.000232
      f+3     :     0.000881
      f-3     :     0.000609

  1 C s       :     3.180411  s :     3.180411
      pz      :     1.034165  p :     2.882102
      px      :     0.896905
      py      :     0.951033
      dz2     :     0.008330  d :     0.099370
      dxz     :     0.015396
      dyz     :     0.028876
      dx2y2   :     0.024314
      dxy     :     0.022454
      f0      :     0.000655  f :     0.005639
      f+1     :     0.000259
      f-1     :     0.000934
      f+2     :     0.000284
      f-2     :     0.000875
      f+3     :     0.001425
      f-3     :     0.001206

  2 C s       :     3.190774  s :     3.190774
      pz      :     1.025173  p :     2.875940
      px      :     0.864105
      py      :     0.986662
      dz2     :     0.009178  d :     0.098296
      dxz     :     0.017503
      dyz     :     0.027466
      dx2y2   :     0.023752
      dxy     :     0.020397
      f0      :     0.000569  f :     0.004819
      f+1     :     0.000270
      f-1     :     0.000929
      f+2     :     0.000168
      f-2     :     0.000785
      f+3     :     0.000878
      f-3     :     0.001220

  3 S s       :     5.797968  s :     5.797968
      pz      :     3.959755  p :    10.298439
      px      :     3.014358
      py      :     3.324327
      dz2     :     0.018266  d :     0.110358
      dxz     :     0.009830
      dyz     :     0.005085
      dx2y2   :     0.025834
      dxy     :     0.051344
      f0      :     0.000878  f :     0.010062
      f+1     :     0.001969
      f-1     :     0.001417
      f+2     :     0.000305
      f-2     :     0.000935
      f+3     :     0.003250
      f-3     :     0.001308

  4 H s       :     0.871794  s :     0.871794
      pz      :     0.010155  p :     0.020802
      px      :     0.004470
      py      :     0.006178

  5 H s       :     0.859534  s :     0.859534
      pz      :     0.004294  p :     0.021125
      px      :     0.008356
      py      :     0.008474

  6 H s       :     0.871667  s :     0.871667
      pz      :     0.008736  p :     0.020798
      px      :     0.004512
      py      :     0.007549

  7 H s       :     0.875843  s :     0.875843
      pz      :     0.008632  p :     0.020980
      px      :     0.004192
      py      :     0.008156

  8 H s       :     0.875809  s :     0.875809
      pz      :     0.010222  p :     0.020981
      px      :     0.004161
      py      :     0.006598

  9 H s       :     0.866649  s :     0.866649
      pz      :     0.010745  p :     0.021457
      px      :     0.004192
      py      :     0.006520

 10 H s       :     0.866646  s :     0.866646
      pz      :     0.009132  p :     0.021457
      px      :     0.004210
      py      :     0.008115

 11 H s       :     0.843904  s :     0.843904
      pz      :     0.007185  p :     0.023304
      px      :     0.005708
      py      :     0.010412


------------------------
MULLIKEN OVERLAP CHARGES
------------------------
B(  0-C ,  1-C ) :   0.5751 B(  0-C ,  2-C ) :  -0.0640 B(  0-C ,  4-H ) :   0.8201 
B(  0-C ,  5-H ) :   0.8315 B(  0-C ,  6-H ) :   0.8204 B(  0-C ,  7-H ) :  -0.0590 
B(  0-C ,  8-H ) :  -0.0587 B(  1-C ,  2-C ) :   0.5926 B(  1-C ,  3-S ) :  -0.0880 
B(  1-C ,  4-H ) :  -0.0660 B(  1-C ,  5-H ) :  -0.0801 B(  1-C ,  6-H ) :  -0.0662 
B(  1-C ,  7-H ) :   0.8198 B(  1-C ,  8-H ) :   0.8196 B(  1-C ,  9-H ) :  -0.0856 
B(  1-C , 10-H ) :  -0.0854 B(  2-C ,  3-S ) :   0.6548 B(  2-C ,  7-H ) :  -0.0731 
B(  2-C ,  8-H ) :  -0.0731 B(  2-C ,  9-H ) :   0.8530 B(  2-C , 10-H ) :   0.8531 
B(  2-C , 11-H ) :  -0.0792 B(  3-S ,  9-H ) :  -0.0820 B(  3-S , 10-H ) :  -0.0821 
B(  3-S , 11-H ) :   0.6970 B(  4-H ,  6-H ) :  -0.0599 B(  7-H ,  8-H ) :  -0.0649 
B(  9-H , 10-H ) :  -0.0847 


                     *******************************
                     * LOEWDIN POPULATION ANALYSIS *
                     *******************************

----------------------
LOEWDIN ATOMIC CHARGES
----------------------
   0 C :   -0.306077
   1 C :   -0.325345
   2 C :   -0.464120
   3 S :    0.211890
   4 H :    0.116700
   5 H :    0.118370
   6 H :    0.116706
   7 H :    0.132518
   8 H :    0.132498
   9 H :    0.118667
  10 H :    0.118665
  11 H :    0.029528

-------------------------------
LOEWDIN REDUCED ORBITAL CHARGES
-------------------------------
  0 C s       :     2.829428  s :     2.829428
      pz      :     1.071558  p :     3.186410
      px      :     1.043922
      py      :     1.070929
      dz2     :     0.037659  d :     0.265521
      dxz     :     0.044485
      dyz     :     0.058796
      dx2y2   :     0.044458
      dxy     :     0.080123
      f0      :     0.002361  f :     0.024718
      f+1     :     0.002896
      f-1     :     0.003316
      f+2     :     0.004414
      f-2     :     0.002033
      f+3     :     0.005978
      f-3     :     0.003720

  1 C s       :     2.784172  s :     2.784172
      pz      :     1.033479  p :     3.094002
      px      :     1.034689
      py      :     1.025835
      dz2     :     0.046695  d :     0.407867
      dxz     :     0.057990
      dyz     :     0.105560
      dx2y2   :     0.098619
      dxy     :     0.099004
      f0      :     0.004328  f :     0.039304
      f+1     :     0.003550
      f-1     :     0.004078
      f+2     :     0.004654
      f-2     :     0.005884
      f+3     :     0.009136
      f-3     :     0.007673

  2 C s       :     2.855270  s :     2.855270
      pz      :     1.075869  p :     3.162220
      px      :     1.014260
      py      :     1.072091
      dz2     :     0.049883  d :     0.412501
      dxz     :     0.066613
      dyz     :     0.106135
      dx2y2   :     0.098135
      dxy     :     0.091736
      f0      :     0.003921  f :     0.034129
      f+1     :     0.003238
      f-1     :     0.003793
      f+2     :     0.004194
      f-2     :     0.005243
      f+3     :     0.005646
      f-3     :     0.008095

  3 S s       :     5.378668  s :     5.378668
      pz      :     3.866991  p :    10.205432
      px      :     3.004701
      py      :     3.333741
      dz2     :     0.027594  d :     0.179005
      dxz     :     0.022110
      dyz     :     0.007265
      dx2y2   :     0.040003
      dxy     :     0.082032
      f0      :     0.001780  f :     0.025005
      f+1     :     0.003325
      f-1     :     0.002106
      f+2     :     0.001257
      f-2     :     0.002308
      f+3     :     0.009974
      f-3     :     0.004255

  4 H s       :     0.823105  s :     0.823105
      pz      :     0.029041  p :     0.060195
      px      :     0.012977
      py      :     0.018178

  5 H s       :     0.821208  s :     0.821208
      pz      :     0.013272  p :     0.060421
      px      :     0.021971
      py      :     0.025178

  6 H s       :     0.823105  s :     0.823105
      pz      :     0.025368  p :     0.060189
      px      :     0.013062
      py      :     0.021759

  7 H s       :     0.809262  s :     0.809262
      pz      :     0.024711  p :     0.058220
      px      :     0.012611
      py      :     0.020898

  8 H s       :     0.809274  s :     0.809274
      pz      :     0.028297  p :     0.058228
      px      :     0.012547
      py      :     0.017384

  9 H s       :     0.820144  s :     0.820144
      pz      :     0.030718  p :     0.061189
      px      :     0.012398
      py      :     0.018074

 10 H s       :     0.820148  s :     0.820148
      pz      :     0.026671  p :     0.061187
      px      :     0.012470
      py      :     0.022046

 11 H s       :     0.895506  s :     0.895506
      pz      :     0.020617  p :     0.074966
      px      :     0.015390
      py      :     0.038958


---------------------------------
LOEWDIN BOND ORDERS (THRESH 0.050000)
---------------------------------
B(  0-C ,  1-C ) :   1.2818 B(  0-C ,  2-C ) :   0.1550 B(  0-C ,  4-H ) :   0.9082 
B(  0-C ,  5-H ) :   0.9087 B(  0-C ,  6-H ) :   0.9083 B(  0-C ,  7-H ) :   0.0743 
B(  0-C ,  8-H ) :   0.0743 B(  1-C ,  2-C ) :   1.2710 B(  1-C ,  3-S ) :   0.1449 
B(  1-C ,  4-H ) :   0.0764 B(  1-C ,  5-H ) :   0.0794 B(  1-C ,  6-H ) :   0.0764 
B(  1-C ,  7-H ) :   0.8516 B(  1-C ,  8-H ) :   0.8517 B(  1-C ,  9-H ) :   0.0771 
B(  1-C , 10-H ) :   0.0771 B(  2-C ,  3-S ) :   1.4339 B(  2-C ,  7-H ) :   0.0765 
B(  2-C ,  8-H ) :   0.0765 B(  2-C ,  9-H ) :   0.8855 B(  2-C , 10-H ) :   0.8855 
B(  2-C , 11-H ) :   0.0663 B(  3-S ,  9-H ) :   0.0543 B(  3-S , 10-H ) :   0.0543 
B(  3-S , 11-H ) :   1.0393 

------------------------------------------
LOEWDIN REDUCED ORBITAL POPULATIONS PER MO
-------------------------------------------
THRESHOLD FOR PRINTING IS 0.1%%
                      0         1         2         3         4         5   
                 -88.85246 -10.30468 -10.27833 -10.26739  -8.03110  -5.98700
                   2.00000   2.00000   2.00000   2.00000   2.00000   2.00000
                  --------  --------  --------  --------  --------  --------
 0 C  s               0.0       0.0       0.0      99.4       0.0       0.0
 1 C  s               0.0       0.0      99.2       0.0       0.0       0.0
 1 C  dxy             0.0       0.1       0.0       0.1       0.0       0.0
 2 C  s               0.0      99.4       0.0       0.0       0.0       0.0
 2 C  px              0.0       0.0       0.0       0.0       0.1       0.0
 2 C  dxy             0.0       0.0       0.1       0.0       0.0       0.0
 3 S  s             100.0       0.0       0.0       0.0      99.6       0.0
 3 S  px              0.0       0.0       0.0       0.0       0.0      95.4
 3 S  py              0.0       0.0       0.0       0.0       0.0       4.5

                      6         7         8         9        10        11   
                  -5.98347  -5.97813  -0.94729  -0.87170  -0.77887  -0.71479
                   2.00000   2.00000   2.00000   2.00000   2.00000   2.00000
                  --------  --------  --------  --------  --------  --------
 0 C  s               0.0       0.0       8.8      16.3      13.3       2.8
 0 C  px              0.0       0.0       3.0       0.3       3.5       3.3
 0 C  py              0.0       0.0       0.1       0.2       0.1       3.5
 0 C  dz2             0.0       0.0       0.1       0.0       0.1       0.2
 0 C  dx2y2           0.0       0.0       0.3       0.0       0.3       0.1
 0 C  dxy             0.0       0.0       0.1       0.1       0.0       0.7
 1 C  s               0.0       0.0      20.5       5.5       2.8      10.0
 1 C  px              0.0       0.0       0.3       8.0       7.3       0.2
 1 C  py              0.0       0.0       2.0       0.0       0.2      11.2
 1 C  dz2             0.0       0.0       0.4       0.0       0.0       0.6
 1 C  dx2y2           0.0       0.0       0.1       0.1       0.8       0.0
 1 C  dxy             0.0       0.0       0.2       0.7       1.0       0.2
 2 C  s               0.0       0.0      22.4       4.5       6.6       8.4
 2 C  pz              0.0       0.0       0.0       0.0       0.0       0.1
 2 C  px              0.0       0.0       0.0      11.0       5.6       0.1
 2 C  py              0.0       0.0       2.1       0.0       0.1      11.9
 2 C  dz2             0.0       0.0       0.4       0.0       0.1       0.7
 2 C  dx2y2           0.0       0.0       0.1       0.2       1.1       0.0
 2 C  dxy             0.0       0.0       0.1       1.1       0.6       0.2
 3 S  s               0.0       0.0       9.5      25.0      19.1       3.8
 3 S  pz              0.8      99.2       0.0       0.0       0.0       0.0
 3 S  px              4.5       0.0       1.9       0.1       3.6       1.5
 3 S  py             94.6       0.8       0.3       0.7       0.2       0.7
 3 S  dz2             0.0       0.0       0.2       0.1       0.0       0.0
 3 S  dx2y2           0.0       0.0       0.2       0.0       0.4       0.0
 3 S  dxy             0.0       0.0       0.1       0.0       0.3       0.7
 4 H  s               0.0       0.0       1.7       3.8       4.8       2.6
 4 H  pz              0.0       0.0       0.1       0.3       0.4       0.2
 4 H  py              0.0       0.0       0.0       0.1       0.1       0.0
 5 H  s               0.0       0.0       1.6       4.0       5.7       0.9
 5 H  px              0.0       0.0       0.1       0.2       0.2       0.0
 5 H  py              0.0       0.0       0.0       0.2       0.4       0.1
 6 H  s               0.0       0.0       1.7       3.8       4.8       2.6
 6 H  pz              0.0       0.0       0.1       0.2       0.3       0.2
 6 H  py              0.0       0.0       0.1       0.2       0.2       0.0
 7 H  s               0.0       0.0       4.0       1.2       0.9       7.4
 7 H  pz              0.0       0.0       0.2       0.1       0.1       0.5
 7 H  py              0.0       0.0       0.2       0.0       0.1       0.1
 8 H  s               0.0       0.0       4.0       1.2       0.9       7.4
 8 H  pz              0.0       0.0       0.2       0.1       0.1       0.6
 8 H  py              0.0       0.0       0.1       0.0       0.0       0.0
 9 H  s               0.0       0.0       4.5       1.1       2.1       6.7
 9 H  pz              0.0       0.0       0.3       0.1       0.2       0.6
 9 H  py              0.0       0.0       0.1       0.0       0.1       0.0
10 H  s               0.0       0.0       4.5       1.1       2.1       6.7
10 H  pz              0.0       0.0       0.2       0.0       0.1       0.5
10 H  py              0.0       0.0       0.2       0.0       0.1       0.1
11 H  s               0.0       0.0       2.0       6.8       8.1       1.3
11 H  px              0.0       0.0       0.1       0.2       0.2       0.0
11 H  py              0.0       0.0       0.1       0.5       0.6       0.1

                     12        13        14        15        16        17   
                  -0.59476  -0.55229  -0.54161  -0.51365  -0.46948  -0.44877
                   2.00000   2.00000   2.00000   2.00000   2.00000   2.00000
                  --------  --------  --------  --------  --------  --------
 0 C  s               0.0       0.2       0.0       0.0       0.3       0.1
 0 C  pz             12.7       0.0       0.2      27.9       0.2       0.0
 0 C  px              0.0      16.3       2.4       0.0       8.1      11.6
 0 C  py              0.1       0.4      26.7       0.2      17.5       4.5
 0 C  dz2             0.0       0.0       0.4       0.0       0.6       0.3
 0 C  dxz             0.4       0.0       0.0       0.1       0.0       0.0
 0 C  dyz             0.1       0.0       0.0       0.7       0.0       0.0
 0 C  dx2y2           0.0       0.2       0.1       0.0       0.7       0.4
 0 C  dxy             0.0       0.3       0.1       0.0       0.4       2.2
 0 C  f+3             0.0       0.0       0.0       0.0       0.1       0.2
 1 C  s               0.0       0.7       0.1       0.0       0.1       0.1
 1 C  pz             26.6       0.0       0.1       1.9       0.1       0.1
 1 C  px              0.0       7.6       3.7       0.0       9.6      13.2
 1 C  py              0.2       3.0      12.3       0.0      13.2       7.1
 1 C  dz2             0.0       0.0       0.1       0.0       0.7       0.1
 1 C  dxz             0.1       0.0       0.0       2.2       0.0       0.0
 1 C  dyz             0.0       0.0       0.0       0.4       0.0       0.0
 1 C  dx2y2           0.0       0.7       0.0       0.0       1.6       0.0
 1 C  dxy             0.0       0.3       0.2       0.0       0.3       1.9
 1 C  f-2             0.0       0.0       0.0       0.2       0.0       0.0
 1 C  f+3             0.0       0.0       0.1       0.0       0.1       0.2
 2 C  s               0.0       0.3       0.2       0.0       0.0       0.6
 2 C  pz             24.1       0.1       0.1      22.2       0.0       0.1
 2 C  px              0.0       7.9       3.3       0.0       0.4      12.3
 2 C  py              0.2       8.5      13.9       0.2       1.0       8.4
 2 C  dz2             0.0       0.1       0.4       0.0       0.1       0.0
 2 C  dxz             0.3       0.0       0.0       0.2       0.0       0.0
 2 C  dyz             0.0       0.0       0.0       1.3       0.0       0.0
 2 C  dx2y2           0.0       0.2       0.2       0.0       0.7       0.1
 2 C  dxy             0.0       0.8       0.0       0.0       0.2       1.0
 2 C  f-3             0.0       0.0       0.0       0.0       0.2       0.0
 3 S  s               0.0       0.1       1.4       0.0       3.3       0.9
 3 S  pz              1.9       0.0       0.0       3.8       0.1       0.0
 3 S  px              0.0      20.7       0.0       0.0       0.6       6.5
 3 S  py              0.0       6.8       5.1       0.0      12.2       3.5
 3 S  dz2             0.0       0.0       0.1       0.0       0.3       0.2
 3 S  dxz             0.4       0.0       0.0       0.4       0.0       0.0
 3 S  dyz             0.1       0.0       0.0       0.1       0.0       0.0
 3 S  dx2y2           0.0       0.9       0.2       0.0       0.1       0.1
 3 S  dxy             0.0       1.0       0.1       0.0       0.3       1.5
 3 S  f+3             0.0       0.0       0.0       0.0       0.0       0.2
 4 H  s               3.0       0.3       3.3       9.3       4.6       0.7
 4 H  pz              0.0       0.0       0.2       0.0       0.2       0.0
 4 H  px              0.0       0.2       0.1       0.0       0.1       0.2
 4 H  py              0.1       0.0       0.1       0.3       0.1       0.0
 5 H  s               0.0       5.6      10.9       0.0       1.6      10.1
 5 H  pz              0.1       0.0       0.0       0.4       0.0       0.0
 5 H  px              0.0       0.0       0.3       0.0       0.3       0.0
 5 H  py              0.0       0.2       0.0       0.0       0.1       0.1
 6 H  s               3.0       0.3       3.3       9.3       4.5       0.6
 6 H  pz              0.0       0.0       0.2       0.0       0.2       0.0
 6 H  px              0.0       0.2       0.1       0.0       0.1       0.2
 6 H  py              0.1       0.0       0.0       0.3       0.0       0.0
 7 H  s               6.3       0.2       1.3       0.6       4.6       0.7
 7 H  pz              0.0       0.0       0.1       0.0       0.2       0.0
 7 H  px              0.0       0.1       0.1       0.0       0.1       0.2
 7 H  py              0.3       0.0       0.0       0.0       0.0       0.1
 8 H  s               6.3       0.2       1.3       0.6       4.6       0.8
 8 H  pz              0.1       0.0       0.1       0.0       0.2       0.0
 8 H  px              0.0       0.1       0.1       0.0       0.1       0.2
 8 H  py              0.2       0.0       0.0       0.0       0.0       0.1
 9 H  s               6.2       0.8       2.7       8.1       0.2       0.7
 9 H  pz              0.1       0.1       0.2       0.0       0.0       0.0
 9 H  px              0.0       0.1       0.1       0.0       0.0       0.2
 9 H  py              0.2       0.0       0.0       0.2       0.0       0.1
10 H  s               6.2       0.8       2.7       8.0       0.2       0.6
10 H  pz              0.0       0.1       0.2       0.0       0.0       0.0
10 H  px              0.0       0.1       0.1       0.0       0.0       0.2
10 H  py              0.3       0.0       0.0       0.2       0.0       0.1
11 H  s               0.0      13.0       0.6       0.0       4.8       6.2
11 H  py              0.0       0.3       0.0       0.0       0.0       0.1

                     18        19        20        21        22        23   
                  -0.44751  -0.42489  -0.33827   0.09227   0.11679   0.13910
                   2.00000   2.00000   2.00000   0.00000   0.00000   0.00000
                  --------  --------  --------  --------  --------  --------
 0 C  s               0.0       0.3       0.0       1.5       6.9       0.6
 0 C  pz             12.5       0.0       0.1       0.0       0.0       0.0
 0 C  px              0.0       3.7       0.0       0.5       0.6       0.4
 0 C  py              0.1       0.1       0.0       0.2       0.1       1.4
 0 C  dz2             0.1       0.0       0.0       0.2       0.1       1.8
 0 C  dxz             1.7       0.0       0.0       0.0       0.0       0.0
 0 C  dyz             2.2       0.0       0.0       0.0       0.0       0.0
 0 C  dxy             0.0       0.1       0.0       0.8       0.1       0.3
 0 C  f+2             0.2       0.0       0.0       0.0       0.0       0.0
 1 C  s               0.0       0.2       0.0       1.9       0.8       0.6
 1 C  pz             22.7       0.0       0.0       0.0       0.0       0.0
 1 C  px              0.0       1.6       0.0       0.6       2.8       0.2
 1 C  py              0.2       1.9       0.0       0.9       0.2       0.5
 1 C  dz2             0.1       0.1       0.0       0.3       1.2       0.5
 1 C  dxz             0.6       0.0       0.0       0.0       0.0       0.0
 1 C  dyz             4.6       0.0       0.2       0.0       0.0       0.1
 1 C  dx2y2           0.0       1.4       0.0       0.0       1.1       1.7
 1 C  dxy             0.0       0.0       0.0       0.5       1.1       0.5
 1 C  f0              0.2       0.0       0.0       0.0       0.0       0.0
 1 C  f+2             0.2       0.0       0.0       0.0       0.0       0.0
 1 C  f-3             0.0       0.2       0.0       0.0       0.0       0.2
 2 C  s               0.0       0.3       0.0       5.7       0.2       0.8
 2 C  pz              4.7       0.1       2.3       0.0       0.0       0.1
 2 C  px              0.0       9.9       0.0       2.3       2.3      10.8
 2 C  py              0.0       7.3       0.0       0.9       0.5       5.3
 2 C  dz2             0.1       0.4       0.0       0.1       0.1       4.4
 2 C  dxz             0.4       0.0       2.5       0.0       0.0       0.0
 2 C  dyz             2.4       0.0       1.5       0.0       0.0       0.1
 2 C  dx2y2           0.0       2.1       0.0       0.0       1.7       0.7
 2 C  dxy             0.0       0.3       0.0       1.2       0.3       1.6
 2 C  f+2             0.0       0.0       0.1       0.0       0.0       0.0
 2 C  f-2             0.2       0.0       0.0       0.0       0.0       0.0
 3 S  s               0.0       6.2       0.0       0.8       4.4       5.9
 3 S  pz              0.8       0.3      86.2       0.0       0.1       0.0
 3 S  px              0.0      15.4       0.0      14.6       1.1      19.1
 3 S  py              0.0      36.3       0.7       1.5       7.1       1.5
 3 S  dz2             0.0       0.5       0.0       0.2       2.7       0.9
 3 S  dxz             0.0       0.0       0.3       0.1       0.0       0.0
 3 S  dyz             0.1       0.0       0.0       0.0       0.1       0.0
 3 S  dx2y2           0.0       0.1       0.0       5.4       0.9       6.0
 3 S  dxy             0.0       0.0       0.0       8.7       1.6       4.2
 3 S  f+1             0.0       0.0       0.0       0.2       0.0       0.1
 3 S  f+3             0.0       0.1       0.0       0.1       0.1       0.1
 3 S  f-3             0.0       0.0       0.0       0.1       0.0       0.4
 4 H  s               7.0       0.1       0.0       2.8       8.9       3.3
 4 H  pz              0.0       0.0       0.0       0.3       1.0       0.4
 4 H  py              0.1       0.0       0.0       0.0       0.2       0.0
 5 H  s               0.0       0.5       0.0       2.1       9.1       0.6
 5 H  pz              0.2       0.0       0.0       0.0       0.0       0.0
 5 H  px              0.0       0.0       0.0       0.1       0.4       0.1
 5 H  py              0.0       0.0       0.0       0.3       0.8       0.0
 6 H  s               7.1       0.1       0.0       2.8       8.9       3.3
 6 H  pz              0.0       0.0       0.0       0.3       0.8       0.4
 6 H  py              0.1       0.0       0.0       0.1       0.4       0.0
 7 H  s              12.3       0.8       0.1       4.7       1.5       1.3
 7 H  pz              0.0       0.0       0.0       0.4       0.2       0.2
 7 H  py              0.2       0.0       0.0       0.1       0.0       0.0
 8 H  s              12.2       0.8       0.1       4.7       1.5       1.3
 8 H  pz              0.0       0.0       0.0       0.4       0.2       0.2
 8 H  py              0.2       0.0       0.0       0.0       0.0       0.0
 9 H  s               3.1       2.7       2.2       8.1       0.2       3.1
 9 H  pz              0.0       0.1       0.0       0.7       0.1       0.4
 9 H  px              0.0       0.2       0.0       0.2       0.1       0.4
 9 H  py              0.0       0.0       0.0       0.2       0.0       0.1
10 H  s               3.2       2.7       2.2       8.1       0.2       3.1
10 H  pz              0.0       0.1       0.0       0.6       0.1       0.5
10 H  px              0.0       0.1       0.0       0.2       0.1       0.4
10 H  py              0.0       0.0       0.0       0.3       0.0       0.0
11 H  s               0.0       1.8       0.0      10.9      22.5       8.3
11 H  pz              0.0       0.0       1.0       0.0       0.0       0.0
11 H  px              0.0       0.3       0.0       0.1       0.9       1.2
11 H  py              0.0       0.1       0.0       1.7       2.6       0.1

                     24        25        26        27        28        29   
                   0.15582   0.15869   0.16917   0.19995   0.20323   0.21805
                   0.00000   0.00000   0.00000   0.00000   0.00000   0.00000
                  --------  --------  --------  --------  --------  --------
 0 C  s               0.1       0.0       3.6       0.0       0.2       0.0
 0 C  pz              0.1       7.0       0.0       4.0       0.1       8.0
 0 C  px              0.7       0.0      10.4       0.0       1.3       0.0
 0 C  py              5.6       0.1       0.9       0.0       8.2       0.1
 0 C  dz2             0.0       0.0       1.1       0.0       3.6       0.2
 0 C  dxz             0.0       0.2       0.0       4.7       0.0       0.1
 0 C  dyz             0.0       1.1       0.0       1.3       0.1       6.7
 0 C  dx2y2           0.2       0.0       0.0       0.0       0.0       0.0
 0 C  dxy             1.5       0.0       0.2       0.0       1.1       0.0
 1 C  s               4.6       0.0       2.0       0.0       0.6       0.0
 1 C  pz              0.1       5.4       0.0       9.2       0.0       0.0
 1 C  px              0.1       0.0       0.6       0.0       0.4       0.0
 1 C  py              7.5       0.1       1.7       0.1       0.3       0.0
 1 C  dz2             0.0       0.1       1.1       0.0       0.0       0.0
 1 C  dxz             0.0       0.0       0.0       0.3       0.0       5.0
 1 C  dyz             0.0       2.9       0.1       1.6       0.0       0.3
 1 C  dx2y2           0.4       0.0       0.5       0.0       0.2       0.0
 1 C  dxy             0.0       0.0       0.4       0.0       1.6       0.0
 1 C  f-1             0.1       0.0       0.0       0.0       0.0       0.0
 1 C  f+3             0.0       0.0       0.0       0.0       0.2       0.0
 2 C  s               3.2       0.0       2.8       0.0       1.5       0.0
 2 C  pz              0.0       9.2       0.0       2.4       0.0       3.5
 2 C  px              0.0       0.0       0.5       0.0       2.2       0.0
 2 C  py              4.8       0.1       1.7       0.0       3.8       0.0
 2 C  dz2             0.0       0.1       2.0       0.0       0.0       0.1
 2 C  dxz             0.0       0.0       0.0       2.6       0.0       0.0
 2 C  dyz             0.0       2.9       0.1       0.0       0.0       4.0
 2 C  dx2y2           0.5       0.0       0.2       0.0       0.0       0.0
 2 C  dxy             0.3       0.0       0.0       0.0       1.3       0.0
 2 C  f-1             0.1       0.0       0.0       0.0       0.0       0.0
 3 S  s               1.0       0.0       0.3       0.0       0.1       0.0
 3 S  pz              0.0       1.3       0.0       0.4       0.0       0.9
 3 S  px              0.4       0.0       1.3       0.0       1.5       0.0
 3 S  py              1.8       0.0       3.2       0.0       0.2       0.0
 3 S  dz2             0.3       0.0       4.0       0.0       0.6       0.0
 3 S  dxz             0.0       0.9       0.0       4.3       0.0       2.8
 3 S  dyz             0.0       0.1       0.1       0.1       0.0       0.7
 3 S  dx2y2           0.0       0.0       0.2       0.0       0.1       0.0
 3 S  dxy             0.1       0.0       0.0       0.0       2.3       0.0
 4 H  s               2.5       9.0       4.9       2.4       8.7      20.2
 4 H  pz              0.2       0.3       0.4       0.0       1.2       0.9
 4 H  px              0.1       0.0       0.0       0.1       0.3       0.2
 4 H  py              0.0       0.5       0.4       0.2       0.1       1.2
 5 H  s               4.2       0.0      18.3       0.0      27.5       0.0
 5 H  pz              0.0       0.2       0.0       0.5       0.0       0.9
 5 H  px              0.1       0.0       0.8       0.0       1.7       0.0
 5 H  py              0.2       0.0       1.0       0.0       0.8       0.0
 6 H  s               2.4       9.0       5.0       2.3       9.0      20.2
 6 H  pz              0.2       0.2       0.2       0.0       1.3       0.5
 6 H  px              0.1       0.0       0.0       0.1       0.3       0.2
 6 H  py              0.0       0.6       0.5       0.2       0.0       1.5
 7 H  s              16.2       7.5       3.9      22.0       0.3       0.1
 7 H  pz              1.2       0.2       0.6       0.4       0.1       0.0
 7 H  px              0.0       0.0       0.1       0.1       0.0       0.2
 7 H  py              0.7       0.7       0.0       1.4       0.0       0.0
 8 H  s              16.4       7.3       3.9      22.1       0.2       0.1
 8 H  pz              1.5       0.3       0.6       0.7       0.1       0.0
 8 H  px              0.0       0.0       0.1       0.1       0.0       0.2
 8 H  py              0.4       0.5       0.0       1.1       0.0       0.0
 9 H  s               8.2      14.2       4.7       6.7       6.3       8.9
 9 H  pz              0.9       0.5       0.9       0.2       0.6       0.5
 9 H  px              0.0       0.1       0.0       0.2       0.2       0.0
 9 H  py              0.3       0.9       0.0       0.2       0.1       0.8
10 H  s               8.0      14.5       4.7       6.9       6.2       8.9
10 H  pz              0.7       0.3       0.8       0.1       0.4       0.2
10 H  px              0.0       0.1       0.0       0.2       0.2       0.0
10 H  py              0.5       1.1       0.1       0.3       0.3       1.0
11 H  s               0.9       0.0       6.9       0.0       2.1       0.0
11 H  pz              0.0       0.0       0.0       0.1       0.0       0.1
11 H  px              0.1       0.0       0.3       0.0       0.1       0.0
11 H  py              0.0       0.0       1.0       0.0       0.0       0.0

                     30        31        32        33        34        35   
                   0.22250   0.26125   0.28004   0.30534   0.30974   0.32137
                   0.00000   0.00000   0.00000   0.00000   0.00000   0.00000
                  --------  --------  --------  --------  --------  --------
 0 C  s               0.2       0.1       0.4       0.7       0.0       0.3
 0 C  pz              0.0       0.0       0.2       0.1      51.9       0.0
 0 C  px             20.4       2.7       6.1       9.8       0.0       7.6
 0 C  py              0.4       1.4      24.7       6.7       0.5       4.6
 0 C  dz2             0.0       2.1       6.9       1.1       0.2       0.1
 0 C  dxz             0.0       0.0       0.0       0.0       0.6       0.0
 0 C  dyz             0.1       0.0       0.1       0.0       7.4       0.0
 0 C  dx2y2           8.8       0.1       0.3       0.8       0.1       0.9
 0 C  dxy             1.9       1.3       1.8       0.0       0.0       3.9
 0 C  f+2             0.0       0.0       0.0       0.0       0.1       0.0
 1 C  s               1.7       0.0       0.4       0.2       0.0       0.7
 1 C  pz              0.1       0.0       0.2       0.0       1.2       0.0
 1 C  px              0.9       6.1       1.8      17.8       0.0       5.6
 1 C  py             12.0       2.2      20.0       1.7       0.0       2.1
 1 C  dz2             7.3       0.1       2.3       0.0       0.0       0.1
 1 C  dxz             0.0       0.0       0.0       0.0       1.6       0.0
 1 C  dyz             0.2       0.0       0.1       0.0       0.1       0.0
 1 C  dx2y2           0.2       1.2       0.6       1.8       0.0       0.1
 1 C  dxy             0.2       3.1       1.2       4.6       0.0       2.2
 1 C  f+1             0.0       0.0       0.0       0.1       0.0       0.1
 1 C  f-3             0.1       0.0       0.0       0.0       0.0       0.2
 2 C  s               0.6       0.5       0.8       0.2       0.0       6.6
 2 C  pz              0.0       0.2       0.0       0.1       7.1       0.1
 2 C  px             13.3       3.0       0.3       4.3       0.0       1.2
 2 C  py              2.9      23.3       4.5       8.0       0.1       6.1
 2 C  dz2             0.0       6.7       0.4       2.3       0.0       0.5
 2 C  dxz             0.1       0.0       0.0       0.0       0.5       0.0
 2 C  dyz             0.0       0.2       0.0       0.0       1.0       0.0
 2 C  dx2y2           0.2       1.0       0.5       0.6       0.0       1.2
 2 C  dxy             7.1       4.2       0.1       0.7       0.0       0.1
 2 C  f+3             0.0       0.0       0.0       0.0       0.0       0.1
 3 S  s               0.2       0.1       0.1       0.9       0.0       2.4
 3 S  pz              0.0       0.1       0.0       0.0       2.5       0.1
 3 S  px              1.2       4.2       1.2       0.8       0.0      12.2
 3 S  py              0.0       6.5       2.5       5.0       0.0      13.0
 3 S  dz2             1.1       8.1       0.6       3.3       0.0       7.0
 3 S  dxz             0.0       0.0       0.0       0.0       4.9       0.0
 3 S  dyz             0.0       0.3       0.0       0.0       0.4       0.1
 3 S  dx2y2           5.8       1.6       0.1       1.6       0.0       0.9
 3 S  dxy             1.7       1.1       1.3       5.7       0.0       1.6
 3 S  f+1             0.0       0.1       0.0       0.0       0.0       0.0
 3 S  f+3             0.1       0.0       0.0       0.1       0.0       0.4
 3 S  f-3             0.0       0.0       0.0       0.0       0.0       0.1
 4 H  s               0.1       1.3       0.8       0.7       5.7       1.3
 4 H  pz              0.0       0.2       0.3       0.1       0.2       0.2
 4 H  px              0.5       0.1       0.5       0.0       0.0       0.1
 4 H  py              0.1       0.0       0.2       0.0       0.1       0.2
 5 H  s               0.7       0.6       4.9       1.3       0.0       3.2
 5 H  pz              0.0       0.0       0.0       0.0       0.9       0.0
 5 H  px              0.4       0.1       0.2       0.4       0.0       0.0
 5 H  py              0.6       0.0       0.9       0.0       0.0       0.2
 6 H  s               0.1       1.3       0.8       0.6       5.7       1.3
 6 H  pz              0.0       0.3       0.4       0.1       0.3       0.2
 6 H  px              0.5       0.1       0.5       0.0       0.0       0.1
 6 H  py              0.1       0.0       0.1       0.0       0.0       0.2
 7 H  s               1.5       0.8       2.8       0.0       1.1       0.9
 7 H  pz              0.6       0.0       0.0       0.0       0.1       0.1
 7 H  px              0.0       0.4       0.1       0.8       0.6       0.5
 7 H  py              0.3       0.0       0.5       0.0       0.1       0.1
 8 H  s               1.6       0.8       2.8       0.0       1.1       0.9
 8 H  pz              0.4       0.0       0.0       0.0       0.1       0.1
 8 H  px              0.0       0.4       0.1       0.8       0.6       0.5
 8 H  py              0.4       0.0       0.5       0.0       0.1       0.1
 9 H  s               0.5       0.8       1.2       0.8       1.3       1.0
 9 H  pz              0.0       0.3       0.0       0.2       0.0       0.2
 9 H  px              0.3       0.2       0.0       0.0       0.1       0.0
 9 H  py              0.0       0.6       0.0       0.0       0.0       0.0
10 H  s               0.5       0.8       1.2       0.8       1.3       1.0
10 H  pz              0.0       0.4       0.0       0.2       0.0       0.1
10 H  px              0.3       0.2       0.0       0.0       0.1       0.0
10 H  py              0.0       0.4       0.0       0.0       0.0       0.0
11 H  s               0.5       6.8       0.9      12.4       0.0       4.8
11 H  pz              0.0       0.0       0.0       0.0       0.2       0.0
11 H  px              0.6       0.9       0.0       0.3       0.0       0.3
11 H  py              0.2       0.1       0.1       0.5       0.0       0.0

                     36        37        38        39        40        41   
                   0.34958   0.35943   0.37735   0.37752   0.40095   0.41298
                   0.00000   0.00000   0.00000   0.00000   0.00000   0.00000
                  --------  --------  --------  --------  --------  --------
 0 C  s               0.7       0.0       1.2       0.0       3.8       0.0
 0 C  pz              0.0       5.4       0.0       1.0       0.1       3.0
 0 C  px              0.8       0.0       6.8       0.1       5.1       0.0
 0 C  py              1.2       0.0       2.0       0.0      16.7       0.0
 0 C  dz2             0.4       0.1       1.4       0.0       2.5       0.0
 0 C  dxz             0.0       1.5       0.0       3.7       0.0       1.2
[...]
 4 H  py              0.3       0.0       0.0       0.2       0.1       0.7
 5 H  s               0.5       0.0      13.3       0.0       0.0       3.1
 5 H  pz              0.0       0.5       0.0       0.2       0.0       0.0
 5 H  px              0.7       0.0       1.5       0.0       0.0       0.2
 5 H  py              0.0       0.0       1.5       0.0       0.0       0.8
 6 H  s               2.1       4.2       1.2       6.3       0.1       5.0
 6 H  pz              0.1       1.1       0.1       1.6       0.0       0.2
 6 H  px              0.0       0.0       0.2       0.1       0.2       0.0
 6 H  py              0.3       0.2       0.0       0.4       0.1       0.8
 7 H  s               5.0       1.4       0.1       0.1       8.4       0.7
 7 H  pz              0.0       0.3       0.0       0.0       1.8       0.1
 7 H  px              0.1       0.0       0.0       0.3       0.0       0.2
 7 H  py              0.4       0.2       0.0       0.0       0.8       0.1
 8 H  s               5.5       0.9       0.1       0.1       8.5       0.6
 8 H  pz              0.1       0.2       0.0       0.0       2.3       0.1
 8 H  px              0.1       0.0       0.0       0.3       0.0       0.2
 8 H  py              0.3       0.3       0.0       0.0       0.4       0.1
 9 H  s               1.4       5.4       3.7       3.1       1.1       0.5
 9 H  pz              0.1       1.9       0.4       1.0       0.3       0.0
 9 H  px              0.1       0.1       0.1       0.0       0.0       0.0
 9 H  py              0.1       0.0       0.5       0.0       0.4       0.0
10 H  s               0.9       5.9       3.7       3.0       1.1       0.5
10 H  pz              0.0       1.8       0.3       0.9       0.2       0.0
10 H  px              0.1       0.1       0.1       0.0       0.0       0.0
10 H  py              0.1       0.2       0.6       0.1       0.5       0.0

                    168       169       170       171       172       173   
                   4.72040   4.88763   4.95103   8.99187   9.08803   9.40282
                   0.00000   0.00000   0.00000   0.00000   0.00000   0.00000
                  --------  --------  --------  --------  --------  --------
 0 C  s               2.9       1.4      15.2       0.0       0.0       0.1
 0 C  px              0.3       2.1       5.6       0.0       0.0       0.0
 0 C  py              0.0       0.1       1.0       0.0       0.0       0.0
 0 C  dz2             0.1       1.7       1.8       0.0       0.0       0.0
 0 C  dx2y2           0.3       2.8       3.2       0.0       0.0       0.0
 0 C  dxy             0.4       2.0       2.3       0.0       0.0       0.0
 0 C  f0              0.2       0.0       0.2       0.0       0.0       0.0
 0 C  f+1             0.2       0.1       2.4       0.0       0.0       0.0
 0 C  f-1             3.2       0.1       2.6       0.0       0.0       0.0
 0 C  f+3             2.4       0.0       3.6       0.0       0.0       0.0
 0 C  f-3             3.0       0.7       4.2       0.0       0.0       0.0
 1 C  s               2.9      21.7       0.9       0.0       0.0       0.1
 1 C  px              0.1       0.2      13.3       0.0       0.0       0.0
 1 C  py              2.5       4.3       0.1       0.0       0.0       0.0
 1 C  dz2             4.7       3.6       0.2       0.0       0.0       0.0
 1 C  dxz             0.0       0.0       0.1       0.0       0.0       0.0
 1 C  dx2y2           3.8       1.0       4.4       0.0       0.0       0.0
 1 C  dxy             1.2       2.8      13.3       0.0       0.0       0.0
 1 C  f0              0.6       0.4       0.0       0.0       0.0       0.0
 1 C  f+1             2.4       0.1       3.0       0.0       0.0       0.0
 1 C  f-1            10.1       7.0       0.0       0.0       0.0       0.0
 1 C  f+2             0.3       0.0       0.0       0.0       0.0       0.0
 1 C  f+3             3.1       6.8       0.0       0.0       0.0       0.0
 1 C  f-3             0.4       8.0       2.0       0.0       0.0       0.0
 2 C  s               7.5       5.8       5.7       0.0       0.0       0.3
 2 C  px              0.3       3.4       1.5       0.0       0.0       0.2
 2 C  py              0.4       3.2       1.8       0.0       0.0       0.0
 2 C  dz2             1.3       3.0       0.5       0.0       0.0       0.0
 2 C  dx2y2           2.6       0.0       0.0       0.0       0.0       0.0
 2 C  dxy             0.2       9.5       2.3       0.0       0.0       0.0
 2 C  f0              0.8       0.0       0.1       0.0       0.0       0.0
 2 C  f+1             0.3       0.6       0.6       0.0       0.0       0.0
 2 C  f-1            14.0       1.0       1.9       0.0       0.0       0.0
 2 C  f+2             0.3       0.0       0.0       0.0       0.0       0.0
 2 C  f+3             4.2       2.2       0.7       0.0       0.0       0.0
 2 C  f-3             0.0       0.7       2.1       0.0       0.0       0.0
 3 S  s               0.0       0.1       0.1       0.0       0.0       0.5
 3 S  pz              0.0       0.0       0.0      99.1       0.7       0.1
 3 S  px              0.0       0.2       0.3       0.0       9.1      89.5
 3 S  py              0.0       0.1       0.0       0.8      89.9       8.8
 4 H  s               0.7       0.0       0.5       0.0       0.0       0.0
 5 H  s               2.2       0.1       1.0       0.0       0.0       0.0
 5 H  px              0.0       0.1       0.1       0.0       0.0       0.0
 5 H  py              0.3       0.0       0.0       0.0       0.0       0.0
 6 H  s               0.7       0.0       0.5       0.0       0.0       0.0
 7 H  s               3.7       0.8       0.0       0.0       0.0       0.0
 7 H  pz              0.4       0.0       0.0       0.0       0.0       0.0
 7 H  py              0.6       0.0       0.0       0.0       0.0       0.0
 8 H  s               3.7       0.8       0.0       0.0       0.0       0.0
 8 H  pz              0.6       0.0       0.0       0.0       0.0       0.0
 8 H  py              0.5       0.0       0.0       0.0       0.0       0.0
 9 H  s               4.1       0.1       0.1       0.0       0.0       0.0
 9 H  pz              0.3       0.1       0.0       0.0       0.0       0.0
 9 H  py              0.3       0.0       0.0       0.0       0.0       0.0
10 H  s               4.1       0.1       0.1       0.0       0.0       0.0
10 H  pz              0.2       0.1       0.0       0.0       0.0       0.0
10 H  py              0.5       0.0       0.0       0.0       0.0       0.0

                    174       175       176       177   
                  19.18091  22.31374  22.42391  22.51043
                   0.00000   0.00000   0.00000   0.00000
                  --------  --------  --------  --------
 0 C  s               0.0      20.9      76.8       1.1
 1 C  s               0.1       5.8       0.0      93.1
 1 C  px              0.0       0.0       0.1       0.0
 2 C  s               1.0      71.8      21.7       4.7
 2 C  px              0.3       0.0       0.0       0.1
 3 S  s              97.5       0.3       0.2       0.1
 3 S  py              0.3       0.0       0.0       0.0
 4 H  s               0.0       0.0       0.1       0.0
 5 H  s               0.0       0.1       0.1       0.0
 6 H  s               0.0       0.0       0.1       0.0
 7 H  s               0.0       0.0       0.0       0.2
 8 H  s               0.0       0.0       0.0       0.2
 9 H  s               0.0       0.2       0.1       0.0
10 H  s               0.0       0.2       0.1       0.0
11 H  s               0.2       0.0       0.0       0.0


                      *****************************
                      * MAYER POPULATION ANALYSIS *
                      *****************************

  NA   - Mulliken gross atomic population
  ZA   - Total nuclear charge
  QA   - Mulliken gross atomic charge
  VA   - Mayer's total valence
  BVA  - Mayer's bonded valence
  FA   - Mayer's free valence

  ATOM       NA         ZA         QA         VA         BVA        FA
  0 C      6.3431     6.0000    -0.3431     3.9290     3.9290     0.0000
  1 C      6.1675     6.0000    -0.1675     3.8682     3.8682     0.0000
  2 C      6.1698     6.0000    -0.1698     3.9976     3.9976    -0.0000
  3 S     16.2168    16.0000    -0.2168     2.0747     2.0747     0.0000
  4 H      0.8926     1.0000     0.1074     0.9730     0.9730     0.0000
  5 H      0.8807     1.0000     0.1193     0.9730     0.9730     0.0000
  6 H      0.8925     1.0000     0.1075     0.9730     0.9730    -0.0000
  7 H      0.8968     1.0000     0.1032     0.9760     0.9760    -0.0000
  8 H      0.8968     1.0000     0.1032     0.9759     0.9759    -0.0000
  9 H      0.8881     1.0000     0.1119     0.9661     0.9661    -0.0000
 10 H      0.8881     1.0000     0.1119     0.9662     0.9662    -0.0000
 11 H      0.8672     1.0000     0.1328     0.9756     0.9756    -0.0000

  Mayer bond orders larger than 0.100000
B(  0-C ,  1-C ) :   0.9780 B(  0-C ,  4-H ) :   0.9786 B(  0-C ,  5-H ) :   0.9817 
B(  0-C ,  6-H ) :   0.9787 B(  1-C ,  2-C ) :   0.9945 B(  1-C ,  7-H ) :   0.9704 
B(  1-C ,  8-H ) :   0.9703 B(  2-C ,  3-S ) :   1.0813 B(  2-C ,  9-H ) :   0.9669 
B(  2-C , 10-H ) :   0.9669 B(  3-S , 11-H ) :   0.9741 

-------
TIMINGS
-------

Total SCF time: 0 days 0 hours 0 min 28 sec 

Total time                  ....      28.341 sec
Sum of individual times     ....      27.621 sec  ( 97.5%)

SCF preparation             ....       0.044 sec  (  0.2%)
Fock matrix formation       ....      27.393 sec  ( 96.7%)
  Startup                   ....       0.002 sec  (  0.0% of F)
  Split-RI-J                ....       0.869 sec  (  3.2% of F)
  Chain of spheres X        ....      23.811 sec  ( 86.9% of F)
  XC integration            ....       3.376 sec  ( 12.3% of F)
    Basis function eval.    ....       0.931 sec  ( 27.6% of XC)
    Density eval.           ....       0.640 sec  ( 19.0% of XC)
    XC-Functional eval.     ....       0.944 sec  ( 28.0% of XC)
    XC-Potential eval.      ....       0.793 sec  ( 23.5% of XC)
Diagonalization             ....       0.000 sec  (  0.0%)
Density matrix formation    ....       0.010 sec  (  0.0%)
Total Energy calculation    ....       0.002 sec  (  0.0%)
Population analysis         ....       0.069 sec  (  0.2%)
Orbital Transformation      ....       0.008 sec  (  0.0%)
Orbital Orthonormalization  ....       0.000 sec  (  0.0%)
DIIS solution               ....       0.026 sec  (  0.1%)
  MO trafo                  ....       0.000 sec  (  0.0 % of DIIS)
  Orb grad                  ....       0.000 sec  (  0.0 % of DIIS)
  Energy W gradient         ....       0.000 sec  (  0.0 % of DIIS)
  DIIS error                ....       0.003 sec  ( 10.7 % of DIIS)
  DIIS work                 ....       0.019 sec  ( 73.6 % of DIIS)
  Form Q                    ....       0.000 sec  (  0.0 % of DIIS)
  Form QpQm                 ....       0.000 sec  (  0.0 % of DIIS)
  Exp/Cayley                ....       0.000 sec  (  0.0 % of DIIS)
  Orb update                ....       0.000 sec  (  0.0 % of DIIS)
  Wake-sleep                ....       0.000 sec  (  1.3 % of DIIS)
SOSCF solution              ....       0.012 sec  (  0.0%)
  MO trafo                  ....       0.007 sec  ( 54.5 % of SOSCF)
  Orb grad                  ....       0.000 sec  (  1.1 % of SOSCF)
  Rot update                ....       0.001 sec  (  4.1 % of SOSCF)
  Step                      ....       0.005 sec  ( 40.0 % of SOSCF)
Grid generation             ....       0.057 sec  (  0.2%)
Finished LeanSCF after  28.3 sec

Maximum memory used throughout the entire LEANSCF-calculation: 19.9 MB
------------------   -----------------
gCP correction             0.008231109
------------------   -----------------

-------------------------   --------------------
FINAL SINGLE POINT ENERGY      -517.280215267419
-------------------------   --------------------


------------------------------------------------------------------------------
                              ORCA PROPERTY CALCULATIONS
------------------------------------------------------------------------------

GBWName                                 ... sp.gbw
Number of atoms                         ...     12
Number of basis functions               ...    178
Max core memory                         ...   1024 MB

Electric properties:
Dipole moment                           ... YES
Quadrupole moment                       ...  NO
Static polarizability (Dipole/Dipole)   ...  NO
Static polarizability (Dipole/Quad.)    ...  NO
Static polarizability (Quad./Quad.)     ...  NO
Static polarizability (Velocity)        ...  NO

Atomic electric properties:
Dipole moment                           ...  NO
Quadrupole moment                       ...  NO
Static polarizability                   ...  NO

Choice of electric origin               ... Center of mass
Position of electric origin             ...     0.013310    -0.002898     0.001312

General magnetic properties:
Magnetizability                         ...  NO

EPR properties:
g-Tensor (aka g-matrix)                 ...  NO
Zero-Field splitting spin-orbit         ...  NO
Zero-field splitting spin-spin          ...  NO
Hyperfine couplings                     ...  NO (   0 nuclei)
Quadrupole couplings                    ...  NO (   0 nuclei)
Contact density                         ...  NO (   0 nuclei)

NMR properties:
Chemical shifts                         ...  NO (   0 nuclei)
Spin-rotation constants                 ...  NO (   0 nuclei)
Spin-spin couplings                     ...  NO (   0 nuclei,    0 pairs)

Choice of magnetic origin               ... GIAO
Position of magnetic origin             ...     0.000000     0.000000     0.000000

Properties with geometric perturbations:
SCF Hessian                             ...  NO
IR spectrum                             ...  NO
VCD spectrum                            ...  NO
X-ray spectroscopy properties:
SCF XES/XAS/RIXS spectra                ...  NO


-------------
DIPOLE MOMENT
-------------

Method             : SCF
Type of density    : Electron Density
Multiplicity       :   1
Irrep              :   0
Energy             :  -517.2884463766191629 Eh
Relativity type    : 
Basis              : AO
                                X                 Y                 Z
Electronic contribution:      7.592075958      -1.218126488       0.163342185
Nuclear contribution   :     -8.077936092       1.664520034      -0.207667641
                        -----------------------------------------
Total Dipole Moment    :     -0.485860134       0.446393546      -0.044325456
                        -----------------------------------------
Magnitude (a.u.)       :      0.661280586
Magnitude (Debye)      :      1.680841671



--------------------
Rotational spectrum 
--------------------
 
Rotational constants in cm-1:             0.797548             0.078839             0.074762 
Rotational constants in MHz :         23909.899849          2363.542105          2241.301014 

Dipole components along the rotational axes: 
x,y,z [a.u.] :     0.480222     0.454620     0.000280 
x,y,z [Debye]:     1.220626     1.155552     0.000712 

 

Dipole moment calculation done in   0.0 sec 

Maximum memory used throughout the entire PROP-calculation: 11.6 MB

--------------------------------
SUGGESTED CITATIONS FOR THIS RUN
--------------------------------

Below you find a list of papers that are relevant to this ORCA run
We neither can nor want to force you to cite these papers, but we appreciate if you do
You receive ORCA, which is the product of decades of hard work by many enthusiastic individuals, for free
The only thing we kindly ask in return is that you cite our papers,
We deeply appreciate it, if you show your appreciation for ORCA by not just citing the generic ORCA reference.

Please note that relegating all ORCA citations to the supporting information does *not* help us.
SI sections are not indexed - citations you put there will not count into any citation statistics
But we need these citations in order to attract the funding resources that allow us to do what we are doing

Therefore, if you are a happy ORCA user, please consider citing a few of the papers listed below in the main body of your paper

In addition to the list printed below, the program has created the file sp.bibtex that contains the list in bibtex format
You can import this file easily into all common literature databanks and citation aid programs


List of essential papers. We consider these as the minimum necessary citations

  1. Neese,F.
     Software update: the ORCA program system, version 5.0
     WIRES Comput. Molec. Sci., 2022 12(1)e1606
     doi.org/10.1002/wcms.1606

List of papers to cite with high priority. The work reported in these papers was absolutely
necessary for this run to complete.
Our perspective: the developers of density functionals and basis sets usually get cited in chemistry papers
Good! But without the algorithms to do something with them, the functionals or basis sets would not do anything.
Hence, in our opinion, the algorithm design and method developments papers are equally worthy of getting cited

  1. Neese,F.
     An improvement of the resolution of the identity approximation for the formation of the Coulomb matrix
     J. Comp. Chem., 2003 24(14)1740-1747
     doi.org/10.1002/jcc.10318
  2. Neese,F.; Wennmohs,F.; Hansen,A.; Becker,U.
     Efficient, approximate and parallel Hartree-Fock and hybrid DFT calculations. A 'chain-of-spheres' algorithm for the Hartree-Fock exchange
     Chem. Phys., 2009 356(1-3)98-109
     doi.org/10.1016/j.chemphys.2008.10.036
  3. Helmich-Paris,B.; de Souza,B.; Neese,F.; Izsák,R.
     An improved chain of spheres for exchange algorithm
     J. Chem. Phys., 2021 155 104109
     doi.org/doi: 10.1063/5.0058766.
  4. Neese,F.
     The SHARK Integral Generation and Digestion System
     J. Comp. Chem., 2022  1-16
     doi.org/10.1002/jcc.26942

List of suggested additional citations. These are papers that are important in the 'surrounding' of 
of this run, or papers that preceded the highly important papers. If you like your results we are grateful for a citation.

  1. Izsak,R.; Neese,F.
     An overlap fitted chain of spheres exchange method
     J. Chem. Phys., 2011 135 144105
     doi.org/10.1063/1.3646921
  2. Izsak,R.; Hansen,A.; Neese,F.
     The resolution of identity and chain of spheres approximations for the LPNO-CCSD singles Fock term
     Molec. Phys., 2012 110 2413-2417
     doi.org/10.1080/00268976.2012.687466
  3. Neese,F.
     The ORCA program system
     WIRES Comput. Molec. Sci., 2012 2(1)73-78
     doi.org/10.1002/wcms.81
  4. Izsak,R.; Neese,F.; Klopper,W.
     Robust fitting techniques in the chain of spheres approximation to the Fock exchange: The role of the complementary space
     J. Chem. Phys., 2013 139 
     doi.org/10.1063/1.4819264
  5. Neese,F.
     Software update: the ORCA program system, version 4.0
     WIRES Comput. Molec. Sci., 2018 8(1)1-6
     doi.org/10.1002/wcms.1327
  6. Neese,F.; Wennmohs,F.; Becker,U.; Riplinger,C.
     The ORCA quantum chemistry program package
     J. Chem. Phys., 2020 152 Art. No. L224108
     doi.org/10.1063/5.0004608

List of optional additional citations

  1. Neese,F.
     Approximate second-order SCF convergence for spin unrestricted wavefunctions
     Chem. Phys. Lett., 2000 325(1-3)93-98
     doi.org/10.1016/s0009-2614(00)00662-x

Timings for individual modules:

Sum of individual times          ...       29.052 sec (=   0.484 min)
Startup calculation              ...        0.602 sec (=   0.010 min)   2.1 %
SCF iterations                   ...       28.412 sec (=   0.474 min)  97.8 %
Property calculations            ...        0.038 sec (=   0.001 min)   0.1 %
                             ****ORCA TERMINATED NORMALLY****
TOTAL RUN TIME: 0 days 0 hours 0 minutes 29 seconds 104 msec
