9
 energy: -154.994222387971 gnorm: 0.020035699967 xtb: 6.7.1 (41059b4)
C            1.26418540336019       -0.29090986022891        0.00378122380168
C            0.00156947430070        0.57219093525355       -0.04957403382197
O           -1.12170785439706       -0.28220083762505        0.04343975401925
H            1.85532027972214       -0.18535104368213       -0.90076646019915
H            1.88370902973472       -0.03513731121557        0.85792356418017
H            0.95783606332444       -1.32925168418903        0.09743038784317
H           -0.03880638171720        1.14021336670526       -0.98977946823860
H           -0.00884490420392        1.29348107987318        0.77982093094556
H           -1.92704838565393        0.24371410100800        0.01151494940510
9
 energy: -154.994595145718 gnorm: 0.008027967231 xtb: 6.7.1 (41059b4)
C            1.26136027316675       -0.28907633841222        0.00373861191386
C           -0.00286701813052        0.57541296369349       -0.04976903943214
O           -1.13273532232013       -0.28985787517522        0.04438082666442
H            1.86064344533315       -0.18790865854912       -0.90213537757186
H            1.88919488490699       -0.03793807123738        0.85978070531299
H            0.96469073712178       -1.33523428906965        0.09768578695276
H           -0.03496867300186        1.14820660448431       -0.98901554172643
H           -0.00490944157511        1.30153166003706        0.77730467658027
H           -1.93419615129028        0.24161277851296        0.01182019355272
9
 energy: -154.994650008051 gnorm: 0.002797961030 xtb: 6.7.1 (41059b4)
C            1.26120252826026       -0.28855298793943        0.00371165199223
C           -0.00220728256085        0.57678945456576       -0.04991921458183
O           -1.13691960035212       -0.29277783764913        0.04494716686774
H            1.86361435587061       -0.18889035875917       -0.90264290772631
H            1.89193584680931       -0.03931600069943        0.86072070934978
H            0.96798247585988       -1.33756112138909        0.09751545695221
H           -0.03741216576702        1.14912587599209       -0.98947945520302
H           -0.00722014615961        1.30290594817785        0.77731281350191
H           -1.93476329005977        0.24502581083773        0.01162462168942
9
 energy: -154.994659069676 gnorm: 0.000904814159 xtb: 6.7.1 (41059b4)
C            1.26153253241500       -0.28816580576564        0.00367521194286
C           -0.00100505731678        0.57669238185871       -0.04998934923320
O           -1.13817628143533       -0.29397487295933        0.04536681377557
H            1.86430224434464       -0.18837815713455       -0.90253353013966
H            1.89218585878678       -0.03932620199338        0.86096911421636
H            0.96797257844313       -1.33711422759964        0.09708386962708
H           -0.03867100796976        1.14758116088679       -0.98995935006151
H           -0.00825101116242        1.30184459411426        0.77764649412758
H           -1.93367713840229        0.24758990759414        0.01153157902894
9
 energy: -154.994660473597 gnorm: 0.000505715386 xtb: 6.7.1 (41059b4)
C            1.26182939021605       -0.28797445875591        0.00366118828485
C           -0.00000365987345        0.57625482172629       -0.05010547835909
O           -1.13862458663466       -0.29466799270281        0.04611756742067
H            1.86461942734552       -0.18729586906367       -0.90191185873121
H            1.89148371922933       -0.03950121911289        0.86123419997226
H            0.96766250362342       -1.33636985906030        0.09611785711091
H           -0.03977393347889        1.14565822782820       -0.99041902841542
H           -0.00886841098928        1.30088790253940        0.77743759646725
H           -1.93211172614523        0.24975722487714        0.01165883703907
9
 energy: -154.994660473597 gnorm: 0.000505715386 xtb: 6.7.1 (41059b4)
C            1.26182939021605       -0.28797445875591        0.00366118828485
C           -0.00000365987345        0.57625482172629       -0.05010547835909
O           -1.13862458663466       -0.29466799270281        0.04611756742067
H            1.86461942734552       -0.18729586906367       -0.90191185873121
H            1.89148371922933       -0.03950121911289        0.86123419997226
H            0.96766250362342       -1.33636985906030        0.09611785711091
H           -0.03977393347889        1.14565822782820       -0.99041902841542
H           -0.00886841098928        1.30088790253940        0.77743759646725
H           -1.93211172614523        0.24975722487714        0.01165883703907
