 Entering Gaussian System
 *********************************************
 Gaussian 98:
 frequency output generated by the xtb code
 *********************************************
                         Standard orientation:
 --------------------------------------------------------------------
  Center     Atomic     Atomic              Coordinates (Angstroms)
  Number     Number      Type              X           Y           Z
 --------------------------------------------------------------------
    1          6             0       -0.486102    0.580369   -0.000178
    2          6             0        0.486155   -0.580447   -0.000123
    3         17             0        2.152290    0.056195   -0.000164
    4         17             0       -2.152237   -0.056274   -0.000130
    5          1             0       -0.371251    1.195136   -0.892808
    6          1             0       -0.371236    1.195233    0.892383
    7          1             0        0.371300   -1.195217    0.892505
    8          1             0        0.371291   -1.195309   -0.892686
 --------------------------------------------------------------------
     1 basis functions        1 primitive gaussians
     1 alpha electrons        1 beta electrons

 Harmonic frequencies (cm**-1), IR intensities (km*mol⁻¹),
 Raman scattering activities (A**4/amu), Raman depolarization ratios,
 reduced masses (AMU), force constants (mDyne/A) and normal coordinates:
                      1                      2                      3
                        a                      a                      a 
 Frequencies --    95.2713               201.3472               280.6564
 Red. masses --     4.0112                 5.2888                17.4781
 Frc consts  --     0.0000                 0.0000                 0.0000
 IR Inten    --     7.0038                 7.8206                 0.0000
 Raman Activ --     0.0000                 0.0000                 0.0000
 Depolar     --     0.0000                 0.0000                 0.0000
 Atom AN      X      Y      Z        X      Y      Z        X      Y      Z
   1   6     0.00   0.00   0.52     0.18  -0.51   0.00     0.16   0.10  -0.00
   2   6     0.00   0.00   0.52     0.18  -0.51   0.00    -0.16  -0.10   0.00
   3  17    -0.00  -0.00  -0.37    -0.14   0.35  -0.00    -0.67   0.04   0.00
   4  17    -0.00  -0.00  -0.37    -0.14   0.35  -0.00     0.67  -0.04  -0.00
   5   1     0.08   0.06   0.20     0.10  -0.15   0.00     0.08   0.02  -0.00
   6   1    -0.08  -0.06   0.20     0.10  -0.15  -0.00     0.08   0.02   0.00
   7   1     0.08   0.06   0.20     0.10  -0.15   0.00    -0.08  -0.02   0.00
   8   1    -0.08  -0.06   0.20     0.10  -0.15  -0.00    -0.08  -0.02  -0.00
                      4                      5                      6
                        a                      a                      a 
 Frequencies --   707.8110               753.8821               783.3482
 Red. masses --     8.2537                 5.1510                 1.1127
 Frc consts  --     0.0000                 0.0000                 0.0000
 IR Inten    --    29.9794                 0.0000                 2.5061
 Raman Activ --     0.0000                 0.0000                 0.0000
 Depolar     --     0.0000                 0.0000                 0.0000
 Atom AN      X      Y      Z        X      Y      Z        X      Y      Z
   1   6    -0.54  -0.20   0.00    -0.49  -0.34   0.00     0.00   0.00   0.22
   2   6    -0.54  -0.20   0.00     0.49   0.34  -0.00    -0.00   0.00   0.22
   3  17     0.35   0.13  -0.00    -0.23  -0.16   0.00     0.00  -0.00  -0.05
   4  17     0.35   0.13  -0.00     0.23   0.16  -0.00    -0.00  -0.00  -0.05
   5   1    -0.11  -0.05   0.00    -0.17  -0.06   0.01     0.03  -0.41  -0.23
   6   1    -0.11  -0.05  -0.00    -0.17  -0.06  -0.01    -0.03   0.41  -0.23
   7   1    -0.11  -0.05   0.00     0.17   0.06  -0.01     0.03  -0.41  -0.23
   8   1    -0.11  -0.05  -0.00     0.17   0.06   0.01    -0.03   0.41  -0.23
                      7                      8                      9
                        a                      a                      a 
 Frequencies --   977.2799              1061.3326              1089.4005
 Red. masses --     1.3758                 4.4998                 1.0459
 Frc consts  --     0.0000                 0.0000                 0.0000
 IR Inten    --     0.0000                 0.0000                 0.8410
 Raman Activ --     0.0000                 0.0000                 0.0000
 Depolar     --     0.0000                 0.0000                 0.0000
 Atom AN      X      Y      Z        X      Y      Z        X      Y      Z
   1   6    -0.00  -0.00  -0.37    -0.34   0.55  -0.00     0.00   0.00   0.12
   2   6     0.00   0.00   0.37     0.34  -0.55   0.00    -0.00   0.00   0.12
   3  17    -0.00  -0.00  -0.08    -0.01   0.01  -0.00    -0.00  -0.00  -0.07
   4  17     0.00   0.00   0.08     0.01  -0.01  -0.00    -0.00  -0.00  -0.07
   5   1     0.30   0.27   0.13    -0.11   0.16   0.00    -0.49   0.01  -0.02
   6   1    -0.30  -0.27   0.13    -0.11   0.16  -0.00     0.49  -0.01  -0.02
   7   1    -0.30  -0.27  -0.13     0.11  -0.16  -0.00    -0.49   0.01  -0.02
   8   1     0.30   0.27  -0.13     0.11  -0.16   0.00     0.49  -0.01  -0.02
                     10                     11                     12
                        a                      a                      a 
 Frequencies --  1202.5169              1222.2003              1256.1259
 Red. masses --     1.1569                 1.1675                 1.2407
 Frc consts  --     0.0000                 0.0000                 0.0000
 IR Inten    --    20.1261                 0.0000                 0.0000
 Raman Activ --     0.0000                 0.0000                 0.0000
 Depolar     --     0.0000                 0.0000                 0.0000
 Atom AN      X      Y      Z        X      Y      Z        X      Y      Z
   1   6    -0.24   0.10  -0.00    -0.00  -0.00  -0.27    -0.32  -0.01   0.00
   2   6    -0.24   0.10  -0.00     0.00   0.00   0.27     0.32   0.01  -0.00
   3  17    -0.02  -0.04   0.00     0.00   0.00   0.02     0.02   0.03  -0.00
   4  17    -0.02  -0.04   0.00    -0.00  -0.00  -0.02    -0.02  -0.03   0.00
   5   1     0.46  -0.05   0.01    -0.39   0.24   0.05     0.44  -0.02   0.04
   6   1     0.46  -0.05  -0.01     0.39  -0.24   0.05     0.44  -0.02  -0.04
   7   1     0.46  -0.05   0.01     0.39  -0.24  -0.05    -0.44   0.02  -0.04
   8   1     0.46  -0.05  -0.01    -0.39   0.24  -0.05    -0.44   0.02   0.04
                     13                     14                     15
                        a                      a                      a 
 Frequencies --  1431.7537              1443.6670              2982.2763
 Red. masses --     1.0980                 1.0918                 1.0985
 Frc consts  --     0.0000                 0.0000                 0.0000
 IR Inten    --     6.9696                 0.0000                 0.0000
 Raman Activ --     0.0000                 0.0000                 0.0000
 Depolar     --     0.0000                 0.0000                 0.0000
 Atom AN      X      Y      Z        X      Y      Z        X      Y      Z
   1   6    -0.02  -0.21   0.00     0.05  -0.20   0.00    -0.00  -0.00  -0.21
   2   6    -0.02  -0.21   0.00    -0.05   0.20  -0.00     0.00   0.00   0.21
   3  17    -0.01  -0.01   0.00     0.01   0.01  -0.00     0.00   0.00   0.00
   4  17    -0.01  -0.01   0.00    -0.01  -0.01   0.00    -0.00  -0.00  -0.00
   5   1     0.05   0.38   0.28     0.01   0.39   0.28    -0.05  -0.28   0.39
   6   1     0.05   0.38  -0.28     0.01   0.39  -0.28     0.05   0.28   0.39
   7   1     0.05   0.38   0.28    -0.01  -0.39  -0.28     0.05   0.28  -0.39
   8   1     0.05   0.38  -0.28    -0.01  -0.39   0.28    -0.05  -0.28  -0.39
                     16                     17                     18
                        a                      a                      a 
 Frequencies --  2983.8669              2994.1896              2996.5918
 Red. masses --     1.0460                 1.0501                 1.1076
 Frc consts  --     0.0000                 0.0000                 0.0000
 IR Inten    --     0.0000                 6.0862                 0.6347
 Raman Activ --     0.0000                 0.0000                 0.0000
 Depolar     --     0.0000                 0.0000                 0.0000
 Atom AN      X      Y      Z        X      Y      Z        X      Y      Z
   1   6    -0.02  -0.14   0.00     0.02   0.15  -0.00    -0.00  -0.00  -0.22
   2   6     0.02   0.14  -0.00     0.02   0.15  -0.00    -0.00  -0.00  -0.22
   3  17     0.00   0.00  -0.00     0.00   0.00  -0.00     0.00  -0.00  -0.00
   4  17    -0.00  -0.00   0.00     0.00   0.00  -0.00     0.00  -0.00  -0.00
   5   1     0.05   0.26  -0.41    -0.04  -0.26   0.41    -0.05  -0.27   0.38
   6   1     0.05   0.26   0.41    -0.04  -0.26  -0.41     0.05   0.27   0.38
   7   1    -0.05  -0.26   0.41    -0.04  -0.26   0.41    -0.05  -0.27   0.38
   8   1    -0.05  -0.26  -0.41    -0.04  -0.26  -0.41     0.05   0.27   0.38
