      -----------------------------------------------------------      
     |                   =====================                   |     
     |                           x T B                           |     
     |                   =====================                   |     
     |                         S. Grimme                         |     
     |          Mulliken Center for Theoretical Chemistry        |     
     |                    University of Bonn                     |     
      -----------------------------------------------------------      

   * xtb version 6.7.1 (41059b4) compiled by 'michael@archlinux' on 2025-03-24

   xtb is free software: you can redistribute it and/or modify it under
   the terms of the GNU Lesser General Public License as published by
   the Free Software Foundation, either version 3 of the License, or
   (at your option) any later version.
   
   xtb is distributed in the hope that it will be useful,
   but WITHOUT ANY WARRANTY; without even the implied warranty of
   MERCHANTABILITY or FITNESS FOR A PARTICULAR PURPOSE.  See the
   GNU Lesser General Public License for more details.
   
   Cite this work as:
   * C. Bannwarth, E. Caldeweyher, S. Ehlert, A. Hansen, P. Pracht,
     J. Seibert, S. Spicher, S. Grimme, WIREs Comput. Mol. Sci., 2020, 11,
     e01493. DOI: 10.1002/wcms.1493
   
   for GFN2-xTB:
   * C. Bannwarth, S. Ehlert and S. Grimme., J. Chem. Theory Comput., 2019,
     15, 1652-1671. DOI: 10.1021/acs.jctc.8b01176
   for GFN1-xTB:
   * S. Grimme, C. Bannwarth, P. Shushkov, J. Chem. Theory Comput., 2017,
     13, 1989-2009. DOI: 10.1021/acs.jctc.7b00118
   for GFN0-xTB:
   * P. Pracht, E. Caldeweyher, S. Ehlert, S. Grimme, ChemRxiv, 2019, preprint.
     DOI: 10.26434/chemrxiv.8326202.v1
   for GFN-FF:
   * S. Spicher and S. Grimme, Angew. Chem. Int. Ed., 2020, 59, 15665-15673.
     DOI: 10.1002/anie.202004239
   
   for ALPB and GBSA implicit solvation:
   * S. Ehlert, M. Stahn, S. Spicher, S. Grimme, J. Chem. Theory Comput.,
     2021, 17, 4250-4261. DOI: 10.1021/acs.jctc.1c00471
   
   for ddCOSMO and CPCM-X implicit solvation:
   * M. Stahn, S. Ehlert, S. Grimme, J. Phys. Chem. A,
     2023, XX, XXXX-XXXX. DOI: 10.1021/acs.jpca.3c04382
   
   for DFT-D4:
   * E. Caldeweyher, C. Bannwarth and S. Grimme, J. Chem. Phys., 2017,
     147, 034112. DOI: 10.1063/1.4993215
   * E. Caldeweyher, S. Ehlert, A. Hansen, H. Neugebauer, S. Spicher,
     C. Bannwarth and S. Grimme, J. Chem. Phys., 2019, 150, 154122.
     DOI: 10.1063/1.5090222
   * E. Caldeweyher, J.-M. Mewes, S. Ehlert and S. Grimme, Phys. Chem. Chem. Phys.
     2020, 22, 8499-8512. DOI: 10.1039/D0CP00502A
   
   for sTDA-xTB:
   * S. Grimme and C. Bannwarth, J. Chem. Phys., 2016, 145, 054103.
     DOI: 10.1063/1.4959605
   
   in the mass-spec context:
   * V. Asgeirsson, C. Bauer and S. Grimme, Chem. Sci., 2017, 8, 4879.
     DOI: 10.1039/c7sc00601b
   * J. Koopman and S. Grimme, ACS Omega 2019, 4, 12, 15120-15133.
     DOI: 10.1021/acsomega.9b02011
   
   for metadynamics refer to:
   * S. Grimme, J. Chem. Theory Comput., 2019, 155, 2847-2862
     DOI: 10.1021/acs.jctc.9b00143
   
   for SPH calculations refer to:
   * S. Spicher and S. Grimme, J. Chem. Theory Comput., 2021, 17, 1701-1714
     DOI: 10.1021/acs.jctc.0c01306
   
   for ONIOM refer to:
   * C. Plett, A. Katbashev, S. Ehlert, S. Grimme, M. Bursch,
     Phys. Chem. Chem. Phys., 2023, 25, 17860-17868. DOI: 10.1039/D3CP02178E
   
   for DIPRO refer to:
   * J. Kohn, N. Gildemeister, S. Grimme, D. Fazzi, A. Hansen,
     J. Chem. Phys., 2023, just accepted.
   
   for PTB refer to:
   * S. Grimme, M. Mueller, A. Hansen, J. Chem. Phys., 2023, 158, 124111.
     DOI: 10.1063/5.0137838
   
   with help from (in alphabetical order)
   P. Atkinson, C. Bannwarth, F. Bohle, G. Brandenburg, E. Caldeweyher
   M. Checinski, S. Dohm, S. Ehlert, S. Ehrlich, I. Gerasimov, C. Hölzer
   A. Katbashev, J. Kohn, J. Koopman, C. Lavigne, S. Lehtola, F. März, M. Müller,
   F. Musil, H. Neugebauer, J. Pisarek, C. Plett, P. Pracht, F. Pultar,
   J. Seibert, P. Shushkov, S. Spicher, M. Stahn, M. Steiner, T. Strunk,
   J. Stückrath, T. Rose, and J. Unsleber
   
 * started run on 2025/04/09 at 01:45:26.360     
   ID    Z sym.   atoms
    1    6 C      1, 2
    2   17 Cl     3, 4
    3    1 H      5-8

           -------------------------------------------------
          |                Calculation Setup                |
           -------------------------------------------------

          program call               : /usr/bin/xtb xtb_rrho.coord --gfn2 --ohess vtight --chrg 0 --enso --norestart -I rrho-xcontrol-inp --parallel 1
          coordinate file            : xtb_rrho.coord
          omp threads                :                     1


           -------------------------------------------------
          |                 G F N 2 - x T B                 |
           -------------------------------------------------

        Reference                      10.1021/acs.jctc.8b01176
      * Hamiltonian:
        H0-scaling (s, p, d)           1.850000    2.230000    2.230000
        zeta-weighting                 0.500000
      * Dispersion:
        s8                             2.700000
        a1                             0.520000
        a2                             5.000000
        s9                             5.000000
      * Repulsion:
        kExp                           1.500000    1.000000
        rExp                           1.000000
      * Coulomb:
        alpha                          2.000000
        third order                    shell-resolved
        anisotropic                    true
        a3                             3.000000
        a5                             4.000000
        cn-shift                       1.200000
        cn-exp                         4.000000
        max-rad                        5.000000


          ...................................................
          :                      SETUP                      :
          :.................................................:
          :  # basis functions                  32          :
          :  # atomic orbitals                  30          :
          :  # shells                           14          :
          :  # electrons                        26          :
          :  max. iterations                   250          :
          :  Hamiltonian                  GFN2-xTB          :
          :  restarted?                      false          :
          :  GBSA solvation                  false          :
          :  PC potential                    false          :
          :  electronic temp.          300.0000000     K    :
          :  accuracy                    1.0000000          :
          :  -> integral cutoff          0.2500000E+02      :
          :  -> integral neglect         0.1000000E-07      :
          :  -> SCF convergence          0.1000000E-05 Eh   :
          :  -> wf. convergence          0.1000000E-03 e    :
          :  Broyden damping             0.4000000          :
          :  net charge                          0          :
          :  unpaired electrons                  0          :
          ...................................................

 iter      E             dE          RMSdq      gap      omega  full diag
   1    -15.4597465 -0.154597E+02  0.509E+00    6.42       0.0  T
   2    -15.5002198 -0.404733E-01  0.315E+00    5.80       1.0  T
   3    -15.5021375 -0.191776E-02  0.147E+00    5.95       1.0  T
   4    -15.5027487 -0.611217E-03  0.126E-01    5.88       1.0  T
   5    -15.5027599 -0.111229E-04  0.611E-02    5.87       1.0  T
   6    -15.5027675 -0.767494E-05  0.456E-02    5.86       1.0  T
   7    -15.5027748 -0.724556E-05  0.141E-02    5.86       2.5  T
   8    -15.5027753 -0.470859E-06  0.289E-03    5.85      12.2  T
   9    -15.5027753 -0.259954E-07  0.146E-03    5.85      24.2  T
  10    -15.5027753 -0.626588E-08  0.330E-04    5.85     107.2  T
  11    -15.5027753 -0.136513E-09  0.148E-04    5.85     238.8  T

   *** convergence criteria satisfied after 11 iterations ***

         #    Occupation            Energy/Eh            Energy/eV
      -------------------------------------------------------------
         1        2.0000           -1.0642300             -28.9592
       ...           ...                  ...                  ...
         7        2.0000           -0.5332886             -14.5115
         8        2.0000           -0.5015875             -13.6489
         9        2.0000           -0.4926688             -13.4062
        10        2.0000           -0.4364167             -11.8755
        11        2.0000           -0.4289924             -11.6735
        12        2.0000           -0.4277232             -11.6389
        13        2.0000           -0.4269349             -11.6175 (HOMO)
        14                         -0.2119159              -5.7665 (LUMO)
        15                         -0.1625299              -4.4227
        16                         -0.0036072              -0.0982
        17                          0.0065352               0.1778
        18                          0.0082853               0.2255
       ...                                ...                  ...
        30                          0.2514028               6.8410
      -------------------------------------------------------------
                  HL-Gap            0.2150190 Eh            5.8510 eV
             Fermi-level           -0.3194254 Eh           -8.6920 eV

 SCC (total)                   0 d,  0 h,  0 min,  0.003 sec
 SCC setup                      ...        0 min,  0.000 sec (  1.687%)
 Dispersion                     ...        0 min,  0.000 sec (  0.581%)
 classical contributions        ...        0 min,  0.000 sec (  0.273%)
 integral evaluation            ...        0 min,  0.001 sec ( 16.173%)
 iterations                     ...        0 min,  0.002 sec ( 53.043%)
 molecular gradient             ...        0 min,  0.001 sec ( 26.389%)
 printout                       ...        0 min,  0.000 sec (  1.656%)

         :::::::::::::::::::::::::::::::::::::::::::::::::::::
         ::                     SUMMARY                     ::
         :::::::::::::::::::::::::::::::::::::::::::::::::::::
         :: total energy             -15.415336956123 Eh    ::
         :: gradient norm              0.021333008651 Eh/a0 ::
         :: HOMO-LUMO gap              5.850965389561 eV    ::
         ::.................................................::
         :: SCC energy               -15.502774574672 Eh    ::
         :: -> isotropic ES            0.010159938889 Eh    ::
         :: -> anisotropic ES         -0.000094587453 Eh    ::
         :: -> anisotropic XC          0.006494795579 Eh    ::
         :: -> dispersion             -0.004343405159 Eh    ::
         :: repulsion energy           0.087437618549 Eh    ::
         :: add. restraining           0.000000000000 Eh    ::
         :: total charge              -0.000000000000 e     ::
         :::::::::::::::::::::::::::::::::::::::::::::::::::::

      ----------------------------------------------------------- 
     |                   =====================                   |
     |                        A N C O P T                        |
     |                   =====================                   |
     |               Approximate Normal Coordinate               |
     |                Rational Function Optimizer                |
      ----------------------------------------------------------- 

          ...................................................
          :                      SETUP                      :
          :.................................................:
          :   optimization level         verytight          :
          :   max. optcycles                   200          :
          :   ANC micro-cycles                  20          :
          :   degrees of freedom                18          :
          :.................................................:
          :   RF solver                   davidson          :
          :   write xtbopt.log                true          :
          :   linear?                        false          :
          :   energy convergence         0.1000000E-06 Eh   :
          :   grad. convergence          0.2000000E-03 Eh/α :
          :   maximum RF displ.          1.0000000          :
          :   Hlow (freq-cutoff)         0.1000000E-01      :
          :   Hmax (freq-cutoff)         5.0000000          :
          :   S6 in model hess.         20.0000000          :
          ...................................................

generating ANC from exact Hessian ...
Using Lindh-Hessian (1995)
 Shifting diagonal of input Hessian by    6.8145039345389805E-004
 Lowest  eigenvalues of input Hessian
    0.000000    0.000000    0.000000    0.000000    0.000000    0.000000
    0.010000    0.019939    0.035945    0.040401    0.059274    0.069416
    0.069719    0.107778    0.108000    0.134013    0.155221    0.329559
 Highest eigenvalues
    0.609958    0.964365    1.031269    1.035508    1.141062    1.212035


........................................................................
.............................. CYCLE    1 ..............................
........................................................................

 iter      E             dE          RMSdq      gap      omega  full diag
   1    -15.5027753 -0.155028E+02  0.237E-05    5.85       0.0  T
   2    -15.5027753 -0.220979E-11  0.782E-06    5.85    4519.6  T
   3    -15.5027753 -0.177636E-12  0.434E-06    5.85    8146.5  T
     SCC iter.                  ...        0 min,  0.001 sec
     gradient                   ...        0 min,  0.001 sec
 * total energy  :   -15.4153370 Eh     change       -0.7743672E-10 Eh
   gradient norm :     0.0213328 Eh/α   predicted     0.0000000E+00 (-100.00%)
   displ. norm   :     0.0656693 α      lambda       -0.9308211E-03
   maximum displ.:     0.0396196 α      in ANC's #10, #3, #12, ...

........................................................................
.............................. CYCLE    2 ..............................
........................................................................

 iter      E             dE          RMSdq      gap      omega  full diag
   1    -15.5053890 -0.155054E+02  0.147E-01    6.05       0.0  T
   2    -15.5053964 -0.731595E-05  0.978E-02    6.04       1.0  T
   3    -15.5054016 -0.523229E-05  0.372E-02    6.04       1.0  T
   4    -15.5054041 -0.248330E-05  0.282E-02    6.04       1.3  T
   5    -15.5054070 -0.296474E-05  0.286E-03    6.03      12.4  T
   6    -15.5054071 -0.719693E-08  0.138E-03    6.03      25.6  T
   7    -15.5054071 -0.326583E-08  0.878E-04    6.03      40.3  T
   8    -15.5054071 -0.235450E-08  0.753E-05    6.03     469.4  T
     SCC iter.                  ...        0 min,  0.001 sec
     gradient                   ...        0 min,  0.001 sec
 * total energy  :   -15.4159641 Eh     change       -0.6271715E-03 Eh
   gradient norm :     0.0130580 Eh/α   predicted    -0.4674180E-03 ( -25.47%)
   displ. norm   :     0.0377225 α      lambda       -0.3710825E-03
   maximum displ.:     0.0235322 α      in ANC's #12, #16, #3, ...

........................................................................
.............................. CYCLE    3 ..............................
........................................................................

 iter      E             dE          RMSdq      gap      omega  full diag
   1    -15.5067324 -0.155067E+02  0.861E-02    6.22       0.0  T
   2    -15.5067362 -0.374061E-05  0.620E-02    6.21       1.0  T
   3    -15.5067400 -0.383612E-05  0.287E-02    6.21       1.2  T
   4    -15.5067416 -0.155070E-05  0.217E-02    6.21       1.6  T
   5    -15.5067433 -0.173323E-05  0.242E-03    6.20      14.6  T
   6    -15.5067433 -0.529917E-08  0.881E-04    6.20      40.1  T
   7    -15.5067433 -0.107107E-08  0.635E-04    6.20      55.7  T
     SCC iter.                  ...        0 min,  0.001 sec
     gradient                   ...        0 min,  0.001 sec
 * total energy  :   -15.4161827 Eh     change       -0.2186154E-03 Eh
   gradient norm :     0.0053257 Eh/α   predicted    -0.1858061E-03 ( -15.01%)
   displ. norm   :     0.0131711 α      lambda       -0.5485457E-04
   maximum displ.:     0.0089990 α      in ANC's #16, #3, #10, ...

........................................................................
.............................. CYCLE    4 ..............................
........................................................................

 iter      E             dE          RMSdq      gap      omega  full diag
   1    -15.5062649 -0.155063E+02  0.302E-02    6.25       0.0  T
   2    -15.5062650 -0.127697E-06  0.190E-02    6.25       1.9  T
   3    -15.5062652 -0.177233E-06  0.580E-03    6.25       6.1  T
   4    -15.5062653 -0.931874E-07  0.268E-03    6.25      13.2  T
   5    -15.5062653 -0.262581E-07  0.443E-04    6.25      79.8  T
   6    -15.5062653 -0.459297E-09  0.178E-04    6.25     198.1  T
     SCC iter.                  ...        0 min,  0.001 sec
     gradient                   ...        0 min,  0.001 sec
 * total energy  :   -15.4162174 Eh     change       -0.3465264E-04 Eh
   gradient norm :     0.0016651 Eh/α   predicted    -0.2743076E-04 ( -20.84%)
   displ. norm   :     0.0114081 α      lambda       -0.8696523E-05
   maximum displ.:     0.0074318 α      in ANC's #3, #10, #12, ...

........................................................................
.............................. CYCLE    5 ..............................
........................................................................

 iter      E             dE          RMSdq      gap      omega  full diag
   1    -15.5055696 -0.155056E+02  0.209E-02    6.26       0.0  T
   2    -15.5055696 -0.206373E-07  0.127E-02    6.26       2.8  T
   3    -15.5055696 -0.536586E-08  0.100E-03    6.26      35.3  T
   4    -15.5055696 -0.200414E-08  0.684E-04    6.26      51.7  T
   5    -15.5055696 -0.581414E-09  0.335E-04    6.26     105.7  T
     SCC iter.                  ...        0 min,  0.001 sec
     gradient                   ...        0 min,  0.001 sec
 * total energy  :   -15.4162210 Eh     change       -0.3588670E-05 Eh
   gradient norm :     0.0007066 Eh/α   predicted    -0.4348797E-05 (  21.18%)
   displ. norm   :     0.0049268 α      lambda       -0.1346350E-05
   maximum displ.:     0.0041054 α      in ANC's #3, #7, #16, ...

........................................................................
.............................. CYCLE    6 ..............................
........................................................................

 iter      E             dE          RMSdq      gap      omega  full diag
   1    -15.5057543 -0.155058E+02  0.702E-03    6.25       0.0  T
   2    -15.5057544 -0.445174E-08  0.413E-03    6.25       8.6  T
   3    -15.5057544 -0.364765E-08  0.931E-04    6.25      38.0  T
   4    -15.5057544 -0.103711E-08  0.733E-04    6.25      48.3  T
     SCC iter.                  ...        0 min,  0.000 sec
     gradient                   ...        0 min,  0.001 sec
 * total energy  :   -15.4162219 Eh     change       -0.9430022E-06 Eh
   gradient norm :     0.0000874 Eh/α   predicted    -0.6712628E-06 ( -28.82%)
   displ. norm   :     0.0015166 α      lambda       -0.6497390E-07
   maximum displ.:     0.0013083 α      in ANC's #3, #10, #7, ...

........................................................................
.............................. CYCLE    7 ..............................
........................................................................

 iter      E             dE          RMSdq      gap      omega  full diag
   1    -15.5057796 -0.155058E+02  0.271E-03    6.26       0.0  T
   2    -15.5057796 -0.301591E-08  0.161E-03    6.26      22.0  T
   3    -15.5057796 -0.544583E-09  0.577E-04    6.26      61.2  T
   4    -15.5057796 -0.488722E-09  0.328E-04    6.26     107.9  T
     SCC iter.                  ...        0 min,  0.000 sec
     gradient                   ...        0 min,  0.001 sec
 * total energy  :   -15.4162219 Eh     change       -0.7263289E-08 Eh
   gradient norm :     0.0000784 Eh/α   predicted    -0.3416081E-07 ( 370.32%)
   displ. norm   :     0.0006543 α      lambda       -0.2992511E-07
   maximum displ.:     0.0005007 α      in ANC's #3, #10, #7, ...

   *** GEOMETRY OPTIMIZATION CONVERGED AFTER 7 ITERATIONS ***

------------------------------------------------------------------------
 total energy gain   :        -0.0008850 Eh       -0.5553 kcal/mol
 total RMSD          :         0.0305622 a0        0.0162 Å
 total power (kW/mol):        -0.3319301 (step) -153.7107 (real)
------------------------------------------------------------------------

 ANCopt (total)                0 d,  0 h,  0 min,  0.015 sec
 optimizer setup                ...        0 min,  0.000 sec (  0.274%)
 model hessian                  ...        0 min,  0.000 sec (  1.422%)
 ANC generation                 ...        0 min,  0.000 sec (  0.341%)
 coordinate transformation      ...        0 min,  0.000 sec (  0.091%)
 single point calculation       ...        0 min,  0.014 sec ( 94.513%)
 optimization log               ...        0 min,  0.000 sec (  1.173%)
 hessian update                 ...        0 min,  0.000 sec (  0.103%)
 rational function              ...        0 min,  0.000 sec (  1.163%)

================
 final structure:
================
$coord
       -0.91860608690199        1.09673278953975       -0.00033791388644      C
        0.91870539012810       -1.09688065424528       -0.00023068333772      C
        4.06723704276328        0.10621518851815       -0.00029595090545      Cl
       -4.06713778390760       -0.10636304943715       -0.00025919204657      Cl
       -0.70156824564132        2.25847893004854       -1.68716092079044      H
       -0.70155170158254        2.25865707621026        1.68636028871324      H
        0.70166166495242       -2.25863109558123        1.68658862866055      H
        0.70165682566219       -2.25880068216820       -1.68693254679680      H
$end

 Bond Distances (Angstroems)
 ---------------------------
C1-C2=1.5142         C1-Cl4=1.7836        C1-H5=1.0899         C1-H6=1.0899         C2-C1=1.5142         C2-Cl3=1.7836        
C2-H7=1.0899         C2-H8=1.0899         Cl3-C2=1.7836        Cl4-C1=1.7836        H5-C1=1.0899         H6-C1=1.0899         
H7-C2=1.0899         H8-C2=1.0899         
 C  H  Rav=1.0899 sigma=0.0000  Rmin=1.0899  Rmax=1.0899     4
 C  C  Rav=1.5142 sigma=0.0000  Rmin=1.5142  Rmax=1.5142     1
 Cl C  Rav=1.7836 sigma=0.0000  Rmin=1.7836  Rmax=1.7836     2

 selected bond angles (degree)
 --------------------
Cl4-C1-C2=109.04               H5-C1-C2=111.39                H5-C1-Cl4=107.44               H6-C1-C2=111.39                
H6-C1-Cl4=107.44               H6-C1-H5=109.96                Cl3-C2-C1=109.04               H7-C2-C1=111.39                
H7-C2-Cl3=107.44               H8-C2-C1=111.39                H8-C2-Cl3=107.44               H8-C2-H7=109.96                

 selected dihedral angles (degree)
 ---------------------------------
Cl3-C2-C1-Cl4=180.00          Cl3-C2-C1-H5= 61.59           Cl3-C2-C1-H6=298.41           H7-C2-C1-Cl4=298.41           
H7-C2-C1-H5=180.00            H7-C2-C1-H6= 56.82            H8-C2-C1-Cl4= 61.59           H8-C2-C1-H5=303.18            
H8-C2-C1-H6=180.00            
           -------------------------------------------------
          |                Final Singlepoint                |
           -------------------------------------------------

          ...................................................
          :                      SETUP                      :
          :.................................................:
          :  # basis functions                  32          :
          :  # atomic orbitals                  30          :
          :  # shells                           14          :
          :  # electrons                        26          :
          :  max. iterations                   250          :
          :  Hamiltonian                  GFN2-xTB          :
          :  restarted?                      false          :
          :  GBSA solvation                  false          :
          :  PC potential                    false          :
          :  electronic temp.          300.0000000     K    :
          :  accuracy                    1.0000000          :
          :  -> integral cutoff          0.2500000E+02      :
          :  -> integral neglect         0.1000000E-07      :
          :  -> SCF convergence          0.1000000E-05 Eh   :
          :  -> wf. convergence          0.1000000E-03 e    :
          :  Broyden damping             0.4000000          :
          :  net charge                          0          :
          :  unpaired electrons                  0          :
          ...................................................

 iter      E             dE          RMSdq      gap      omega  full diag
   1    -15.5057796 -0.155058E+02  0.112E-04    6.26       0.0  T
   2    -15.5057796 -0.817835E-11  0.789E-05    6.26     447.9  T
   3    -15.5057796 -0.978417E-11  0.443E-05    6.26     798.9  T

   *** convergence criteria satisfied after 3 iterations ***

         #    Occupation            Energy/Eh            Energy/eV
      -------------------------------------------------------------
         1        2.0000           -1.0663085             -29.0157
       ...           ...                  ...                  ...
         7        2.0000           -0.5362458             -14.5920
         8        2.0000           -0.5051812             -13.7467
         9        2.0000           -0.4965184             -13.5110
        10        2.0000           -0.4379299             -11.9167
        11        2.0000           -0.4294025             -11.6846
        12        2.0000           -0.4277817             -11.6405
        13        2.0000           -0.4267995             -11.6138 (HOMO)
        14                         -0.1968923              -5.3577 (LUMO)
        15                         -0.1524708              -4.1489
        16                         -0.0081678              -0.2223
        17                          0.0040557               0.1104
        18                          0.0059753               0.1626
       ...                                ...                  ...
        30                          0.2524876               6.8705
      -------------------------------------------------------------
                  HL-Gap            0.2299072 Eh            6.2561 eV
             Fermi-level           -0.3118459 Eh           -8.4858 eV

 SCC (total)                   0 d,  0 h,  0 min,  0.002 sec
 SCC setup                      ...        0 min,  0.000 sec (  1.382%)
 Dispersion                     ...        0 min,  0.000 sec (  0.478%)
 classical contributions        ...        0 min,  0.000 sec (  0.222%)
 integral evaluation            ...        0 min,  0.000 sec ( 27.486%)
 iterations                     ...        0 min,  0.000 sec ( 19.783%)
 molecular gradient             ...        0 min,  0.001 sec ( 48.239%)
 printout                       ...        0 min,  0.000 sec (  2.045%)

         :::::::::::::::::::::::::::::::::::::::::::::::::::::
         ::                     SUMMARY                     ::
         :::::::::::::::::::::::::::::::::::::::::::::::::::::
         :: total energy             -15.416221935078 Eh    ::
         :: gradient norm              0.000078751346 Eh/a0 ::
         :: HOMO-LUMO gap              6.256093700313 eV    ::
         ::.................................................::
         :: SCC energy               -15.505778887176 Eh    ::
         :: -> isotropic ES            0.009792918401 Eh    ::
         :: -> anisotropic ES          0.000297724447 Eh    ::
         :: -> anisotropic XC          0.005963795754 Eh    ::
         :: -> dispersion             -0.004381699713 Eh    ::
         :: repulsion energy           0.089556952098 Eh    ::
         :: add. restraining           0.000000000000 Eh    ::
         :: total charge               0.000000000000 e     ::
         :::::::::::::::::::::::::::::::::::::::::::::::::::::

           ------------------------------------------------- 
          |                Numerical Hessian                |
           ------------------------------------------------- 
step length          :   0.00500
SCC accuracy         :   0.30000
Hessian scale factor :   1.00000
frozen atoms in %    :   0.00000    0
RMS gradient         :   0.00008
estimated CPU  time      0.00 min
estimated wall time      0.00 min

writing file <hessian>, containing the non-mass-weighted Hessian matrix in atomic units (Eₕ/Bohr²).

 projected vibrational frequencies (cm⁻¹)
eigval :       -0.00     0.00     0.00     0.00     0.00     0.00
eigval :       95.27   201.35   280.66   707.81   753.88   783.35
eigval :      977.28  1061.33  1089.40  1202.52  1222.20  1256.13
eigval :     1431.75  1443.67  2982.28  2983.87  2994.19  2996.59
           -------------------------------------------------
          |                Property Printout                |
           -------------------------------------------------

    * Orbital Energies and Occupations

         #    Occupation            Energy/Eh            Energy/eV
      -------------------------------------------------------------
         1        2.0000           -1.0663088             -29.0157
         2        2.0000           -1.0659557             -29.0061
         3        2.0000           -0.6657434             -18.1158
         4        2.0000           -0.6171343             -16.7931
         5        2.0000           -0.5649089             -15.3720
         6        2.0000           -0.5440586             -14.8046
         7        2.0000           -0.5362462             -14.5920
         8        2.0000           -0.5051817             -13.7467
         9        2.0000           -0.4965189             -13.5110
        10        2.0000           -0.4379303             -11.9167
        11        2.0000           -0.4294029             -11.6846
        12        2.0000           -0.4277822             -11.6405
        13        2.0000           -0.4267999             -11.6138 (HOMO)
        14                         -0.1968931              -5.3577 (LUMO)
        15                         -0.1524715              -4.1490
        16                         -0.0081682              -0.2223
        17                          0.0040553               0.1104
        18                          0.0059750               0.1626
        19                          0.0097743               0.2660
        20                          0.0106425               0.2896
        21                          0.0107761               0.2932
        22                          0.0112895               0.3072
        23                          0.0115126               0.3133
        24                          0.0623842               1.6976
       ...                                ...                  ...
        30                          0.2524871               6.8705
      -------------------------------------------------------------
                  HL-Gap            0.2299068 Eh            6.2561 eV
             Fermi-level           -0.3118465 Eh           -8.4858 eV

     #   Z          covCN         q      C6AA      α(0)
     1   6          3.753     0.023    20.237     6.415
     2   6          3.753     0.023    20.237     6.415
     3  17          0.928    -0.188   105.039    15.679
     4  17          0.928    -0.188   105.039    15.679
     5   1          0.925     0.082     1.957     2.188
     6   1          0.925     0.082     1.957     2.188
     7   1          0.925     0.082     1.957     2.188
     8   1          0.925     0.082     1.957     2.188

 Mol. C6AA /au·bohr⁶  :       1229.538134
 Mol. C8AA /au·bohr⁸  :      40046.133520
 Mol. α(0) /au        :         52.940172


Wiberg/Mayer (AO) data.
largest (>0.10) Wiberg bond orders for each atom

 ---------------------------------------------------------------------------
     #   Z sym  total        # sym  WBO       # sym  WBO       # sym  WBO
 ---------------------------------------------------------------------------
     1   6      3.941 --     2      1.023     5      0.976     6      0.976
                             4      0.951
     2   6      3.941 --     1      1.023     8      0.976     7      0.976
                             3      0.951
     3  17      1.005 --     2      0.951
     4  17      1.005 --     1      0.951
     5   1      0.993 --     1      0.976
     6   1      0.993 --     1      0.976
     7   1      0.993 --     2      0.976
     8   1      0.993 --     2      0.976
 ---------------------------------------------------------------------------

Topologies differ in total number of bonds
Writing topology from bond orders to xtbtopo.mol

molecular dipole:
                 x           y           z       tot (Debye)
 q only:        0.000       0.000      -0.000
   full:       -0.000      -0.000      -0.000       0.000
molecular quadrupole (traceless):
                xx          xy          yy          xz          yz          zz
 q only:       -7.335      -1.094       4.262       0.000      -0.000       3.073
  q+dip:       -9.486      -1.761       4.682       0.000       0.000       4.804
   full:       -7.677      -0.978       4.183       0.000      -0.000       3.494

           -------------------------------------------------
          |                Geometry Summary                 |
           -------------------------------------------------

      molecular mass/u    :       98.9591100
   center of mass at/Å    :        0.0000263      -0.0000391      -0.0001479
  moments of inertia/u·Å² :        0.1728824E+02   0.3378976E+03   0.3487614E+03
rotational constants/cm⁻¹ :        0.9750923E+00   0.4988977E-01   0.4833571E-01

 * 7 selected distances

     #   Z          #   Z                                           value/Å
     1   6          2   6                                         1.5141918
     2   6          3  17                                         1.7836250
     1   6          4  17                                         1.7836250 (max)
     1   6          5   1                                         1.0899165 (min)
Molecule has the following symmetry elements: (i) (C2) (sigma) 
It seems to be the C2h point group
     1   6          6   1                                         1.0899165
     2   6          7   1                                         1.0899165
     2   6          8   1                                         1.0899165

 * 3 distinct bonds (by element types)

   Z      Z             #   av. dist./Å        max./Å        min./Å
   1 H    6 C           4     1.0899165     1.0899165     1.0899165
   6 C    6 C           1     1.5141918     1.5141918     1.5141918
   6 C   17 Cl          2     1.7836250     1.7836250     1.7836250

           -------------------------------------------------
          |               Frequency Printout                |
           -------------------------------------------------
 projected vibrational frequencies (cm⁻¹)
eigval :       -0.00     0.00     0.00     0.00     0.00     0.00
eigval :       95.27   201.35   280.66   707.81   753.88   783.35
eigval :      977.28  1061.33  1089.40  1202.52  1222.20  1256.13
eigval :     1431.75  1443.67  2982.28  2983.87  2994.19  2996.59
 reduced masses (amu)
    1:     14.75    2:     12.42    3:     15.59    4:     12.16    5:     16.85    6:      1.89
    7:      4.01    8:      5.29    9:     17.48   10:      8.25   11:      5.15   12:      1.11
   13:      1.38   14:      4.50   15:      1.05   16:      1.16   17:      1.17   18:      1.24
   19:      1.10   20:      1.09   21:      1.10   22:      1.05   23:      1.05   24:      1.11
 IR intensities (km·mol⁻¹)
    1:      0.00    2:      0.01    3:      0.00    4:      0.01    5:      0.00    6:      0.00
    7:      7.00    8:      7.82    9:      0.00   10:     29.98   11:      0.00   12:      2.51
   13:      0.00   14:      0.00   15:      0.84   16:     20.13   17:      0.00   18:      0.00
   19:      6.97   20:      0.00   21:      0.00   22:      0.00   23:      6.09   24:      0.63
 Raman intensities (Ä⁴*amu⁻¹)
    1:      0.00    2:      0.00    3:      0.00    4:      0.00    5:      0.00    6:      0.00
    7:      0.00    8:      0.00    9:      0.00   10:      0.00   11:      0.00   12:      0.00
   13:      0.00   14:      0.00   15:      0.00   16:      0.00   17:      0.00   18:      0.00
   19:      0.00   20:      0.00   21:      0.00   22:      0.00   23:      0.00   24:      0.00
 output can be read by thermo (or use thermo option).
 writing <g98.out> molden fake output.
 recommended (thermochemical) frequency scaling factor: 1.0
           -------------------------------------------------
          |             Thermodynamic Functions             |
           -------------------------------------------------

c2h symmetry found (for desy threshold:  0.10E+00) used in thermo

          ...................................................
          :                      SETUP                      :
          :.................................................:
          :  # frequencies                          18      :
          :  # imaginary freq.                       0      :
          :  linear?                             false      :
          :  only rotor calc.                    false      :
          :  symmetry                              c2h      :
          :  rotational number                       2      :
          :  scaling factor                  1.0000000      :
          :  rotor cutoff                    0.0000000 cm⁻¹ :
          :  imag. cutoff                 -100.0000000 cm⁻¹ :
          :.................................................:

    mode    ω/cm⁻¹     T·S(HO)/kcal·mol⁻¹    T·S(FR)/kcal·mol⁻¹   T·S(vib)
   ------------------------------------------------------------------------
       1     95.27    -1.05808 (100.00%)    -0.86534 (  0.00%)    -1.05808
       2    201.35    -0.63230 (100.00%)    -0.64378 (  0.00%)    -0.63230
       3    280.66    -0.45607 (100.00%)    -0.54542 (  0.00%)    -0.45607
   ------------------------------------------------------------------------

   temp. (K)  partition function   enthalpy   heat capacity  entropy
                                   cal/mol     cal/K/mol   cal/K/mol   J/K/mol
 298.15  VIB   6.59                 1371.869      9.481      8.348
         ROT  0.545E+05              888.727      2.981     24.654
         INT  0.359E+06             2260.597     12.462     33.002
         TR   0.301E+26             1481.212      4.968     39.687
         TOT                        3741.8091    17.4300    72.6891   304.1313

       T/K    H(0)-H(T)+PV         H(T)/Eh          T*S/Eh         G(T)/Eh
   ------------------------------------------------------------------------
    298.15    0.596295E-02    0.616949E-01    0.345370E-01    0.271580E-01
   ------------------------------------------------------------------------

         :::::::::::::::::::::::::::::::::::::::::::::::::::::
         ::                  THERMODYNAMIC                  ::
         :::::::::::::::::::::::::::::::::::::::::::::::::::::
         :: total free energy         -15.389063940357 Eh   ::
         ::.................................................::
         :: total energy              -15.416221935085 Eh   ::
         :: zero point energy           0.055731993647 Eh   ::
         :: G(RRHO) w/o ZPVE           -0.028573998920 Eh   ::
         :: G(RRHO) contrib.            0.027157994728 Eh   ::
         :::::::::::::::::::::::::::::::::::::::::::::::::::::

optimized geometry written to: xtbopt.coord


           -------------------------------------------------
          | TOTAL ENERGY              -15.416221935085 Eh   |
          | TOTAL ENTHALPY            -15.354526989009 Eh   |
          | TOTAL FREE ENERGY         -15.389063940357 Eh   |
          | GRADIENT NORM               0.000078805836 Eh/α |
          | HOMO-LUMO GAP               6.256082993508 eV   |
           -------------------------------------------------

------------------------------------------------------------------------
 * finished run on 2025/04/09 at 01:45:26.488     
------------------------------------------------------------------------
 total:
 * wall-time:     0 d,  0 h,  0 min,  0.128 sec
 *  cpu-time:     0 d,  0 h,  0 min,  0.126 sec
 * ratio c/w:     0.987 speedup
 SCF:
 * wall-time:     0 d,  0 h,  0 min,  0.003 sec
 *  cpu-time:     0 d,  0 h,  0 min,  0.003 sec
 * ratio c/w:     0.974 speedup
 ANC optimizer:
 * wall-time:     0 d,  0 h,  0 min,  0.017 sec
 *  cpu-time:     0 d,  0 h,  0 min,  0.017 sec
 * ratio c/w:     0.986 speedup
 analytical hessian:
 * wall-time:     0 d,  0 h,  0 min,  0.103 sec
 *  cpu-time:     0 d,  0 h,  0 min,  0.102 sec
 * ratio c/w:     0.987 speedup

