 Entering Gaussian System
 *********************************************
 Gaussian 98:
 frequency output generated by the xtb code
 *********************************************
                         Standard orientation:
 --------------------------------------------------------------------
  Center     Atomic     Atomic              Coordinates (Angstroms)
  Number     Number      Type              X           Y           Z
 --------------------------------------------------------------------
    1          6             0       -2.470720    0.079193    0.378710
    2          6             0       -1.231851    0.675808   -0.273622
    3          6             0        0.029683   -0.028971    0.169529
    4          8             0        0.083859   -1.027532    0.834439
    5          8             0        1.115896    0.611589   -0.291117
    6          6             0        2.371164    0.036660    0.045437
    7          1             0       -2.539001   -0.981400    0.152261
    8          1             0       -2.419254    0.189301    1.458683
    9          1             0       -3.366276    0.576970    0.016394
   10          1             0       -1.129519    1.736073   -0.035827
   11          1             0       -1.289180    0.590262   -1.361393
   12          1             0        2.489575   -0.006445    1.129966
   13          1             0        3.128198    0.678667   -0.397034
   14          1             0        2.444038   -0.976212   -0.355677
 --------------------------------------------------------------------
     1 basis functions        1 primitive gaussians
     1 alpha electrons        1 beta electrons

 Harmonic frequencies (cm**-1), IR intensities (km*mol⁻¹),
 Raman scattering activities (A**4/amu), Raman depolarization ratios,
 reduced masses (AMU), force constants (mDyne/A) and normal coordinates:
                      1                      2                      3
                        a                      a                      a 
 Frequencies --     6.8408                53.0108               148.5150
 Red. masses --     2.1371                 1.0907                 1.5326
 Frc consts  --     0.0000                 0.0000                 0.0000
 IR Inten    --     0.0842                 0.1374                 2.8289
 Raman Activ --     0.0000                 0.0000                 0.0000
 Depolar     --     0.0000                 0.0000                 0.0000
 Atom AN      X      Y      Z        X      Y      Z        X      Y      Z
   1   6     0.05   0.29   0.33     0.01   0.02   0.04     0.05   0.05   0.15
   2   6    -0.03  -0.22  -0.27    -0.00   0.01   0.01    -0.01   0.01  -0.02
   3   6    -0.01  -0.11  -0.14    -0.00  -0.02  -0.03    -0.01  -0.10  -0.18
   4   8     0.00  -0.23  -0.31    -0.01  -0.13  -0.20    -0.02   0.00  -0.04
   5   8    -0.02   0.09   0.14     0.00   0.06   0.09    -0.01  -0.22  -0.34
   6   6     0.00   0.14   0.19    -0.00   0.05   0.08    -0.00   0.18   0.31
   7   1     0.01   0.03   0.33     0.00   0.01   0.02    -0.22   0.10  -0.26
   8   1     0.05   0.32   0.07     0.01   0.01   0.01     0.24  -0.32   0.07
   9   1     0.00   0.01   0.02     0.00   0.01   0.01     0.03   0.28   0.36
  10   1     0.04  -0.02  -0.28     0.01   0.00   0.00     0.03  -0.01   0.04
  11   1    -0.08  -0.26  -0.06    -0.01   0.00   0.00    -0.06   0.06  -0.00
  12   1    -0.06  -0.04   0.06     0.23   0.52   0.02    -0.13   0.12   0.11
  13   1    -0.00   0.11   0.15    -0.01  -0.29  -0.44     0.01   0.09   0.15
  14   1     0.06   0.08  -0.02    -0.22  -0.19   0.49     0.13   0.04   0.16
                      4                      5                      6
                        a                      a                      a 
 Frequencies --   186.9255               203.0977               297.7673
 Red. masses --     2.5076                 1.9198                 4.2005
 Frc consts  --     0.0000                 0.0000                 0.0000
 IR Inten    --     2.2639                 5.5156                16.7547
 Raman Activ --     0.0000                 0.0000                 0.0000
 Depolar     --     0.0000                 0.0000                 0.0000
 Atom AN      X      Y      Z        X      Y      Z        X      Y      Z
   1   6    -0.24   0.31  -0.20    -0.11   0.13  -0.07    -0.30   0.12  -0.06
   2   6     0.09  -0.18  -0.00     0.06   0.15   0.29    -0.07  -0.12   0.12
   3   6     0.01  -0.22   0.19     0.00  -0.16  -0.01     0.07   0.04  -0.02
   4   8     0.12  -0.26   0.20     0.03  -0.19  -0.02     0.67   0.04  -0.08
   5   8    -0.12  -0.01   0.21    -0.06  -0.31  -0.34    -0.01   0.17  -0.15
   6   6     0.12   0.25  -0.28     0.08   0.27   0.11    -0.27  -0.23   0.17
   7   1    -0.28   0.13  -0.19     0.14  -0.02   0.19    -0.16   0.04  -0.02
   8   1    -0.04  -0.05  -0.05    -0.26   0.27  -0.03    -0.15   0.04  -0.01
   9   1     0.02   0.30   0.00    -0.02  -0.14  -0.30    -0.03   0.10  -0.08
  10   1     0.08  -0.05  -0.04     0.06   0.01   0.21    -0.01  -0.03   0.03
  11   1     0.08  -0.09  -0.00     0.03   0.18   0.07    -0.01  -0.03   0.03
  12   1     0.15   0.06  -0.09    -0.06   0.15   0.04    -0.17  -0.08   0.06
  13   1    -0.05   0.13  -0.15    -0.02   0.14   0.06     0.03  -0.15   0.11
  14   1     0.07   0.09  -0.11     0.18   0.07   0.09    -0.16  -0.08   0.07
                      7                      8                      9
                        a                      a                      a 
 Frequencies --   430.9329               567.5768               647.1050
 Red. masses --     4.0924                 2.6150                 4.1377
 Frc consts  --     0.0000                 0.0000                 0.0000
 IR Inten    --     0.1694                11.2050                 3.7542
 Raman Activ --     0.0000                 0.0000                 0.0000
 Depolar     --     0.0000                 0.0000                 0.0000
 Atom AN      X      Y      Z        X      Y      Z        X      Y      Z
   1   6    -0.46  -0.07   0.09     0.04  -0.02  -0.04     0.01  -0.04   0.03
   2   6    -0.29  -0.11   0.09     0.08   0.04   0.14     0.30  -0.38   0.25
   3   6     0.06   0.17  -0.08     0.05   0.37   0.56     0.26  -0.06  -0.11
   4   8    -0.13   0.16  -0.14    -0.09  -0.17  -0.24    -0.46   0.02   0.05
   5   8     0.40  -0.08   0.01    -0.02  -0.11  -0.26     0.13   0.38  -0.21
   6   6     0.47  -0.05   0.02    -0.05   0.02   0.00    -0.13   0.05  -0.03
   7   1    -0.19  -0.01   0.02     0.03   0.01  -0.10    -0.15  -0.00   0.03
   8   1    -0.17  -0.02   0.03    -0.03  -0.09  -0.00    -0.12   0.03   0.01
   9   1    -0.09   0.04  -0.01     0.03   0.01  -0.02     0.13   0.13  -0.12
  10   1    -0.15  -0.02  -0.02    -0.12   0.10  -0.32     0.09  -0.11   0.11
  11   1    -0.12  -0.07   0.03     0.16  -0.38   0.06     0.06  -0.04   0.07
  12   1     0.15  -0.00   0.00    -0.08   0.03   0.01    -0.12  -0.01   0.00
  13   1     0.10   0.01  -0.01     0.00   0.01   0.04     0.09  -0.10   0.05
  14   1     0.16  -0.01   0.00     0.03  -0.00   0.03    -0.14   0.00   0.01
                     10                     11                     12
                        a                      a                      a 
 Frequencies --   815.4065               876.1050              1007.7895
 Red. masses --     1.3689                 2.9161                 4.4284
 Frc consts  --     0.0000                 0.0000                 0.0000
 IR Inten    --    34.5375                25.5609                14.0718
 Raman Activ --     0.0000                 0.0000                 0.0000
 Depolar     --     0.0000                 0.0000                 0.0000
 Atom AN      X      Y      Z        X      Y      Z        X      Y      Z
   1   6    -0.01  -0.06  -0.07    -0.19   0.06  -0.01    -0.31  -0.05   0.06
   2   6    -0.03  -0.20  -0.24    -0.19   0.24  -0.18     0.15   0.12  -0.10
   3   6     0.01   0.22   0.33     0.12  -0.22   0.17     0.40   0.02  -0.05
   4   8    -0.01  -0.06  -0.09    -0.06  -0.38   0.25    -0.04   0.02  -0.01
   5   8     0.01  -0.03  -0.07     0.16   0.36  -0.24     0.36  -0.25   0.15
   6   6     0.01  -0.00  -0.00     0.14   0.04  -0.03    -0.53   0.15  -0.08
   7   1    -0.26  -0.06   0.28     0.15   0.00  -0.01     0.01  -0.03   0.05
   8   1     0.30   0.26  -0.06     0.11  -0.04  -0.00     0.04  -0.03   0.01
   9   1    -0.00   0.09   0.13    -0.23  -0.18   0.18    -0.19  -0.12   0.14
  10   1    -0.18  -0.13   0.37     0.01   0.06  -0.06     0.03   0.04  -0.04
  11   1     0.22   0.36  -0.10    -0.01   0.05  -0.05     0.09   0.02  -0.03
  12   1    -0.01   0.00   0.00    -0.12  -0.02   0.01    -0.01   0.04  -0.03
  13   1     0.01   0.00   0.01     0.24  -0.16   0.10    -0.22   0.11  -0.07
  14   1     0.01  -0.00   0.01    -0.12  -0.01   0.02    -0.01   0.04  -0.03
                     13                     14                     15
                        a                      a                      a 
 Frequencies --  1046.7845              1061.1248              1111.2292
 Red. masses --     1.5620                 1.4756                 2.9205
 Frc consts  --     0.0000                 0.0000                 0.0000
 IR Inten    --     4.6084                 5.6233                 5.3457
 Raman Activ --     0.0000                 0.0000                 0.0000
 Depolar     --     0.0000                 0.0000                 0.0000
 Atom AN      X      Y      Z        X      Y      Z        X      Y      Z
   1   6    -0.29   0.08  -0.04     0.00   0.12   0.18     0.23   0.33  -0.30
   2   6     0.25  -0.19   0.12    -0.00  -0.24  -0.30    -0.39  -0.33   0.30
   3   6    -0.19   0.05  -0.05     0.00   0.21   0.30    -0.02   0.00  -0.00
   4   8    -0.02   0.18  -0.12    -0.01  -0.02  -0.07    -0.03  -0.00   0.00
   5   8    -0.18   0.07  -0.04     0.05  -0.04  -0.04     0.27   0.01  -0.01
   6   6     0.17  -0.11   0.07    -0.04   0.01  -0.01    -0.17   0.01  -0.00
   7   1     0.20  -0.01   0.02     0.20   0.06  -0.20     0.29   0.07  -0.07
   8   1     0.19  -0.05  -0.01    -0.26  -0.19   0.08     0.27   0.03  -0.08
   9   1    -0.31  -0.23   0.23     0.00  -0.08  -0.11    -0.10  -0.10   0.09
  10   1     0.41  -0.08   0.01     0.42  -0.15   0.16    -0.12  -0.09   0.09
  11   1     0.38  -0.05   0.01    -0.40   0.23  -0.07    -0.14  -0.08   0.08
  12   1     0.07  -0.00   0.01     0.00   0.00  -0.00     0.05   0.02  -0.01
  13   1    -0.02   0.03  -0.02    -0.02   0.01  -0.00    -0.11   0.06  -0.04
  14   1     0.07  -0.02  -0.00     0.00   0.00  -0.00     0.06   0.01  -0.01
                     16                     17                     18
                        a                      a                      a 
 Frequencies --  1123.7845              1143.8900              1159.9020
 Red. masses --     1.2906                 3.1358                 2.2164
 Frc consts  --     0.0000                 0.0000                 0.0000
 IR Inten    --     1.5789               230.3362               129.8178
 Raman Activ --     0.0000                 0.0000                 0.0000
 Depolar     --     0.0000                 0.0000                 0.0000
 Atom AN      X      Y      Z        X      Y      Z        X      Y      Z
   1   6     0.00  -0.01   0.00     0.03  -0.06   0.02     0.03  -0.12   0.07
   2   6    -0.00  -0.00  -0.01     0.02  -0.01   0.04     0.02   0.11  -0.06
   3   6    -0.01  -0.01  -0.01    -0.59  -0.03   0.03    -0.37  -0.09   0.07
   4   8     0.00   0.00   0.01     0.07   0.05  -0.03     0.02  -0.13   0.09
   5   8     0.02   0.13   0.19     0.44  -0.17   0.09     0.34   0.33  -0.23
   6   6    -0.02  -0.23  -0.36    -0.12   0.31  -0.19    -0.17  -0.22   0.16
   7   1    -0.01  -0.00   0.00    -0.05  -0.02   0.02    -0.11  -0.02   0.02
   8   1    -0.00   0.00   0.00    -0.01   0.02   0.00    -0.07   0.02   0.02
   9   1     0.01   0.00  -0.00     0.05   0.04  -0.02     0.09   0.07  -0.05
  10   1     0.01  -0.00   0.00     0.17  -0.01  -0.02     0.10   0.03  -0.05
  11   1    -0.01   0.01  -0.00     0.15  -0.03   0.00     0.10   0.01  -0.02
  12   1    -0.48   0.35  -0.01    -0.18  -0.03  -0.02     0.29   0.05   0.01
  13   1     0.01   0.13   0.20     0.29  -0.19   0.11    -0.36   0.21  -0.13
  14   1     0.49  -0.17   0.30    -0.19   0.02   0.04     0.27   0.01  -0.07
                     19                     20                     21
                        a                      a                      a 
 Frequencies --  1217.4577              1316.7631              1387.2685
 Red. masses --     1.2335                 1.7600                 1.1514
 Frc consts  --     0.0000                 0.0000                 0.0000
 IR Inten    --     1.4019                44.4049                 7.5804
 Raman Activ --     0.0000                 0.0000                 0.0000
 Depolar     --     0.0000                 0.0000                 0.0000
 Atom AN      X      Y      Z        X      Y      Z        X      Y      Z
   1   6    -0.04  -0.23  -0.29    -0.12   0.10  -0.06     0.01  -0.01   0.00
   2   6     0.04   0.14   0.17     0.59  -0.08   0.00    -0.04   0.01  -0.01
   3   6     0.04   0.06   0.08    -0.27  -0.02   0.03     0.08  -0.01   0.00
   4   8    -0.00  -0.00  -0.01     0.03  -0.01   0.00    -0.00   0.03  -0.02
   5   8    -0.02  -0.01  -0.01     0.03   0.04  -0.03    -0.13   0.01  -0.01
   6   6     0.01  -0.00   0.00    -0.01   0.00  -0.00    -0.32   0.07  -0.04
   7   1    -0.22  -0.10   0.23     0.04  -0.00   0.07    -0.00   0.00  -0.01
   8   1     0.26   0.21  -0.11     0.02  -0.08  -0.00    -0.00   0.01  -0.00
   9   1    -0.01   0.09   0.12    -0.16  -0.12   0.11     0.01   0.01  -0.00
  10   1     0.47   0.03  -0.13    -0.50   0.04  -0.01     0.03  -0.00   0.01
  11   1    -0.54  -0.08   0.09    -0.45   0.07   0.03     0.02  -0.02  -0.00
  12   1    -0.00  -0.00   0.00     0.05  -0.00  -0.00     0.51  -0.08  -0.07
  13   1    -0.00   0.00  -0.00     0.04  -0.03   0.02     0.39  -0.35   0.22
  14   1    -0.00   0.00  -0.00     0.05   0.00   0.00     0.51   0.01   0.08
                     22                     23                     24
                        a                      a                      a 
 Frequencies --  1410.4069              1442.7929              1443.1578
 Red. masses --     1.2107                 1.0569                 1.1004
 Frc consts  --     0.0000                 0.0000                 0.0000
 IR Inten    --     5.1049                 6.8595                11.6141
 Raman Activ --     0.0000                 0.0000                 0.0000
 Depolar     --     0.0000                 0.0000                 0.0000
 Atom AN      X      Y      Z        X      Y      Z        X      Y      Z
   1   6     0.36   0.15  -0.16    -0.03  -0.01   0.01     0.10   0.03  -0.03
   2   6    -0.05   0.05  -0.04     0.02   0.06  -0.06    -0.07  -0.19   0.18
   3   6     0.02  -0.01   0.01    -0.01  -0.00   0.00     0.03   0.01  -0.01
   4   8    -0.01   0.02  -0.01     0.00   0.00  -0.00    -0.00  -0.01   0.01
   5   8     0.00  -0.00   0.00     0.00   0.02   0.03    -0.01  -0.00   0.02
   6   6     0.00   0.00   0.00     0.00   0.11   0.17    -0.00   0.04   0.05
   7   1    -0.46  -0.00   0.21     0.04   0.00  -0.02    -0.11  -0.01   0.07
   8   1    -0.45  -0.17   0.03     0.03   0.02  -0.00    -0.11  -0.06   0.01
   9   1    -0.27  -0.33   0.29     0.02   0.02  -0.02    -0.05  -0.07   0.06
  10   1     0.06  -0.04   0.16    -0.00  -0.04   0.19     0.01   0.13  -0.62
  11   1     0.04  -0.17   0.01    -0.03  -0.19   0.01     0.08   0.62  -0.04
  12   1    -0.01  -0.00   0.00    -0.40  -0.20   0.05    -0.11  -0.06   0.01
  13   1    -0.00   0.00  -0.00    -0.02  -0.38  -0.58     0.01  -0.12  -0.17
  14   1    -0.00  -0.00  -0.00     0.40   0.11  -0.17     0.13   0.03  -0.05
                     25                     26                     27
                        a                      a                      a 
 Frequencies --  1464.8153              1486.6448              1497.7980
 Red. masses --     1.0575                 1.0519                 1.0573
 Frc consts  --     0.0000                 0.0000                 0.0000
 IR Inten    --     4.4873                 3.5727                 4.7233
 Raman Activ --     0.0000                 0.0000                 0.0000
 Depolar     --     0.0000                 0.0000                 0.0000
 Atom AN      X      Y      Z        X      Y      Z        X      Y      Z
   1   6    -0.00   0.00  -0.00     0.01   0.13   0.17    -0.09   0.15  -0.11
   2   6    -0.00   0.00  -0.00     0.01   0.03   0.03    -0.05   0.04  -0.02
   3   6     0.01  -0.01   0.01     0.00  -0.00   0.00     0.01   0.01  -0.01
   4   8     0.01   0.02  -0.02     0.00   0.00  -0.00     0.00  -0.02   0.01
   5   8     0.01  -0.05   0.03    -0.00  -0.00   0.00     0.00   0.00  -0.00
   6   6    -0.04  -0.18   0.12     0.00  -0.00   0.00    -0.00   0.00  -0.00
   7   1     0.00  -0.00   0.00    -0.44   0.08  -0.16     0.12  -0.13   0.62
   8   1    -0.00  -0.00   0.00     0.45  -0.13   0.00     0.12  -0.65   0.05
   9   1     0.00   0.00   0.00    -0.05  -0.48  -0.53     0.16   0.16  -0.21
  10   1    -0.00  -0.00   0.00     0.02   0.01  -0.01     0.03   0.00   0.01
  11   1    -0.00  -0.00   0.00    -0.03  -0.01   0.01     0.03  -0.02  -0.01
  12   1    -0.02   0.67   0.03    -0.00   0.00   0.00     0.00  -0.00  -0.00
  13   1     0.16  -0.15   0.09     0.00  -0.00  -0.00    -0.00  -0.00  -0.00
  14   1    -0.04   0.24  -0.62     0.00   0.00  -0.00     0.00  -0.00   0.00
                     28                     29                     30
                        a                      a                      a 
 Frequencies --  1785.6351              2968.0360              2976.2972
 Red. masses --    12.1198                 1.0887                 1.0941
 Frc consts  --     0.0000                 0.0000                 0.0000
 IR Inten    --   409.5297                11.6731                17.5062
 Raman Activ --     0.0000                 0.0000                 0.0000
 Depolar     --     0.0000                 0.0000                 0.0000
 Atom AN      X      Y      Z        X      Y      Z        X      Y      Z
   1   6    -0.00  -0.00   0.00     0.00   0.01   0.02     0.00   0.00   0.00
   2   6    -0.04   0.04  -0.02    -0.02  -0.12  -0.26    -0.00  -0.00  -0.01
   3   6     0.08  -0.66   0.44    -0.00  -0.00  -0.01    -0.00   0.00   0.00
   4   8    -0.03   0.50  -0.33     0.00  -0.00   0.00    -0.00  -0.00  -0.00
   5   8     0.02   0.04  -0.03     0.00   0.00   0.00     0.00  -0.00  -0.00
   6   6     0.01  -0.01   0.00     0.00   0.00   0.01    -0.01  -0.16  -0.24
   7   1     0.01  -0.01   0.01    -0.00  -0.04  -0.00    -0.00  -0.00  -0.00
   8   1     0.01  -0.01   0.00    -0.00  -0.00  -0.07    -0.00  -0.00  -0.01
   9   1     0.02   0.02  -0.01    -0.01   0.01  -0.00    -0.00   0.00  -0.00
  10   1    -0.04   0.01  -0.03     0.03   0.35   0.05     0.00   0.01   0.00
  11   1    -0.03   0.03   0.00     0.05   0.07   0.88     0.00   0.00   0.04
  12   1    -0.02  -0.02   0.01    -0.00   0.00  -0.04     0.06  -0.05   0.66
  13   1    -0.03   0.02  -0.01    -0.00  -0.00   0.00    -0.00  -0.02  -0.04
  14   1    -0.01  -0.01   0.01     0.00  -0.02  -0.01    -0.04   0.65   0.23
                     31                     32                     33
                        a                      a                      a 
 Frequencies --  2987.7261              2989.7070              3044.8307
 Red. masses --     1.0451                 1.0543                 1.0765
 Frc consts  --     0.0000                 0.0000                 0.0000
 IR Inten    --    11.5018                19.4842                12.4370
 Raman Activ --     0.0000                 0.0000                 0.0000
 Depolar     --     0.0000                 0.0000                 0.0000
 Atom AN      X      Y      Z        X      Y      Z        X      Y      Z
   1   6     0.00  -0.01  -0.00    -0.01   0.02  -0.00    -0.03   0.02  -0.02
   2   6     0.01   0.09  -0.01    -0.01  -0.20   0.04    -0.00   0.00  -0.00
   3   6    -0.00   0.00   0.00     0.00  -0.01   0.01     0.00  -0.00   0.00
   4   8    -0.00   0.00  -0.00    -0.00   0.00  -0.00     0.00   0.00  -0.00
   5   8     0.01  -0.01   0.00     0.01  -0.00   0.00    -0.01  -0.00   0.00
   6   6     0.03  -0.14   0.10     0.01  -0.07   0.04    -0.17  -0.16   0.11
   7   1     0.00   0.03   0.01    -0.01  -0.07  -0.01    -0.00  -0.00  -0.00
   8   1     0.00  -0.00  -0.00    -0.00   0.00   0.01    -0.00   0.01   0.02
   9   1    -0.01   0.01  -0.01     0.03  -0.01   0.01     0.13  -0.07   0.05
  10   1    -0.03  -0.37  -0.09     0.07   0.78   0.20    -0.00  -0.01  -0.00
  11   1     0.01   0.03   0.15    -0.02  -0.06  -0.34     0.00   0.00   0.01
  12   1    -0.07  -0.00  -0.64    -0.03  -0.00  -0.29    -0.02  -0.02  -0.03
  13   1    -0.04  -0.05   0.04    -0.02  -0.02   0.02     0.66   0.56  -0.39
  14   1    -0.04   0.56   0.25    -0.02   0.27   0.12    -0.02   0.02   0.04
                     34                     35                     36
                        a                      a                      a 
 Frequencies --  3045.8031              3050.6662              3057.1219
 Red. masses --     1.0752                 1.0906                 1.0502
 Frc consts  --     0.0000                 0.0000                 0.0000
 IR Inten    --    30.2513                25.3181                16.4660
 Raman Activ --     0.0000                 0.0000                 0.0000
 Depolar     --     0.0000                 0.0000                 0.0000
 Atom AN      X      Y      Z        X      Y      Z        X      Y      Z
   1   6     0.21  -0.11   0.11     0.00   0.16   0.23    -0.01  -0.19   0.08
   2   6     0.01  -0.01   0.01     0.00   0.02   0.02    -0.00  -0.02   0.01
   3   6    -0.00  -0.00   0.00     0.00  -0.00   0.00    -0.00  -0.00   0.00
   4   8    -0.00   0.00  -0.00     0.00   0.00  -0.00     0.00   0.00  -0.00
   5   8    -0.00   0.00  -0.00    -0.00  -0.00  -0.00     0.00   0.00  -0.00
   6   6    -0.03  -0.03   0.02     0.00   0.00   0.00    -0.00  -0.00   0.00
   7   1     0.03  -0.03   0.01    -0.02  -0.49  -0.08     0.04   0.80   0.19
   8   1     0.02  -0.03  -0.07    -0.05  -0.07  -0.81    -0.03  -0.08  -0.51
   9   1    -0.77   0.44  -0.32     0.07  -0.01   0.06     0.03  -0.04   0.02
  10   1     0.00   0.03   0.01    -0.00  -0.05  -0.01     0.00   0.06   0.02
  11   1    -0.00  -0.00  -0.03    -0.00  -0.00  -0.06    -0.00  -0.00  -0.03
  12   1    -0.00  -0.00  -0.01    -0.00   0.00  -0.00    -0.00  -0.00  -0.00
  13   1     0.11   0.10  -0.07     0.00   0.00  -0.00     0.01   0.01  -0.00
  14   1    -0.00   0.00   0.01     0.00  -0.00  -0.00    -0.00   0.00   0.00
