
                                 *****************
                                 * O   R   C   A *
                                 *****************

                                            #,                                       
                                            ###                                      
                                            ####                                     
                                            #####                                    
                                            ######                                   
                                           ########,                                 
                                     ,,################,,,,,                         
                               ,,#################################,,                 
                          ,,##########################################,,             
                       ,#########################################, ''#####,          
                    ,#############################################,,   '####,        
                  ,##################################################,,,,####,       
                ,###########''''           ''''###############################       
              ,#####''   ,,,,##########,,,,          '''####'''          '####       
            ,##' ,,,,###########################,,,                        '##       
           ' ,,###''''                  '''############,,,                           
         ,,##''                                '''############,,,,        ,,,,,,###''
      ,#''                                            '''#######################'''  
     '                                                          ''''####''''         
             ,#######,   #######,   ,#######,      ##                                
            ,#'     '#,  ##    ##  ,#'     '#,    #''#        ,####,   ,####,        
            ##       ##  ##   ,#'  ##            #'  '#       #'       #'  '#        
            ##       ##  #######   ##           ,######,      #####,   #    #        
            '#,     ,#'  ##    ##  '#,     ,#' ,#      #,     #,   #   #,  ,#        
             '#######'   ##     ##  '#######'  #'      '#     '####' # '####'        



                #########################################################
                #                        -***-                          #
                #          Department of theory and spectroscopy        #
                #                                                       #
                #                      Frank Neese                      #
                #                                                       #
                #     Directorship, Architecture, Infrastructure        #
                #                    SHARK, DRIVERS                     #
                #        Core code/Algorithms in most modules           #
                #                                                       #
                #        Max Planck Institute fuer Kohlenforschung      #
                #                Kaiser Wilhelm Platz 1                 #
                #                 D-45470 Muelheim/Ruhr                 #
                #                      Germany                          #
                #                                                       #
                #                  All rights reserved                  #
                #                        -***-                          #
                #########################################################


                         Program Version 6.0.1  -  RELEASE   -


 With contributions from (in alphabetic order):
[Max-Planck-Institut fuer Kohlenforschung]                               
  Daniel Aravena         : Magnetic Suceptibility                        
  Michael Atanasov       : Ab Initio Ligand Field Theory (pilot matlab implementation)
  Alexander A. Auer      : GIAO ZORA, VPT2 properties, NMR spectrum      
  Ute Becker             : All parallelization in ORCA, NUMFREQ, NUMCALC 
  Giovanni Bistoni       : ED, misc. LED, open-shell LED, HFLD           
  Martin Brehm           : Molecular dynamics                            
  Dmytro Bykov           : pre 5.0 version of the SCF Hessian            
  Marcos Casanova-Páez   : Triplet and SCS-CIS(D). UHF-(DLPNO)-IP/EA/STEOM-CCSD. UHF-CVS-IP/STEOM-CCSD   
  Vijay G. Chilkuri      : MRCI spin determinant printing, contributions to CSF-ICE 
  Pauline Colinet        : FMM embedding                                 
  Dipayan Datta          : RHF DLPNO-CCSD density                        
  Achintya Kumar Dutta   : EOM-CC, STEOM-CC                              
  Nicolas Foglia         : Exact transition moments, OPA infrastructure, MCD improvements    
  Dmitry Ganyushin       : Spin-Orbit,Spin-Spin,Magnetic field MRCI      
  Miquel Garcia-Rates    : C-PCM and meta-GGA Hessian, CCSD/C-PCM, Gaussian charge scheme 
  Tiago L. C. Gouveia    : GS-ROHF, GS-ROCIS                             
  Yang Guo               : DLPNO-NEVPT2, F12-NEVPT2, CIM, IAO-localization        
  Andreas Hansen         : Spin unrestricted coupled pair/coupled cluster methods 
  Ingolf Harden          : AUTO-CI MPn and infrastructure                
  Benjamin Helmich-Paris : MC-RPA, TRAH-(SCF,CASSCF), AVAS, COSX integrals, SCF dyn. polar. 
  Lee Huntington         : MR-EOM, pCC                                   
  Robert Izsak           : Overlap fitted RIJCOSX, COSX-SCS-MP3, EOM     
  Riya Kayal             : Wick's Theorem for AUTO-CI, AUTO-CI UHF-CCSDT 
  Emily Kempfer          : AUTO-CI, RHF CISDT and CCSDT                  
  Christian Kollmar      : KDIIS, OOCD, Brueckner-CCSD(T), CCSD density, CASPT2, CASPT2-K, improved NEVPT2 
  Axel Koslowski         : Symmetry handling                             
  Simone Kossmann        : meta-GGA functionals, TD-DFT gradient, OOMP2, (MP2 Hessian; deprecated post 5.0) 
  Lucas Lang             : DCDCAS                                        
  Marvin Lechner         : AUTO-CI (C++ implementation), FIC-MRCC        
  Spencer Leger          : CASSCF response                               
  Dagmar Lenk            : GEPOL surface, SMD, ORCA-2-JSON               
  Dimitrios Liakos       : Extrapolation schemes; Compound Job, initial MDCI parallelization 
  Dimitrios Manganas     : Further ROCIS development; embedding schemes. LFT, Crystal Embedding 
  Dimitrios Pantazis     : SARC Basis sets                               
  Anastasios Papadopoulos: AUTO-CI, single reference methods and gradients 
  Taras Petrenko         : pre 6.0 DFT Hessian and TD-DFT gradient, (ASA, deprecated), ECA, 1-Electron XAS/XES, NRVS 
  Peter Pinski           : DLPNO-MP2, DLPNO-MP2 Gradient                 
  Christoph Reimann      : Effective Core Potentials                     
  Marius Retegan         : Local ZFS, SOC                                
  Christoph Riplinger    : Optimizer, TS searches, QM/MM, DLPNO-CCSD(T), (RO)-DLPNO pert. Triples 
  Michael Roemelt        : Original ROCIS implementation                 
  Masaaki Saitow         : Open-shell DLPNO-CCSD energy and density      
  Barbara Sandhoefer     : DKH picture change effects                    
  Kantharuban Sivalingam : CASSCF convergence/infrastructure, NEVPT2 and variants, FIC-MRCI 
  Bernardo de Souza      : ESD, SOC TD-DFT                               
  Georgi L. Stoychev     : AutoAux, RI-MP2 NMR, DLPNO-MP2 response, X2C  
  Van Anh Tran           : RI-MP2 g-tensors                              
  Willem Van den Heuvel  : Paramagnetic NMR                              
  Zikuan Wang            : NOTCH, Electric field optimization            
  Frank Wennmohs         : Technical directorship and infrastructure     
  Hang Xu                : AUTO-CI-Response properties                   
                                                                         
[FACCTs GmbH]                                                            
  Markus Bursch, Miquel Garcia-Rates, Christoph Riplinger, Bernardo de Souza, Georgi L. Stoychev 
                                                                 
  APM, Basis sets (HGBS, AHGBS, def-TZVP (Ac-Lr), def2-XVPD (La-Lu)), CI-OPT, improved COSX, DLPNO-Multilevel,           
  DOCKER, DRACO, updates on ESD, GOAT, IRC, LR-CPCM, MBIS, meta-GGA TD-DFT gradient, ML-optimized integration grids, 
  MM, NACMEs, nearIR, NEB, NEB-TS, NL-DFT gradient (VV10), 2- and 3-layer-ONIOM, interface openCOSMO-RS, QMMM,   
  Crystal-QMMM, SF, symmetry and pop. for TD-DFT, r2SCAN hybrids, SOLVATOR                                   
                                                                         
[Other institutions]                                                     
  V. Asgeirsson          : NEB                                           
  Christoph Bannwarth    : sTDA-DFT, sTD-DFT, PBEh-3c, B97-3c, D3        
  Sebastian Ehlert       : rSCAN, r2SCAN, r2SCAN-3c, D4, dhf basis sets  
  Marvin Friede          : D4 for Fr, Ra, Ac-Lr                          
  Lars Goerigk           : TD-DFT with DH, B97 family of functionals     
  Stefan Grimme          : VdW corrections, initial TS optimization, DFT functionals, gCP, sTDA/sTD-DF 
  Waldemar Hujo          : DFT-NL                                        
  H. Jonsson             : NEB                                           
  Holger Kruse           : gCP                                           
  Marcel Mueller         : wB97X-3c, vDZP basis set                      
  Hagen Neugebauer       : wr2SCAN                                       
  Tobias Risthaus        : range-separated hybrid DFT                    
  Lukas Wittmann         : regularized MP2, r2SCAN double-hybrids, wr2SCAN        
                                                                         
We gratefully acknowledge several colleagues who have allowed us to      
interface, adapt or use parts of their codes:                            
  Ed Valeev, F. Pavosevic, A. Kumar             : LibInt (2-el integral package), F12 methods 
  Garnet Chan, S. Sharma, J. Yang, R. Olivares  : DMRG                   
  Ulf Ekstrom                                   : XCFun DFT Library      
  Mihaly Kallay                                 : mrcc  (arbitrary order and MRCC methods)
  Frank Weinhold                                : gennbo (NPA and NBO analysis)           
  Simon Mueller                                 : openCOSMO-RS                            
  Christopher J. Cramer and Donald G. Truhlar   : smd solvation model                     
  S Lehtola, MJT Oliveira, MAL Marques          : LibXC Library                           
  Liviu Ungur et al                             : ANISO software                          


 Your calculation uses the libint2 library for the computation of 2-el integrals
 For citations please refer to: http://libint.valeyev.net

 Your ORCA version has been built with support for libXC version: 6.2.2
 For citations please refer to: https://libxc.gitlab.io

 This ORCA versions uses:
   CBLAS   interface :  Fast vector & matrix operations
   LAPACKE interface :  Fast linear algebra routines
   SCALAPACK package :  Parallel linear algebra routines
   Shared memory     :  Shared parallel matrices
   BLAS/LAPACK       :  OpenBLAS 0.3.27  USE64BITINT DYNAMIC_ARCH NO_AFFINITY Zen SINGLE_THREADED
        Core in use  :  Zen
   Copyright (c) 2011-2014, The OpenBLAS Project


Your calculation utilizes the geometrical counterpoise correction gCP
Please cite in your paper:
H.Kruse, S. Grimme J.Chem.Phys., 136, (2012), 154101 
   

Your calculation utilizes the atom-pairwise dispersion correction
based on EEQ partial charges (D4)


================================================================================

----- Orbital basis set information -----
Your calculation utilizes the basis: def2-mTZVPP
   Stefan Grimme, Andreas Hansen, Sebastian Ehlert, and Jan-Michael Mewes 
   J. Chem. Phys. 154, 064103 (2021). DOI: 10.1063/5.0040021

----- AuxJ basis set information -----
Your calculation utilizes the auxiliary basis: def2/J
   F. Weigend, Phys. Chem. Chem. Phys. 8, 1057 (2006).

================================================================================
                                        WARNINGS
                       Please study these warnings very carefully!
================================================================================

WARNING: Old DensityContainer found on disk!
         Will remove this file - 
         If you want to keep old densities, please start your calculation with a different basename. 



WARNING: SCAN, rSCAN, or r2SCAN functional requested.
  ===> : libXC variant has now been activated.



================================================================================
                                       INPUT FILE
================================================================================
NAME = sp.inp
|  1> ! r2scan-3c def2/J RI DEFGRID2 scfconv6 printgap
|  2> %output
|  3>     printlevel normal
|  4> end
|  5> * xyz 0 1
|  6> C -1.2633364285 0.2804373764 0.0182988305
|  7> C -0.0005265995 -0.5728464057 0.0182904508
|  8> N 1.221664531 0.2340925862 0.0182912458
|  9> H -2.1462185298 -0.3518407977 0.0699827666
| 10> H -1.2638621186 0.9469721407 0.878046797
| 11> H -1.3213877567 0.8807869541 -0.88893475
| 12> H -0.0241588359 -1.2515019939 -0.8425129054
| 13> H 0.0137714995 -1.192291378 0.9239540503
| 14> H 0.9962164186 1.2170791466 -0.0797552453
| 15> H 1.8295466968 -0.0177721606 -0.7510018164
| 16> *
| 17> 
| 18>                          ****END OF INPUT****
================================================================================

                       ****************************
                       * Single Point Calculation *
                       ****************************

---------------------------------
CARTESIAN COORDINATES (ANGSTROEM)
---------------------------------
  C     -1.263336    0.280437    0.018299
  C     -0.000527   -0.572846    0.018290
  N      1.221665    0.234093    0.018291
  H     -2.146219   -0.351841    0.069983
  H     -1.263862    0.946972    0.878047
  H     -1.321388    0.880787   -0.888935
  H     -0.024159   -1.251502   -0.842513
  H      0.013771   -1.192291    0.923954
  H      0.996216    1.217079   -0.079755
  H      1.829547   -0.017772   -0.751002

----------------------------
CARTESIAN COORDINATES (A.U.)
----------------------------
  NO LB      ZA    FRAG     MASS         X           Y           Z
   0 C     6.0000    0    12.011   -2.387360    0.529950    0.034580
   1 C     6.0000    0    12.011   -0.000995   -1.082523    0.034564
   2 N     7.0000    0    14.007    2.308611    0.442371    0.034565
   3 H     1.0000    0     1.008   -4.055765   -0.664883    0.132248
   4 H     1.0000    0     1.008   -2.388353    1.789518    1.659268
   5 H     1.0000    0     1.008   -2.497061    1.664446   -1.679843
   6 H     1.0000    0     1.008   -0.045654   -2.364996   -1.592119
   7 H     1.0000    0     1.008    0.026024   -2.253104    1.746020
   8 H     1.0000    0     1.008    1.882576    2.299946   -0.150716
   9 H     1.0000    0     1.008    3.457342   -0.033585   -1.419188

--------------------------------
INTERNAL COORDINATES (ANGSTROEM)
--------------------------------
 C      0   0   0     0.000000000000     0.00000000     0.00000000
 C      1   0   0     1.524067543478     0.00000000     0.00000000
 N      2   1   0     1.464548290813   112.51863372     0.00000000
 H      1   2   3     1.087164993683   110.32056615   182.90591114
 H      1   2   3     1.087858186655   110.08664669   302.70182023
 H      1   2   3     1.089432118921   110.65095907    62.86616517
 H      2   1   3     1.096409735472   109.18958047   236.23228475
 H      2   1   3     1.097334527299   109.07706720   119.15616059
 H      3   2   1     1.013263314114   110.41639155   354.07334335
 H      3   2   1     1.012308447919   111.34816751   234.67845100

---------------------------
INTERNAL COORDINATES (A.U.)
---------------------------
 C      0   0   0     0.000000000000     0.00000000     0.00000000
 C      1   0   0     2.880070266772     0.00000000     0.00000000
 N      2   1   0     2.767595179538   112.51863372     0.00000000
 H      1   2   3     2.054444100447   110.32056615   182.90591114
 H      1   2   3     2.055754045321   110.08664669   302.70182023
 H      1   2   3     2.058728346259   110.65095907    62.86616517
 H      2   1   3     2.071914130607   109.18958047   236.23228475
 H      2   1   3     2.073661733891   109.07706720   119.15616059
 H      3   2   1     1.914790165224   110.41639155   354.07334335
 H      3   2   1     1.912985729621   111.34816751   234.67845100

---------------------
BASIS SET INFORMATION
---------------------
There are 3 groups of distinct atoms

 Group   1 Type C   : 11s6p1d contracted to 5s3p1d pattern {62111/411/1}
 Group   2 Type N   : 11s6p2d contracted to 5s3p2d pattern {62111/411/11}
 Group   3 Type H   : 4s1p contracted to 2s1p pattern {31/1}

Atom   0C    basis set group =>   1
Atom   1C    basis set group =>   1
Atom   2N    basis set group =>   2
Atom   3H    basis set group =>   3
Atom   4H    basis set group =>   3
Atom   5H    basis set group =>   3
Atom   6H    basis set group =>   3
Atom   7H    basis set group =>   3
Atom   8H    basis set group =>   3
Atom   9H    basis set group =>   3
---------------------------------
AUXILIARY/J BASIS SET INFORMATION
---------------------------------
There are 3 groups of distinct atoms

 Group   1 Type C   : 12s5p4d2f1g contracted to 6s4p3d1f1g pattern {711111/2111/211/2/1}
 Group   2 Type N   : 12s5p4d2f1g contracted to 6s4p3d1f1g pattern {711111/2111/211/2/1}
 Group   3 Type H   : 5s2p1d contracted to 3s1p1d pattern {311/2/1}

Atom   0C    basis set group =>   1
Atom   1C    basis set group =>   1
Atom   2N    basis set group =>   2
Atom   3H    basis set group =>   3
Atom   4H    basis set group =>   3
Atom   5H    basis set group =>   3
Atom   6H    basis set group =>   3
Atom   7H    basis set group =>   3
Atom   8H    basis set group =>   3
Atom   9H    basis set group =>   3

Checking for AutoStart:
The File: sp.gbw exists
Trying to determine its content:
     ... Fine, the file contains calculation information
     ... Fine, the calculation information was read
     ... Fine, the file contains a basis set
     ... Fine, the basis set was read
     ... Fine, the file contains a geometry
     ... Fine, the geometry was read
     ... Fine, the file contains a set of orbitals
     ... Fine, the orbitals can be read
     => possible old guess file was deleted
     => GBW file was renamed to GES file
     => GES file is set as startup file
     => Guess is set to MORead
     ... now leaving AutoStart

------------------------------------------------------------------------------
                             ORCA STARTUP CALCULATIONS
                           -- RI-GTO INTEGRALS CHOSEN --
------------------------------------------------------------------------------
------------------------------------------------------------------------------
                   ___                                                        
                  /   \      - P O W E R E D   B Y -                         
                 /     \                                                     
                 |  |  |   _    _      __       _____    __    __             
                 |  |  |  | |  | |    /  \     |  _  \  |  |  /  |          
                  \  \/   | |  | |   /    \    | | | |  |  | /  /          
                 / \  \   | |__| |  /  /\  \   | |_| |  |  |/  /          
                |  |  |   |  __  | /  /__\  \  |    /   |      \           
                |  |  |   | |  | | |   __   |  |    \   |  |\   \          
                \     /   | |  | | |  |  |  |  | |\  \  |  | \   \       
                 \___/    |_|  |_| |__|  |__|  |_| \__\ |__|  \__/        
                                                                              
                      - O R C A' S   B I G   F R I E N D -                    
                                      &                                       
                       - I N T E G R A L  F E E D E R -                       
                                                                              
 v1 FN, 2020, v2 2021, v3 2022-2024                                           
------------------------------------------------------------------------------


----------------------
SHARK INTEGRAL PACKAGE
----------------------

Number of atoms                             ...     10
Number of basis functions                   ...     97
Number of shells                            ...     49
Maximum angular momentum                    ...      2
Integral batch strategy                     ... SHARK/LIBINT Hybrid
RI-J (if used) integral strategy            ... SPLIT-RIJ (Revised 2003 algorithm where possible)
Printlevel                                  ...      1
Contraction scheme used                     ... SEGMENTED contraction
Prescreening option                         ... SCHWARTZ
   Thresh                                   ... 1.000e-10
   Tcut                                     ... 1.000e-11
   Tpresel                                  ... 1.000e-11 
Coulomb Range Separation                    ... NOT USED
Exchange Range Separation                   ... NOT USED
Multipole approximations                    ... NOT USED
Finite Nucleus Model                        ... NOT USED
CABS basis                                  ... NOT available
Auxiliary Coulomb fitting basis             ... AVAILABLE
   # of basis functions in Aux-J            ...    224
   # of shells in Aux-J                     ...     80
   Maximum angular momentum in Aux-J        ...      4
Auxiliary J/K fitting basis                 ... NOT available
Auxiliary Correlation fitting basis         ... NOT available
Auxiliary 'external' fitting basis          ... NOT available

Checking pre-screening integrals            ... done (  0.0 sec) Dimension = 49
Check shell pair data                       ... done (  0.0 sec)
Shell pair information
Shell pair cut-off parameter TPreSel        ...   1.0e-11
Total number of shell pairs                 ...      1225
Shell pairs after pre-screening             ...      1214
Total number of primitive shell pairs       ...      4182
Primitive shell pairs kept                  ...      3417
          la=0 lb=0:    428 shell pairs
          la=1 lb=0:    461 shell pairs
          la=1 lb=1:    135 shell pairs
          la=2 lb=0:    116 shell pairs
          la=2 lb=1:     64 shell pairs
          la=2 lb=2:     10 shell pairs

Calculating one electron integrals          ... done (  0.0 sec)
Calculating RI/J V-Matrix + Cholesky decomp.... done (  0.0 sec)
Calculating Nuclear repulsion               ... done (  0.0 sec) ENN=     83.071863252716 Eh

Diagonalization of the overlap matrix:
Smallest eigenvalue                        ... 5.133e-04
Time for diagonalization                   ...    0.001 sec
Threshold for overlap eigenvalues          ... 1.000e-07
Number of eigenvalues below threshold      ... 0
Time for construction of square roots      ...    0.000 sec
Total time needed                          ...    0.002 sec

-------------------
DFT GRID GENERATION
-------------------

General Integration Accuracy     IntAcc      ... 4.388
Radial Grid Type                 RadialGrid  ... OptM3 with GC (2021)
Angular Grid (max. ang.)         AngularGrid ... 4 (Lebedev-302)
Angular grid pruning method      GridPruning ... 4 (adaptive)
Weight generation scheme         WeightScheme... mBecke (2022)
Basis function cutoff            BFCut       ... 1.0000e-10
Integration weight cutoff        WCut        ... 1.0000e-14
Partially contracted basis set               ... off
Rotationally invariant grid construction     ... off
Angular grids for H and He will be reduced by one unit

Total number of grid points                  ...    40881
Total number of batches                      ...      644
Average number of points per batch           ...       63
Average number of grid points per atom       ...     4088
Initializing property integral containers    ... done (  0.0 sec)

SHARK setup successfully completed in   0.2 seconds

Maximum memory used throughout the entire STARTUP-calculation: 17.5 MB
-------------------------------------------------------------------------------
                                 ORCA GUESS
                   Start orbitals & Density for SCF / CASSCF
-------------------------------------------------------------------------------

------------
SCF SETTINGS
------------
Hamiltonian:
 Density Functional     Method          .... DFT(GTOs)
  Functional kind                       .... Exchange
  Functional name                       .... Re-regularized SCAN exchange by Furness et al
  Functional family                     .... MGGA
  Functional refs                              
    [ 0] J. W. Furness, A. D. Kaplan, J. Ning, J. P. Perdew, and J. Sun.,  J. Phys. Chem. Lett. 11, 8208-8215 (2020), doi: 10.1021/acs.jpclett.0c02405
    [ 1] J. W. Furness, A. D. Kaplan, J. Ning, J. P. Perdew, and J. Sun.,  J. Phys. Chem. Lett. 11, 9248-9248 (2020), doi: 10.1021/acs.jpclett.0c03077
  Functional external parameters        .... 6
    Parameter  0 _c1        =  6.670000e-01 : c1 parameter        
    Parameter  1 _c2        =  8.000000e-01 : c2 parameter        
    Parameter  2 _d         =  1.240000e+00 : d parameter         
    Parameter  3 _k1        =  6.500000e-02 : k1 parameter        
    Parameter  4 _eta       =  1.000000e-03 : eta parameter       
    Parameter  5 _dp2       =  3.610000e-01 : dp2 parameter       
  Functional kind                       .... Correlation
  Functional name                       .... Re-regularized SCAN correlation by Furness et al
  Functional family                     .... MGGA
  Functional refs                              
    [ 0] J. W. Furness, A. D. Kaplan, J. Ning, J. P. Perdew, and J. Sun.,  J. Phys. Chem. Lett. 11, 8208-8215 (2020), doi: 10.1021/acs.jpclett.0c02405
    [ 1] J. W. Furness, A. D. Kaplan, J. Ning, J. P. Perdew, and J. Sun.,  J. Phys. Chem. Lett. 11, 9248-9248 (2020), doi: 10.1021/acs.jpclett.0c03077
  Functional external parameters        .... 1
    Parameter  0 _eta       =  1.000000e-03 : Regularization parameter
 Gradients option       PostSCFGGA      .... off
 RI-approximation to the Coulomb term is turned on
   Number of AuxJ basis functions       .... 224


General Settings:
 Integral files         IntName         .... sp
 Hartree-Fock type      HFTyp           .... RHF
 Total Charge           Charge          ....    0
 Multiplicity           Mult            ....    1
 Number of Electrons    NEL             ....   26
 Basis Dimension        Dim             ....   97
 Nuclear Repulsion      ENuc            ....     83.0718632527 Eh

Convergence Acceleration:
 AO-DIIS                CNVDIIS         .... on
   Start iteration      DIISMaxIt       ....    12
   Startup error        DIISStart       ....  0.200000
   # of expansion vecs  DIISMaxEq       ....     5
   Bias factor          DIISBfac        ....   1.050
   Max. coefficient     DIISMaxC        ....  10.000
 MO-DIIS                CNVKDIIS        .... off
 Trust-Rad. Augm. Hess. CNVTRAH         .... auto
   Auto Start mean grad. ratio tolernc. ....  1.125000
   Auto Start start iteration           ....     1
   Auto Start num. interpolation iter.  ....    10
   Max. Number of Micro iterations      ....    24
   Max. Number of Macro iterations      .... Maxiter - #DIIS iter
   Number of Davidson start vectors     ....     2
   Converg. threshold    (grad. norm)   ....   3.330e-04
   Grad. Scal. Fac. for Micro threshold ....   0.100
   Minimum threshold for Micro iter.    ....   1.000e-02
   NR start threshold (gradient norm)   ....   1.000e-04
   Initial trust radius                 ....   0.400
   Minimum AH scaling param. (alpha)    ....   1.000
   Maximum AH scaling param. (alpha)    .... 1000.000
   Quad. conv. algorithm                .... NR
   White noise on init. David. guess    .... on
   Maximum white noise                  ....   0.010
   Pseudo random numbers                .... off
   Inactive MOs                         .... canonical
   Orbital update algorithm             .... Taylor
   Preconditioner                       .... Diag
   Full preconditioner red. dimension   ....   250
   COSX micro iterations for RIJONX calc.... off
 SOSCF                  CNVSOSCF        .... on
   Start iteration      SOSCFMaxIt      ....   150
   Startup grad/error   SOSCFStart      ....  0.003300
   Hessian update       SOSCFHessUp     .... L-BFGS
 Level Shifting         CNVShift        .... on
   Level shift para.    LevelShift      ....    0.2500
   Turn off err/grad.   ShiftErr        ....    0.0010
 Zerner damping         CNVZerner       .... off
 Static damping         CNVDamp         .... on
   Fraction old density DampFac         ....    0.7000
   Max. Damping (<1)    DampMax         ....    0.9800
   Min. Damping (>=0)   DampMin         ....    0.0000
   Turn off err/grad.   DampErr         ....    0.1000

SCF Procedure:
 Maximum # iterations   MaxIter         ....   125
 SCF integral mode      SCFMode         .... Direct
   Integral package                     .... SHARK and LIBINT hybrid scheme
 Reset frequency        DirectResetFreq ....    20
 Integral Threshold     Thresh          ....  1.000e-10 Eh
 Primitive CutOff       TCut            ....  1.000e-11 Eh

Convergence Tolerance:
 Convergence Check Mode ConvCheckMode   .... Total+1el-Energy
 Convergence forced     ConvForced      .... 0
 Energy Change          TolE            ....  1.000e-06 Eh
 1-El. energy change                    ....  1.000e-03 Eh
 Orbital Gradient       TolG            ....  3.330e-04
 Orbital Rotation angle TolX            ....  3.330e-04
 DIIS Error             TolErr          ....  1.000e-06

---------------------
INITIAL GUESS: MOREAD
---------------------
Guess MOs are being read from file: sp.ges
Input Geometry matches current geometry (good)
Atom 0: N(Shells)= 9 and 6 - projection required
Input basis set needs projection
NBasis(read)= 56
NBasis(calc)= 97
Basis set overlap was calculated
Using GuessMode=FMatrix for the initial guess
C*T matrix was formed
Effective Fockian was calculated
Effective Fockian was diagonalized
Initial density was built
                      ------------------
                      INITIAL GUESS DONE (   0.0 sec)
                      ------------------
             **** ENERGY FILE WAS UPDATED (sp.en.tmp) ****
Finished Guess after   0.0 sec
Maximum memory used throughout the entire GUESS-calculation: 7.7 MB

-------------------------------------------------------------------------------------------
                                      ORCA LEAN-SCF
                              memory conserving SCF solver
-------------------------------------------------------------------------------------------

----------------------------------------D-I-I-S--------------------------------------------
Iteration    Energy (Eh)           Delta-E    RMSDP     MaxDP     DIISErr   Damp  Time(sec)
-------------------------------------------------------------------------------------------
               ***  Starting incremental Fock matrix formation  ***
    1    -135.0409141302833405     0.00e+00  3.72e-03  5.40e-02  4.43e-01  0.700   0.3
    2    -135.0666041991943871    -2.57e-02  3.13e-03  4.03e-02  3.11e-01  0.700   0.3
    3    -135.0849172104981335    -1.83e-02  2.33e-03  2.99e-02  2.18e-01  0.700   0.3
                               ***Turning on AO-DIIS***
    4    -135.0978045581680931    -1.29e-02  1.73e-03  2.17e-02  1.53e-01  0.700   0.3
    5    -135.1068596254807517    -9.06e-03  1.24e-03  1.55e-02  1.07e-01  0.700   0.3
    6    -135.1132195279172379    -6.36e-03  8.86e-04  1.10e-02  7.47e-02  0.700   0.3
    7    -135.1176832021541827    -4.46e-03  2.09e-03  2.58e-02  5.23e-02  0.000   0.3
                              *** Initializing SOSCF ***
---------------------------------------S-O-S-C-F--------------------------------------
Iteration    Energy (Eh)           Delta-E    RMSDP     MaxDP     MaxGrad    Time(sec)
--------------------------------------------------------------------------------------
    8    -135.1281351378117392    -1.05e-02  2.27e-05  2.68e-04  1.98e-04     0.3
               *** Restarting incremental Fock matrix formation ***
    9    -135.1281352796532929    -1.42e-07  1.33e-05  1.64e-04  4.58e-05     0.3
                  *** Gradient check signals convergence ***

               *****************************************************
               *                     SUCCESS                       *
               *           SCF CONVERGED AFTER   9 CYCLES          *
               *****************************************************

             **** ENERGY FILE WAS UPDATED (sp.en.tmp) ****

----------------
TOTAL SCF ENERGY
----------------

Total Energy       :       -135.12813527965329 Eh           -3677.02350 eV

Components:
Nuclear Repulsion  :         83.07186325271606 Eh            2260.50032 eV
Electronic Energy  :       -218.19999853236936 Eh           -5937.52382 eV
One Electron Energy:       -345.57008694797031 Eh           -9403.44013 eV
Two Electron Energy:        127.37008841560093 Eh            3465.91631 eV

Virial components:
Potential Energy   :       -269.62767823975344 Eh           -7336.94213 eV
Kinetic Energy     :        134.49954296010017 Eh            3659.91863 eV
Virial Ratio       :          2.00467356472534

DFT components:
N(Alpha)           :       13.000004914354 electrons
N(Beta)            :       13.000004914354 electrons
N(Total)           :       26.000009828708 electrons
E(X)               :      -19.534063148157 Eh       
E(C)               :       -0.798145036910 Eh       
E(XC)              :      -20.332208185067 Eh       

---------------
SCF CONVERGENCE
---------------

  Last Energy change         ...    1.4184e-07  Tolerance :   1.0000e-06
  Last MAX-Density change    ...    1.6404e-04  Tolerance :   1.0000e-05
  Last RMS-Density change    ...    1.3281e-05  Tolerance :   1.0000e-06
  Last DIIS Error            ...    1.9798e-04  Tolerance :   1.0000e-06
  Last Orbital Gradient      ...    4.5814e-05  Tolerance :   3.3300e-04
  Last Orbital Rotation      ...    6.5268e-05  Tolerance :   3.3300e-04


----------------
ORBITAL ENERGIES
----------------

  NO   OCC          E(Eh)            E(eV) 
   0   2.0000     -14.130656      -384.5147 
   1   2.0000     -10.049563      -273.4625 
   2   2.0000     -10.020691      -272.6769 
   3   2.0000      -0.841107       -22.8877 
   4   2.0000      -0.695983       -18.9387 
   5   2.0000      -0.572837       -15.5877 
   6   2.0000      -0.455487       -12.3944 
   7   2.0000      -0.413675       -11.2567 
   8   2.0000      -0.402737       -10.9590 
   9   2.0000      -0.348619        -9.4864 
  10   2.0000      -0.326542        -8.8857 
  11   2.0000      -0.314475        -8.5573 
  12   2.0000      -0.199009        -5.4153 
  13   0.0000       0.082829         2.2539 
  14   0.0000       0.116766         3.1774 
  15   0.0000       0.131817         3.5869 
  16   0.0000       0.136146         3.7047 
  17   0.0000       0.164982         4.4894 
  18   0.0000       0.175356         4.7717 
  19   0.0000       0.194113         5.2821 
  20   0.0000       0.207387         5.6433 
  21   0.0000       0.220692         6.0053 
  22   0.0000       0.244456         6.6520 
  23   0.0000       0.259530         7.0622 
*Only the first 10 virtual orbitals were printed.

                    ********************************
                    * MULLIKEN POPULATION ANALYSIS *
                    ********************************

-----------------------
MULLIKEN ATOMIC CHARGES
-----------------------
   0 C :   -0.481362
   1 C :   -0.138501
   2 N :   -0.584355
   3 H :    0.144882
   4 H :    0.149792
   5 H :    0.144735
   6 H :    0.122642
   7 H :    0.143435
   8 H :    0.251081
   9 H :    0.247650
Sum of atomic charges:    0.0000000

--------------------------------
MULLIKEN REDUCED ORBITAL CHARGES
--------------------------------
  0 C s       :     3.325195  s :     3.325195
      pz      :     1.081106  p :     3.129498
      px      :     1.004611
      py      :     1.043781
      dz2     :     0.004884  d :     0.026668
      dxz     :     0.001880
      dyz     :     0.008336
      dx2y2   :     0.004023
      dxy     :     0.007545

  1 C s       :     3.253825  s :     3.253825
      pz      :     1.085186  p :     2.835606
      px      :     0.826519
      py      :     0.923901
      dz2     :     0.006627  d :     0.049070
      dxz     :     0.006994
      dyz     :     0.012860
      dx2y2   :     0.009820
      dxy     :     0.012769

  2 N s       :     3.538506  s :     3.538506
      pz      :     1.599688  p :     4.016227
      px      :     1.262066
      py      :     1.154474
      dz2     :     0.006772  d :     0.029621
      dxz     :     0.002370
      dyz     :     0.009907
      dx2y2   :     0.004792
      dxy     :     0.005780

  3 H s       :     0.836804  s :     0.836804
      pz      :     0.003762  p :     0.018315
      px      :     0.008575
      py      :     0.005977

  4 H s       :     0.831966  s :     0.831966
      pz      :     0.008173  p :     0.018241
      px      :     0.003621
      py      :     0.006447

  5 H s       :     0.837148  s :     0.837148
      pz      :     0.008621  p :     0.018117
      px      :     0.003557
      py      :     0.005939

  6 H s       :     0.859721  s :     0.859721
      pz      :     0.008108  p :     0.017637
      px      :     0.003002
      py      :     0.006526

  7 H s       :     0.839320  s :     0.839320
      pz      :     0.008638  p :     0.017245
      px      :     0.002930
      py      :     0.005676

  8 H s       :     0.716433  s :     0.716433
      pz      :     0.009310  p :     0.032486
      px      :     0.006372
      py      :     0.016804

  9 H s       :     0.719972  s :     0.719972
      pz      :     0.014710  p :     0.032378
      px      :     0.011405
      py      :     0.006262


------------------------
MULLIKEN OVERLAP CHARGES
------------------------
B(  0-C ,  1-C ) :   0.5439 B(  0-C ,  2-N ) :  -0.1092 B(  0-C ,  3-H ) :   0.8069 
B(  0-C ,  4-H ) :   0.8341 B(  0-C ,  5-H ) :   0.8319 B(  0-C ,  6-H ) :  -0.0704 
B(  0-C ,  7-H ) :  -0.0699 B(  1-C ,  2-N ) :   0.3897 B(  1-C ,  3-H ) :  -0.0753 
B(  1-C ,  4-H ) :  -0.0795 B(  1-C ,  5-H ) :  -0.0720 B(  1-C ,  6-H ) :   0.8508 
B(  1-C ,  7-H ) :   0.8963 B(  1-C ,  8-H ) :  -0.1011 B(  2-N ,  6-H ) :  -0.0754 
B(  2-N ,  7-H ) :  -0.1848 B(  2-N ,  8-H ) :   0.7119 B(  2-N ,  9-H ) :   0.6951 
B(  4-H ,  5-H ) :  -0.0598 B(  6-H ,  7-H ) :  -0.0757 


                     *******************************
                     * LOEWDIN POPULATION ANALYSIS *
                     *******************************

----------------------
LOEWDIN ATOMIC CHARGES
----------------------
   0 C :   -0.409258
   1 C :   -0.086775
   2 N :   -0.743113
   3 H :    0.154710
   4 H :    0.151960
   5 H :    0.149194
   6 H :    0.155203
   7 H :    0.159073
   8 H :    0.235805
   9 H :    0.233201

-------------------------------
LOEWDIN REDUCED ORBITAL CHARGES
-------------------------------
  0 C s       :     2.979215  s :     2.979215
      pz      :     1.153024  p :     3.367790
      px      :     1.081324
      py      :     1.133443
      dz2     :     0.012083  d :     0.062253
      dxz     :     0.003003
      dyz     :     0.020811
      dx2y2   :     0.008197
      dxy     :     0.018160

  1 C s       :     2.875369  s :     2.875369
      pz      :     1.098444  p :     3.101053
      px      :     0.971113
      py      :     1.031496
      dz2     :     0.015875  d :     0.110352
      dxz     :     0.012404
      dyz     :     0.032343
      dx2y2   :     0.020847
      dxy     :     0.028883

  2 N s       :     3.242872  s :     3.242872
      pz      :     1.619540  p :     4.202980
      px      :     1.337610
      py      :     1.245830
      dz2     :     0.032649  d :     0.297260
      dxz     :     0.059164
      dyz     :     0.043039
      dx2y2   :     0.095874
      dxy     :     0.066535

  3 H s       :     0.801619  s :     0.801619
      pz      :     0.008159  p :     0.043671
      px      :     0.021102
      py      :     0.014411

  4 H s       :     0.804698  s :     0.804698
      pz      :     0.020156  p :     0.043342
      px      :     0.007896
      py      :     0.015290

  5 H s       :     0.807637  s :     0.807637
      pz      :     0.021266  p :     0.043168
      px      :     0.007808
      py      :     0.014094

  6 H s       :     0.804602  s :     0.804602
      pz      :     0.019099  p :     0.040195
      px      :     0.007016
      py      :     0.014080

  7 H s       :     0.801444  s :     0.801444
      pz      :     0.020684  p :     0.039483
      px      :     0.006429
      py      :     0.012369

  8 H s       :     0.678315  s :     0.678315
      pz      :     0.023824  p :     0.085880
      px      :     0.016501
      py      :     0.045555

  9 H s       :     0.681136  s :     0.681136
      pz      :     0.040983  p :     0.085663
      px      :     0.029712
      py      :     0.014968


---------------------------------
LOEWDIN BOND ORDERS (THRESH 0.050000)
---------------------------------
B(  0-C ,  1-C ) :   1.0887 B(  0-C ,  2-N ) :   0.1600 B(  0-C ,  3-H ) :   0.9251 
B(  0-C ,  4-H ) :   0.9267 B(  0-C ,  5-H ) :   0.9296 B(  1-C ,  2-N ) :   1.4078 
B(  1-C ,  6-H ) :   0.8478 B(  1-C ,  7-H ) :   0.8397 B(  2-N ,  6-H ) :   0.0956 
B(  2-N ,  7-H ) :   0.1025 B(  2-N ,  8-H ) :   0.9399 B(  2-N ,  9-H ) :   0.9461 


------------------------------------------
LOEWDIN REDUCED ORBITAL POPULATIONS PER MO
-------------------------------------------
THRESHOLD FOR PRINTING IS 0.1%%
                      0         1         2         3         4         5   
                 -14.13066 -10.04956 -10.02069  -0.84111  -0.69598  -0.57284
                   2.00000   2.00000   2.00000   2.00000   2.00000   2.00000
                  --------  --------  --------  --------  --------  --------
 0 C  s               0.0       0.0      99.7       3.4      33.3      10.5
 0 C  px              0.0       0.1       0.0       2.2       0.2       4.7
 0 C  py              0.0       0.0       0.0       0.3       0.4       4.6
 0 C  dxy             0.0       0.0       0.0       0.0       0.0       0.2
 1 C  s               0.0      99.4       0.0      16.1      10.1      16.5
 1 C  px              0.0       0.0       0.1       3.1      11.0       1.2
 1 C  py              0.0       0.0       0.0       2.8       0.1       7.7
 1 C  dz2             0.0       0.0       0.0       0.1       0.0       0.1
 1 C  dxy             0.0       0.0       0.0       0.2       0.4       0.0
 2 N  s              99.8       0.0       0.0      44.8       8.1       1.8
 2 N  pz              0.0       0.0       0.0       0.8       0.7       0.6
 2 N  px              0.0       0.1       0.0       1.6       2.9       4.1
 2 N  py              0.0       0.0       0.0       0.1       0.9       9.5
 2 N  dz2             0.0       0.1       0.0       0.2       0.4       0.1
 2 N  dx2y2           0.0       0.0       0.0       0.1       0.5       0.0
 2 N  dxy             0.0       0.2       0.0       0.2       0.4       2.1
 3 H  s               0.0       0.0       0.0       0.3       6.7       3.9
 3 H  px              0.0       0.0       0.0       0.0       0.4       0.1
 3 H  py              0.0       0.0       0.0       0.0       0.2       0.2
 4 H  s               0.0       0.0       0.0       0.4       6.2       4.8
 4 H  pz              0.0       0.0       0.0       0.0       0.3       0.3
 4 H  py              0.0       0.0       0.0       0.0       0.2       0.1
 5 H  s               0.0       0.0       0.0       0.4       6.1       5.0
 5 H  pz              0.0       0.0       0.0       0.0       0.4       0.3
 5 H  py              0.0       0.0       0.0       0.0       0.2       0.1
 6 H  s               0.0       0.0       0.0       1.7       1.9       7.5
 6 H  pz              0.0       0.0       0.0       0.1       0.1       0.4
 6 H  py              0.0       0.0       0.0       0.1       0.1       0.1
 7 H  s               0.0       0.0       0.0       1.5       2.0       7.5
 7 H  pz              0.0       0.0       0.0       0.1       0.1       0.5
 7 H  py              0.0       0.0       0.0       0.0       0.1       0.1
 8 H  s               0.0       0.0       0.0       8.4       2.0       3.6
 8 H  py              0.0       0.0       0.0       1.1       0.3       0.2
 9 H  s               0.0       0.0       0.0       8.3       2.9       1.2
 9 H  pz              0.0       0.0       0.0       0.5       0.2       0.1
 9 H  px              0.0       0.0       0.0       0.5       0.1       0.0
 9 H  py              0.0       0.0       0.0       0.1       0.1       0.1

                      6         7         8         9        10        11   
                  -0.45549  -0.41367  -0.40274  -0.34862  -0.32654  -0.31447
                   2.00000   2.00000   2.00000   2.00000   2.00000   2.00000
                  --------  --------  --------  --------  --------  --------
 0 C  s               0.4       0.2       0.1       0.1       0.5       0.4
 0 C  pz              2.7      23.2       1.9      10.5       4.7      14.6
 0 C  px              6.3       4.5       0.6      24.5       1.2       8.6
 0 C  py              1.1       0.2      19.8       5.6      22.3       2.2
 0 C  dz2             0.0       0.0       0.2       0.1       0.3       0.0
 0 C  dyz             0.0       0.1       0.0       0.2       0.1       0.5
 0 C  dx2y2           0.0       0.0       0.0       0.1       0.3       0.0
 0 C  dxy             0.0       0.1       0.0       0.4       0.0       0.1
 1 C  s               0.2       0.2       0.2       0.2       0.6       0.1
 1 C  pz              8.6      23.4       1.3       0.8       2.8      15.0
 1 C  px              0.0       2.7      14.4       7.7       1.3       5.5
 1 C  py              8.1       0.7       7.0       0.1      21.4       3.8
 1 C  dz2             0.0       0.0       0.1       0.0       0.4       0.0
 1 C  dxz             0.0       0.0       0.0       0.1       0.0       0.0
 1 C  dyz             0.0       0.1       0.0       0.0       0.0       0.6
 1 C  dx2y2           0.1       0.1       0.0       0.1       0.5       0.1
 1 C  dxy             0.0       0.0       0.1       0.5       0.0       0.2
 2 N  s               0.0       0.7       0.1       1.4       0.1       0.1
 2 N  pz             12.7       1.3       0.0       8.5       2.1       0.1
 2 N  px             18.7       2.9       5.9       5.7       2.8       6.1
 2 N  py             11.3       8.9      23.6       0.5       4.2       1.7
 2 N  dz2             0.5       0.1       0.0       0.0       0.1       0.0
 2 N  dxz             0.0       1.5       0.1       0.2       0.0       0.8
 2 N  dyz             0.4       0.2       0.1       0.1       0.2       0.5
 2 N  dx2y2           0.0       0.0       0.4       0.7       1.5       1.3
 2 N  dxy             0.0       0.0       0.2       0.1       0.1       0.1
 3 H  s               2.9       1.6       3.8      15.4       3.4       1.6
 3 H  pz              0.0       0.1       0.0       0.1       0.0       0.1
 3 H  px              0.1       0.0       0.2       0.1       0.2       0.0
 3 H  py              0.0       0.1       0.0       0.1       0.0       0.1
 4 H  s               0.4       7.2       1.4       9.3       0.6       9.6
 4 H  pz              0.0       0.1       0.1       0.1       0.1       0.0
 4 H  px              0.0       0.0       0.0       0.2       0.0       0.1
 4 H  py              0.0       0.2       0.0       0.1       0.1       0.0
 5 H  s               0.8       3.9       5.8       1.3      11.9       5.0
 5 H  pz              0.0       0.0       0.2       0.0       0.2       0.0
 5 H  px              0.0       0.1       0.0       0.2       0.0       0.1
 5 H  py              0.0       0.1       0.0       0.1       0.0       0.1
 6 H  s               4.3       5.3       0.6       0.8       1.9      13.0
 6 H  pz              0.1       0.0       0.1       0.0       0.1       0.1
 6 H  px              0.0       0.0       0.1       0.0       0.0       0.1
 6 H  py              0.0       0.2       0.0       0.0       0.1       0.0
 7 H  s               0.3       5.6       3.0       0.1      10.9       3.4
 7 H  pz              0.0       0.1       0.1       0.0       0.2       0.0
 7 H  px              0.0       0.0       0.2       0.1       0.0       0.0
 7 H  py              0.1       0.1       0.0       0.0       0.0       0.2
 8 H  s               5.2       2.8       7.6       0.0       2.1       1.5
 8 H  pz              0.2       0.0       0.0       0.1       0.0       0.0
 8 H  px              0.1       0.0       0.2       0.0       0.1       0.0
 8 H  py              0.2       0.1       0.2       0.0       0.0       0.0
 9 H  s              13.3       1.3       0.1       3.7       0.1       2.4
 9 H  pz              0.4       0.1       0.0       0.0       0.0       0.1
 9 H  px              0.1       0.0       0.1       0.0       0.1       0.0
 9 H  py              0.0       0.0       0.3       0.0       0.0       0.0

                     12        13        14        15        16        17   
                  -0.19901   0.08283   0.11677   0.13182   0.13615   0.16498
                   2.00000   0.00000   0.00000   0.00000   0.00000   0.00000
                  --------  --------  --------  --------  --------  --------
 0 C  s               0.3       7.3      22.3       7.5       8.1       0.0
 0 C  pz              0.0       0.0       0.0       0.1       0.0       9.9
 0 C  px              1.3       3.2      10.2       7.3      10.1       0.1
 0 C  py              0.2       0.8       1.2       4.3      18.3       2.9
 0 C  dz2             0.0       0.0       0.2       0.0       0.2       0.3
 0 C  dxz             0.0       0.0       0.0       0.0       0.0       0.4
 0 C  dyz             0.1       0.0       0.0       0.0       0.0       0.6
 0 C  dx2y2           0.0       0.1       0.0       0.8       0.1       0.1
 0 C  dxy             0.0       0.8       0.2       0.7       0.9       0.0
 1 C  s               0.1      12.5       4.4       1.3      14.0       1.7
 1 C  pz              3.0       1.5       0.1       3.1       0.0      25.4
 1 C  px              1.5       9.1      13.2       7.1       0.3       4.6
 1 C  py              0.0       3.0       2.1       5.9      23.6       5.8
 1 C  dz2             0.0       0.4       0.3       0.7       0.4       0.8
 1 C  dxz             0.4       0.0       0.0       0.0       0.0       0.0
 1 C  dyz             0.9       0.1       0.0       0.2       0.0       2.0
 1 C  dx2y2           0.1       0.1       0.1       0.7       0.1       0.0
 1 C  dxy             0.1       0.5       1.7       0.1       0.0       0.4
 2 N  s               5.2      13.0       3.6       1.1       2.2       0.5
 2 N  pz             54.2       2.1       0.1       1.0       0.1       1.1
 2 N  px             16.3       1.4       1.1       0.9       1.6       2.4
 2 N  py              1.5       0.7       0.4       9.8       0.9       0.6
 2 N  dz2             0.1       1.1       5.8       3.1       0.3       0.5
 2 N  dxz             0.3       1.2       0.1       2.8       0.0       5.3
 2 N  dyz             0.6       0.2       0.1       0.5       0.1       0.3
 2 N  dx2y2           0.2       0.6       4.2       5.0       0.0       0.0
 2 N  dxy             0.0       3.2       0.0       4.9       2.6       1.7
 3 H  s               0.4       3.4       1.5       2.2       0.1       0.2
 3 H  px              0.0       0.3       0.6       0.0       0.4       0.0
 3 H  py              0.0       0.3       0.4       1.7       0.1       0.1
 4 H  s               0.3       0.8       3.5       2.0       0.7       2.5
 4 H  pz              0.0       0.3       1.4       0.4       0.3       0.9
 4 H  px              0.0       0.3       0.0       0.4       0.2       0.0
 4 H  py              0.0       0.0       0.3       0.7       0.4       0.0
 5 H  s               0.2       0.9       3.3       1.2       0.9       0.9
 5 H  pz              0.0       0.4       1.4       0.4       0.4       0.1
 5 H  px              0.0       0.3       0.1       0.4       0.3       0.0
 5 H  py              0.0       0.0       0.2       0.4       0.4       1.1
 6 H  s               3.1       3.5       3.0       2.9       1.9       3.0
 6 H  pz              0.0       1.3       1.0       0.6       0.5       0.0
 6 H  px              0.1       0.2       0.8       0.1       0.0       0.2
 6 H  py              0.0       0.1       0.1       0.0       1.7       2.3
 7 H  s               5.7       1.2       1.8       0.2       1.3      14.0
 7 H  pz              0.0       0.6       0.8       0.0       0.5       3.4
 7 H  px              0.0       0.3       0.6       0.1       0.0       0.1
 7 H  py              0.0       0.0       0.0       0.5       1.3       0.9
 8 H  s               0.7       6.2       5.4       7.3       2.7       0.4
 8 H  pz              0.9       0.0       0.0       0.1       0.0       0.0
 8 H  px              0.2       0.3       0.0       0.4       0.0       0.3
 8 H  py              0.0       2.4       1.8       1.2       1.3       0.0
 9 H  s               0.7       9.9       0.1       5.8       0.2       1.8
 9 H  pz              0.5       1.8       0.0       1.1       0.0       0.2
 9 H  px              0.5       1.4       0.1       0.9       0.2       0.1
 9 H  py              0.1       0.5       0.0       0.1       0.0       0.1

                     18        19        20        21        22        23   
                   0.17536   0.19411   0.20739   0.22069   0.24446   0.25953
                   0.00000   0.00000   0.00000   0.00000   0.00000   0.00000
                  --------  --------  --------  --------  --------  --------
 0 C  s               0.3       0.2       0.5       1.3       2.8       0.2
 0 C  pz              2.5      17.6      24.7      32.7       4.5      13.9
 0 C  px             17.9       3.0       2.8       5.4      15.2       0.5
 0 C  py             12.7       2.9      17.2       9.6       8.7       0.7
 0 C  dz2             3.4       0.0       0.0       0.0       1.4       0.0
 0 C  dxz             0.0       0.1       0.2       0.1       0.0       0.6
 0 C  dyz             0.1       4.3       1.5       0.6       0.0       0.1
 0 C  dx2y2           0.9       0.3       0.0       0.1       0.1       0.0
 0 C  dxy             0.1       0.1       1.3       1.0       0.0       0.0
 1 C  s               1.4       0.1       1.3       3.3       0.8       0.5
 1 C  pz              1.9       0.2       3.8       0.1       1.2      47.0
 1 C  px              0.3       1.9       5.8       8.8      13.0       0.0
 1 C  py             15.0       1.2       7.4       9.2       3.7       1.0
 1 C  dz2             0.2       0.2       0.3       0.0       1.2       0.2
 1 C  dxz             0.0       0.8       0.1       0.0       0.0       0.2
 1 C  dyz             0.1       0.1       0.0       0.1       0.1       0.7
 1 C  dx2y2           1.0       0.1       0.1       0.0       0.1       0.0
 1 C  dxy             0.1       0.5       0.3       0.2       1.4       0.1
 2 N  s               0.8       0.0       0.2       0.1       0.3       0.7
 2 N  pz              0.2       1.0       1.1       1.1       0.5       3.4
 2 N  px              0.4       3.8       3.2       0.4       0.2       3.7
 2 N  py              0.3       0.1       0.5       0.6       5.6       0.7
 2 N  dz2             3.1       0.7       0.5       0.2       4.0       0.1
 2 N  dxz             0.0       5.5       0.1       2.1       0.5       4.9
 2 N  dyz             0.1       0.6       1.4       2.2       0.4       1.5
 2 N  dx2y2           1.4       0.0       0.1       0.9       2.5       1.0
 2 N  dxy             0.4       1.2       1.7       0.0       0.1       0.2
 3 H  s              14.0       1.9       4.7       4.6       1.3       0.1
 3 H  pz              0.0       2.3       1.0       0.5       0.0       0.3
 3 H  px              4.0       0.6       1.3       0.6       0.0       0.0
 3 H  py              0.5       0.1       1.0       1.1       0.2       0.1
 4 H  s               1.6      18.6       4.7       0.7       6.2       0.4
 4 H  pz              1.1       1.3       0.0       0.1       2.5       0.0
 4 H  px              0.0       0.0       0.6       0.2       0.0       0.9
 4 H  py              0.6       3.9       0.1       0.0       0.0       0.2
 5 H  s               8.2      14.1       3.9       2.7       3.8       2.6
 5 H  pz              2.8       1.2       0.0       0.3       1.0       0.6
 5 H  px              0.0       0.1       0.1       0.6       0.0       0.7
 5 H  py              0.0       2.3       0.8       0.0       0.3       0.5
 6 H  s               0.3       0.5       0.1       1.0       1.2       2.0
 6 H  pz              0.4       0.1       0.2       0.2       0.7       1.9
 6 H  px              0.0       0.6       0.0       0.0       0.9       0.0
 6 H  py              0.1       0.0       0.0       0.0       0.2       0.0
 7 H  s               0.1       0.3       1.3       2.0       7.3       3.0
 7 H  pz              0.0       0.1       0.1       0.2       2.0       0.0
 7 H  px              0.0       0.0       0.5       0.3       0.5       0.0
 7 H  py              0.5       0.0       0.4       0.4       0.1       0.0
 8 H  s               0.3       0.0       0.0       0.0       2.6       0.3
 8 H  pz              0.0       0.1       0.1       0.1       0.0       0.1
 8 H  px              0.0       0.2       0.1       0.0       0.2       0.0
 8 H  py              0.0       0.0       0.0       0.0       0.6       0.1
 9 H  s               0.5       3.8       2.0       3.2       0.1       2.9
 9 H  pz              0.0       0.7       0.4       0.4       0.0       0.5
 9 H  px              0.2       0.2       0.1       0.3       0.0       0.5
 9 H  py              0.0       0.1       0.3       0.0       0.0       0.0

                     24        25        26        27        28        29   
                   0.26423   0.28273   0.29925   0.36352   0.39318   0.42170
                   0.00000   0.00000   0.00000   0.00000   0.00000   0.00000
                  --------  --------  --------  --------  --------  --------
 0 C  s               0.2       0.4       0.9       1.5       4.2       0.5
 0 C  pz              5.5       0.6       0.4       0.9       0.1       0.8
 0 C  px              0.2       7.9       9.8       0.5      15.3       0.4
 0 C  py              2.4      14.9       6.4       2.4       6.7       0.2
 0 C  dz2             0.0       0.4       0.0       0.2       0.1       0.0
 0 C  dxz             0.8       0.0       0.0       0.0       0.0       0.0
 0 C  dyz             0.1       0.0       0.0       0.0       0.0       0.0
 0 C  dx2y2           0.2       0.0       0.0       0.0       0.2       0.0
 0 C  dxy             0.0       1.5       0.2       0.1       0.8       0.0
 1 C  s               0.8       0.8       1.1      13.8       4.4       2.3
 1 C  pz             12.5       0.7       0.3       2.0       1.5       3.8
 1 C  px              0.6       7.0      10.5      12.4       6.1       2.9
 1 C  py              3.7       4.1      15.3       3.0       4.0       0.1
 1 C  dz2             0.5       0.0       0.0       0.4       0.9       0.0
 1 C  dxz             0.1       0.0       0.0       0.0       0.0       0.5
 1 C  dyz             2.6       0.1       0.0       0.1       0.1       0.7
 1 C  dx2y2           0.0       0.3       0.2       0.0       0.5       0.1
 1 C  dxy             0.2       0.3       0.1       0.7       1.3       0.2
 2 N  s               0.5       1.8       1.3       3.6       0.5       0.7
 2 N  pz             13.7       0.1       0.2       5.8       5.4      19.7
 2 N  px              3.9       7.7       6.5       5.1       4.3       0.5
 2 N  py              0.2      11.3       7.8       4.1       8.1       2.1
 2 N  dz2             0.2       2.7       1.6       9.9      14.9       0.5
 2 N  dxz             2.4       0.2       0.0       6.1       2.2       1.2
 2 N  dyz             0.5       0.7       0.8       3.1       1.4      50.5
 2 N  dx2y2           0.4       1.6       7.4       0.2       2.6       0.7
 2 N  dxy             0.0       2.3      14.0       0.1       8.1       1.4
 3 H  s               0.3      10.2       1.4       2.2       0.1       0.1
 3 H  pz              0.2       0.0       0.0       0.0       0.0       0.0
 3 H  px              0.0       0.5       0.3       0.8       0.1       0.1
 3 H  py              0.2       0.3       0.1       0.1       0.1       0.0
 4 H  s               1.6       0.2       2.2       0.1       0.5       0.3
 4 H  pz              0.1       0.0       0.6       0.0       0.0       0.1
 4 H  px              0.3       0.6       0.0       0.0       0.4       0.0
 4 H  py              0.0       0.5       0.7       0.0       0.1       0.0
 5 H  s               0.9       0.5       1.3       0.3       0.7       0.0
 5 H  pz              0.5       0.1       0.3       0.1       0.1       0.1
 5 H  px              0.2       0.8       0.0       0.1       0.1       0.0
 5 H  py              0.1       0.5       0.4       0.0       0.1       0.0
 6 H  s              23.1       0.4       0.1       0.7       0.1       3.7
 6 H  pz              2.6       0.0       0.0       0.6       0.1       0.0
 6 H  px              0.1       0.3       0.0       0.2       0.2       0.1
 6 H  py              2.4       0.1       0.3       0.1       0.2       0.3
 7 H  s               1.5       1.0       0.8       8.8       0.5       0.6
 7 H  pz              0.3       0.0       0.1       2.7       0.0       0.1
 7 H  px              0.0       0.4       0.1       0.1       0.2       0.0
 7 H  py              1.7       0.1       0.0       0.8       0.1       0.1
 8 H  s               0.4      10.8       2.6       1.1       0.5       0.0
 8 H  pz              0.0       0.1       0.1       0.6       0.1       2.9
 8 H  px              0.0       0.2       1.1       0.0       0.3       0.1
 8 H  py              0.2       4.4       0.3       0.1       0.0       0.2
 9 H  s               8.3       0.4       0.2       2.9       0.3       0.2
 9 H  pz              1.5       0.0       0.0       0.1       0.8       0.1
 9 H  px              1.1       0.1       0.3       1.1       0.3       0.4
 9 H  py              0.1       0.0       1.9       0.3       0.6       0.7

                     30        31        32        33        34        35   
                   0.43677   0.47572   0.50804   0.56441   0.57466   0.61134
                   0.00000   0.00000   0.00000   0.00000   0.00000   0.00000
                  --------  --------  --------  --------  --------  --------
 0 C  s               8.2      16.1      28.8       1.1       0.4       0.5
 0 C  pz              0.1       0.0       0.0       1.0       0.6       0.6
 0 C  px              3.9       4.6       2.4       2.3       0.4       0.7
 0 C  py              2.9       1.3       1.7       2.0       0.0       1.3
 0 C  dz2             0.1       0.1       0.1       0.2       0.0       0.0
 0 C  dxz             0.0       0.0       0.0       0.5       0.5       0.5
 0 C  dx2y2           0.5       0.0       0.0       1.2       0.3       0.1
 0 C  dxy             0.9       0.0       0.1       0.4       0.3       0.0
 1 C  s               3.4      10.2       9.6       0.5      11.7      11.6
 1 C  pz              0.4       0.3       0.2       2.4       1.0       4.3
 1 C  px              5.6       8.1      10.9       1.8       0.8       1.2
 1 C  py              9.0       0.2       0.8       0.7       4.4       0.8
 1 C  dz2             0.3       0.1       0.0       0.3       0.4       0.1
 1 C  dxz             0.0       0.0       0.0       1.3       1.0       1.9
 1 C  dyz             0.0       0.0       0.0       0.1       0.1       0.0
 1 C  dx2y2           0.1       0.0       0.1       2.3       0.5       0.6
 1 C  dxy             0.0       0.3       0.5       0.1       0.1       0.2
 2 N  s               0.8       1.1       3.8       1.5       0.6      18.5
 2 N  pz              5.2       0.4       0.2      10.9      21.4       6.9
 2 N  px             28.3      11.2       0.6       9.3       0.1       0.2
 2 N  py              1.6       8.2      14.6      12.7       7.9       0.1
 2 N  dz2             2.4       1.2       1.3       0.1      17.0       6.2
 2 N  dxz             3.0       0.0       0.8       0.6       0.3      20.8
 2 N  dyz             0.9       0.4       1.7       5.7       7.5       3.3
 2 N  dx2y2           4.5       0.0       0.4      11.1       6.0       1.5
 2 N  dxy             1.0       2.6       4.2      10.4       1.7       2.4
 3 H  s               0.8       4.7       0.9       2.4       0.8       0.4
 3 H  pz              0.0       0.0       0.0       0.3       0.4       0.5
 3 H  px              0.5       1.6       0.1       0.4       0.0       0.3
 3 H  py              0.0       0.3       0.4       0.9       0.3       0.0
 4 H  s               3.2       3.9       1.7       0.2       0.2       1.1
 4 H  pz              0.8       0.9       0.8       0.3       0.2       0.4
 4 H  px              0.1       0.0       0.0       0.2       0.6       0.1
 4 H  py              0.2       0.3       0.3       0.5       0.0       0.2
 5 H  s               2.8       4.5       1.4       1.2       0.5       0.0
 5 H  pz              0.8       1.3       0.6       1.1       0.0       0.0
 5 H  px              0.5       0.0       0.0       0.0       0.0       0.7
 5 H  py              0.1       0.3       0.2       0.1       0.4       0.0
 6 H  s               1.7       3.9       0.3       0.5       0.0       1.4
 6 H  pz              0.3       0.9       0.1       0.6       0.1       0.1
 6 H  px              0.1       0.0       0.0       0.4       0.3       1.5
 6 H  py              0.1       0.7       0.0       0.3       0.1       1.3
 7 H  s               0.9       7.1       0.4       0.3       0.1       1.5
 7 H  pz              0.0       1.1       0.0       0.3       0.2       0.1
 7 H  px              0.0       0.0       0.0       1.0       1.6       0.4
 7 H  py              0.0       1.3       0.5       1.0       0.1       0.0
 8 H  s               1.0       0.2       6.0       0.3       2.6       1.9
 8 H  pz              0.0       0.1       0.1       0.1       0.3       0.1
 8 H  px              0.1       0.0       0.0       3.7       0.6       0.8
 8 H  py              1.3       0.3       0.1       0.2       0.1       0.0
 9 H  s               0.9       0.0       1.7       1.0       3.3       0.4
 9 H  pz              0.0       0.0       0.1       0.6       1.8       1.2
 9 H  px              0.4       0.0       0.2       1.0       0.1       0.6
 9 H  py              0.0       0.1       1.1       0.8       0.4       0.5

                     36        37        38        39        40        41   
                   0.68435   0.70592   0.87461   1.01210   1.04600   1.05698
                   0.00000   0.00000   0.00000   0.00000   0.00000   0.00000
                  --------  --------  --------  --------  --------  --------
 0 C  s               0.2       2.3       0.5       0.0       0.0       0.0
 0 C  pz              0.2       0.1       0.1       8.5       0.3       1.7
 0 C  px              0.2       2.1       1.4       0.0       5.4       0.0
 0 C  py              0.0       0.5       1.1       0.1       8.3       0.1
 0 C  dz2             0.0       1.1       0.2       0.2       3.9       0.1
 0 C  dxz             0.1       0.0       0.0       1.4       0.0       0.2
 0 C  dyz             0.0       0.0       0.0      14.0       0.6       0.1
 0 C  dx2y2           0.0       0.1       0.2       0.0       4.4       0.0
 0 C  dxy             0.0       0.0       0.2       0.1       4.4       0.1
 1 C  s               1.8       1.5      12.7       0.2       0.3       0.6
 1 C  pz              3.3       0.0       0.1       2.0       0.3      14.7
 1 C  px              0.2       2.3       4.8       0.0       1.6       0.0
 1 C  py              0.1       1.3       2.0       0.1       2.6       0.0
 1 C  dz2             0.2       0.0       0.1       0.0       0.0       0.2
 1 C  dxz             0.5       0.1       0.0       1.6       0.0       0.1
 1 C  dyz             0.7       0.0       0.2       1.4       0.2      10.7
 1 C  dx2y2           0.0       0.3       0.1       0.0       0.7       0.0
 1 C  dxy             0.0       0.3       0.9       0.0       0.1       0.0
 2 N  s              19.5      23.8      11.4       0.1       0.1       0.2
 2 N  pz              0.5       0.2       0.5       0.1       0.2       0.7
 2 N  px              4.2       0.2      13.8       0.2       0.8       0.4
 2 N  py              3.0       4.1       7.0       0.0       0.9       0.2
 2 N  dz2             1.1       2.2       6.0       0.0       0.2       0.1
 2 N  dxz            18.4       0.6       0.2       0.5       0.1       3.1
 2 N  dyz             0.5       0.3       0.1       0.1       0.1       0.1
 2 N  dx2y2           0.2      16.5       4.3       0.0       0.1       0.0
 2 N  dxy             0.4       0.4      17.1       0.2       0.8       0.8
 3 H  s               0.0       0.2       0.4       0.8      42.2       0.6
 3 H  pz              0.2       0.0       0.0       0.0       0.0       0.2
 3 H  px              0.0       0.0       0.5       0.0       0.0       0.0
 4 H  s               0.1       1.0       0.0      26.4      14.3       0.1
 4 H  pz              0.1       0.2       0.0       0.1       0.1       0.0
 4 H  px              0.1       0.0       0.1       0.1       0.0       0.8
 4 H  py              0.0       0.1       0.0       0.0       0.0       0.4
 5 H  s               0.2       0.6       0.0      34.8       3.3       0.4
 5 H  pz              0.0       0.1       0.0       0.1       0.0       0.0
 5 H  px              0.0       0.0       0.0       0.1       0.0       1.0
 5 H  py              0.0       0.3       0.1       0.0       0.0       0.2
 6 H  s               1.7       0.1       1.1       1.8       1.0      25.1
 6 H  pz              0.0       0.3       0.0       0.1       0.1       0.0
 6 H  px              0.0       0.3       0.1       0.0       0.0       0.0
 6 H  py              0.8       0.0       0.0       0.4       0.0       0.0
 7 H  s               0.7       0.0       0.4       0.6       0.2      35.1
 7 H  pz              0.1       0.3       0.0       0.3       0.1       0.0
 7 H  px              0.1       0.0       0.8       0.0       0.0       0.1
 7 H  py              0.4       0.0       0.1       0.4       0.0       0.0
 8 H  s               2.4      32.5       6.3       0.4       0.6       0.4
 8 H  pz              0.4       0.0       0.0       0.0       0.0       0.2
 8 H  px              0.1       0.1       0.1       0.0       0.4       0.0
 8 H  py              0.0       0.5       0.0       0.0       0.2       0.1
 9 H  s              37.1       2.7       4.6       2.6       0.4       1.1
 9 H  pz              0.0       0.0       0.0       0.0       0.2       0.0
 9 H  py              0.0       0.1       0.0       0.0       0.1       0.1

                     42        43        44        45        46        47   
                   1.08397   1.11863   1.17143   1.21920   1.31171   1.31514
                   0.00000   0.00000   0.00000   0.00000   0.00000   0.00000
                  --------  --------  --------  --------  --------  --------
 0 C  s               1.0      37.0       2.9       0.9       0.8      15.1
 0 C  pz              0.6       0.1       2.6      11.7      25.2       2.7
 0 C  px              0.3       0.9       0.4       0.4       8.4      19.7
 0 C  py              0.1       0.4       1.0       1.6       1.4       0.7
 0 C  dz2             0.0       1.8       0.3       0.0       0.1       1.7
 0 C  dxz             0.0       0.0       1.1       6.1       0.1       0.0
 0 C  dyz             0.4       0.0       0.3       0.0       4.6       0.5
 0 C  dx2y2           0.6       1.5       0.3       1.4       1.2       0.3
 0 C  dxy             0.4       4.3       0.0       0.1       0.8       4.5
 1 C  s              16.6       0.8       4.8       0.7       0.9      10.2
 1 C  pz              0.1       0.0       1.6      12.6      12.2       1.2
 1 C  px              0.2       0.9       1.3       0.4       1.0       8.2
 1 C  py              3.4       0.8       1.6       1.7       1.0      10.4
 1 C  dz2             3.7       1.0       2.9       1.9       1.0       3.9
 1 C  dxz             0.0       0.0       0.6       4.0       1.9       0.3
 1 C  dyz             0.3       0.0       0.7       2.9       0.2       0.0
 1 C  dx2y2           2.5       0.1       0.0       0.9       2.1       0.2
 1 C  dxy             0.0       0.8       0.4       0.2       0.1       0.2
 2 N  s               2.3       0.1       2.3       0.5       0.6       0.5
 2 N  pz              1.6       0.1       3.9       0.9       2.2       0.3
 2 N  px              0.6       0.2       1.6       0.6       1.6       0.7
 2 N  py              0.2       0.2       3.5       6.3       1.3       0.2
 2 N  dz2             0.1       0.1       0.1       3.0       1.4       0.1
 2 N  dxz             1.2       0.1       4.3       1.9       2.3       0.2
 2 N  dyz             0.1       0.0       0.1       0.3       1.4       0.1
 2 N  dx2y2           1.7       0.3       1.7       8.0       4.0       0.1
 2 N  dxy             0.2       0.0       4.9       0.2       0.3       0.3
 3 H  s               0.3      14.1       1.3       0.3       0.0       1.1
 3 H  pz              0.0       0.0       0.0       0.1       1.1       0.2
 3 H  px              0.3       0.1       0.1       0.1       0.1       1.2
 3 H  py              0.0       0.7       0.2       0.8       0.5       0.0
 4 H  s               0.0      14.6       2.3       0.9       0.3       2.7
 4 H  pz              0.0       0.0       0.0       0.0       3.2       0.0
 4 H  px              0.0       0.2       0.0       0.7       1.1       2.0
 4 H  py              0.0       0.0       0.2       0.1       0.0       0.3
 5 H  s               3.4      16.1       0.3       0.7       0.3       2.8
 5 H  pz              0.0       0.0       0.0       0.8       1.3       0.5
 5 H  px              0.0       0.4       0.7       1.1       1.1       1.7
 5 H  py              0.1       0.0       0.0       0.0       0.0       0.3
 6 H  s              27.4       0.4       4.0       1.1       0.0       0.2
 6 H  pz              0.0       0.0       0.2       0.3       1.0       0.1
 6 H  px              0.0       0.3       0.2       1.8       0.0       0.0
 6 H  py              0.0       0.1       0.1       1.4       0.6       1.7
 7 H  s              14.1       0.7      10.4       0.1       0.3       0.1
 7 H  pz              0.1       0.0       0.1       1.1       0.1       0.0
 7 H  px              0.1       0.1       0.2       0.7       0.1       0.1
 7 H  py              0.0       0.2       0.7       0.1       0.1       1.4
 8 H  s               5.6       0.1      16.0      13.6       1.7       0.0
 8 H  pz              0.0       0.0       0.0       0.3       0.0       0.0
 8 H  px              0.5       0.0       0.1       0.3       0.5       0.1
 8 H  py              0.1       0.0       0.9       0.9       0.1       0.0
 9 H  s               8.7       0.3      15.6       2.8       7.4       0.9
 9 H  pz              0.4       0.1       0.7       0.2       0.7       0.0
 9 H  px              0.3       0.1       0.4       0.0       0.1       0.2
 9 H  py              0.0       0.0       0.2       0.4       0.1       0.1

                     48        49        50        51        52        53   
                   1.33824   1.35226   1.36779   1.43163   1.51855   1.59238
                   0.00000   0.00000   0.00000   0.00000   0.00000   0.00000
                  --------  --------  --------  --------  --------  --------
 0 C  s               4.1       0.1       0.3       1.4       0.5      18.7
 0 C  pz              1.4       0.1      17.9       0.2       0.0       0.0
 0 C  px             11.8       0.4       0.1       0.3       0.6      15.4
 0 C  py              6.4      33.8       2.6       9.4       5.0       0.3
 0 C  dz2             3.2      16.9       0.5       1.8       1.3       0.0
 0 C  dxz             0.2       0.4      25.2       1.2       0.5       0.1
 0 C  dyz             0.1       0.5       4.3       0.0       0.1       0.0
 0 C  dx2y2          13.0       4.8       1.2       1.3       8.1       0.0
 0 C  dxy             3.8       0.1       0.0       0.3       1.9       2.9
 1 C  s               0.2       2.1       0.4       0.7       1.0      11.1
 1 C  pz              0.0       0.0       5.9       0.7       0.0       3.4
 1 C  px              4.7       3.3       0.2      14.4      13.8       0.3
 1 C  py             18.3       5.3       0.1      13.4       0.8       2.2
 1 C  dz2             4.9       1.4       0.3       5.0       1.0       1.9
 1 C  dxz             0.0       0.0       0.0       0.0       0.1       4.6
 1 C  dyz             0.0       0.0       2.3       0.1       0.0       0.6
 1 C  dx2y2           0.0       0.4       0.7       2.0       5.7       0.1
 1 C  dxy             5.1       0.1       0.3       7.5      10.1       0.7
 2 N  s               0.3       0.5       0.5       1.7       1.4       2.2
 2 N  pz              0.0       0.0       0.4       0.1       0.3       0.5
 2 N  px              0.6       0.1       0.7       1.9       1.2       1.3
 2 N  py              0.4       0.4       0.1       3.5       5.9       0.2
 2 N  dz2             0.2       0.0       0.3       2.1       0.8       0.6
 2 N  dxz             0.0       0.0       2.8       1.1       0.7       0.4
 2 N  dyz             0.0       0.0       0.6       0.3       0.1       0.2
 2 N  dx2y2           0.3       0.1       0.6       4.0       0.0       0.8
 2 N  dxy             0.6       0.3       0.3       0.6       1.1       0.0
 3 H  s               2.1       0.5       0.1       1.1       0.6       3.7
 3 H  pz              0.2       0.1      12.0       0.1       0.0       0.0
 3 H  px              3.9       1.6       0.1       0.0       1.4       0.7
 3 H  py              3.0       0.0       0.5       0.7       7.2       0.0
 4 H  s               0.1       0.6       0.6       1.0       0.1       4.3
 4 H  pz              1.2       0.9       1.2       0.1       0.1       0.1
 4 H  px              1.0       0.1       4.5       0.0       0.4       1.6
 4 H  py              0.6       8.5       0.1       0.7       0.1       0.3
 5 H  s               0.3       0.3       0.5       1.6       0.0       4.7
 5 H  pz              0.1       1.2       1.5       0.0       0.5       0.0
 5 H  px              0.4       0.0       3.1       0.7       1.4       0.9
 5 H  py              0.7       9.2       0.0       0.6       0.2       0.0
 6 H  s               0.5       0.6       1.3       0.1       0.3       1.9
 6 H  pz              0.1       0.4       0.8       0.6       0.7       0.9
[...]
 2 N  px              1.1       1.5       2.7       0.9       0.0       0.6
 2 N  py              1.9       0.7       1.1       0.7       0.0       0.6
 2 N  dz2             3.1       2.4       1.8       3.6       0.0       0.8
 2 N  dxz             1.4       3.1       0.2       5.7       0.6       0.3
 2 N  dyz            16.8      23.3       1.3       0.1       0.8       0.1
 2 N  dx2y2          26.6       1.5       0.1       1.0       0.1       0.1
 2 N  dxy             6.6      20.4       0.3       0.6       0.0       0.3
 3 H  s               0.0       0.1       1.1       1.7       0.6       9.5
 3 H  pz              0.0       0.0       0.0       0.0       1.3       0.0
 3 H  px              0.2       0.2       5.9       2.7       0.9      14.9
 3 H  py              0.2       0.5       2.4       3.7       0.7       7.4
 4 H  s               0.0       0.4       1.3       0.5       6.0       0.6
 4 H  pz              0.0       1.1       6.7       1.7       7.4       1.9
 4 H  px              0.1       0.2       0.0       0.4       0.0       0.2
 4 H  py              0.0       1.3       3.1       0.4       6.3       0.0
 5 H  s               0.2       0.0       1.6       0.3       4.5       5.1
 5 H  pz              0.3       0.1       8.3       1.6       6.7       9.9
 5 H  px              0.4       0.0       0.0       0.1       0.1       0.4
 5 H  py              0.7       0.1       2.8       0.2       4.9       2.1
 6 H  s               0.0       0.1       1.8       0.0       3.4       0.1
 6 H  pz              0.9       0.1       8.3       0.2       4.7       0.4
 6 H  px              1.7       0.2       0.1       0.7       0.2       0.1
 6 H  py              0.1       0.7       3.3       0.1       3.3       0.1
 7 H  s               0.0       0.0       2.4       1.1       1.5       0.0
 7 H  pz              0.1       0.1      10.8       2.7       1.1       0.2
 7 H  px              0.0       0.6       0.0       0.9       0.0       0.1
 7 H  py              0.0       0.2       3.8       0.9       2.3       0.2
 8 H  s               0.0       0.0       0.0       1.2       0.0       0.1
 8 H  pz              2.3       7.1       0.7       0.1       0.1       0.0
 8 H  px              5.3      10.2       0.2       0.5       0.0       0.0
 8 H  py              0.1       0.2       0.3       5.5       0.0       0.9
 9 H  s               0.1       0.0       0.0       0.9       0.1       0.2
 9 H  pz              1.6       1.5       0.3       2.4       0.1       0.2
 9 H  px              3.3       0.0       0.1       1.0       0.0       0.4
 9 H  py              4.1      12.7       0.7       0.3       0.3       0.0

                     90        91        92        93        94        95   
                   3.59600   3.64650   4.06326   4.33846  21.87226  21.97640
                   0.00000   0.00000   0.00000   0.00000   0.00000   0.00000
                  --------  --------  --------  --------  --------  --------
 0 C  s               0.7       0.3       0.1       0.0      69.2      30.5
 0 C  pz              2.0       0.8       0.0       0.0       0.0       0.0
 0 C  px              0.7       0.7       0.2       0.0       0.0       0.0
 0 C  py              2.6       0.5       0.0       0.0       0.0       0.0
 0 C  dz2             3.2       1.5       0.0       0.0       0.0       0.0
 0 C  dyz             7.3       3.4       0.0       0.0       0.0       0.0
 0 C  dx2y2           1.9       0.5       0.0       0.0       0.0       0.0
 0 C  dxy             0.4       0.2       0.3       0.0       0.0       0.0
 1 C  s               1.4       1.4       1.2       0.0      30.3      69.3
 1 C  pz              3.5       5.1       0.0       0.2       0.0       0.0
 1 C  px              0.2       0.0       4.8       0.2       0.0       0.0
 1 C  py              3.8       3.8       2.2       0.2       0.0       0.0
 1 C  dz2             4.0       6.0       2.8       0.2       0.0       0.0
 1 C  dyz             9.0      11.3       0.1       0.2       0.0       0.0
 1 C  dx2y2           2.2       1.7       1.5       0.0       0.0       0.0
 1 C  dxy             0.3       0.2       6.6       0.0       0.0       0.0
 2 N  s               4.0       8.4       1.2       0.0       0.0       0.1
 2 N  pz              0.5       0.6       2.2       2.6       0.0       0.0
 2 N  px              0.4       1.9       9.0       4.1       0.0       0.0
 2 N  py              0.0       0.2       8.0       9.0       0.0       0.0
 2 N  dz2             0.6       4.5       2.5      13.4       0.0       0.0
 2 N  dxz             2.5       4.3       6.1      10.9       0.0       0.0
 2 N  dyz             0.2       0.5       0.0       5.0       0.0       0.0
 2 N  dx2y2           0.1       0.1       7.7      14.9       0.0       0.0
 2 N  dxy             0.0       0.1      21.3       0.5       0.0       0.0
 3 H  s               0.3       0.0       0.1       0.0       0.0       0.0
 3 H  px              0.7       0.1       0.3       0.0       0.0       0.0
 4 H  s               4.4       0.2       0.0       0.0       0.0       0.0
 4 H  pz              7.9       0.1       0.0       0.0       0.0       0.0
 4 H  px              0.0       0.1       0.0       0.0       0.0       0.0
 4 H  py              4.2       0.1       0.0       0.0       0.0       0.0
 5 H  s               0.2       1.5       0.0       0.0       0.0       0.0
 5 H  pz              0.1       2.9       0.0       0.0       0.0       0.0
 5 H  px              0.2       0.0       0.0       0.0       0.0       0.0
 5 H  py              0.3       1.4       0.0       0.0       0.0       0.0
 6 H  s               6.2       0.7       0.5       0.2       0.0       0.0
 6 H  pz             10.8       0.2       0.6       0.1       0.0       0.0
 6 H  py              6.1       1.5       0.1       0.1       0.0       0.0
 7 H  s               0.4       7.2       0.1       0.0       0.0       0.0
 7 H  pz              0.0      13.0       0.3       0.0       0.0       0.0
 7 H  px              0.1       0.2       0.1       0.0       0.0       0.0
 7 H  py              1.0       5.0       0.0       0.0       0.0       0.0
 8 H  s               0.2       0.9       3.4       8.0       0.0       0.0
 8 H  pz              0.0       0.1       0.0       0.1       0.0       0.0
 8 H  px              0.1       0.1       0.9       0.3       0.0       0.0
 8 H  py              0.6       2.7       5.7      10.9       0.0       0.0
 9 H  s               0.9       0.8       3.5       7.8       0.0       0.0
 9 H  pz              2.0       1.8       3.1       6.1       0.0       0.0
 9 H  px              1.4       1.0       1.9       4.4       0.0       0.0
 9 H  py              0.2       0.1       1.3       0.3       0.0       0.0

                     96   
                  31.80714
                   0.00000
                  --------
 2 N  s              99.7


                      *****************************
                      * MAYER POPULATION ANALYSIS *
                      *****************************

  NA   - Mulliken gross atomic population
  ZA   - Total nuclear charge
  QA   - Mulliken gross atomic charge
  VA   - Mayer's total valence
  BVA  - Mayer's bonded valence
  FA   - Mayer's free valence

  ATOM       NA         ZA         QA         VA         BVA        FA
  0 C      6.4814     6.0000    -0.4814     3.8209     3.8209     0.0000
  1 C      6.1385     6.0000    -0.1385     3.7126     3.7126    -0.0000
  2 N      7.5844     7.0000    -0.5844     2.6999     2.6999     0.0000
  3 H      0.8551     1.0000     0.1449     0.9660     0.9660     0.0000
  4 H      0.8502     1.0000     0.1498     0.9595     0.9595     0.0000
  5 H      0.8553     1.0000     0.1447     0.9622     0.9622     0.0000
  6 H      0.8774     1.0000     0.1226     0.9601     0.9601    -0.0000
  7 H      0.8566     1.0000     0.1434     0.9471     0.9471    -0.0000
  8 H      0.7489     1.0000     0.2511     0.9258     0.9258    -0.0000
  9 H      0.7524     1.0000     0.2476     0.9295     0.9295    -0.0000

  Mayer bond orders larger than 0.100000
B(  0-C ,  1-C ) :   0.9166 B(  0-C ,  3-H ) :   0.9700 B(  0-C ,  4-H ) :   0.9744 
B(  0-C ,  5-H ) :   0.9735 B(  1-C ,  2-N ) :   0.8953 B(  1-C ,  6-H ) :   0.9755 
B(  1-C ,  7-H ) :   0.9826 B(  2-N ,  8-H ) :   0.9218 B(  2-N ,  9-H ) :   0.9229 


-------
TIMINGS
-------

Total SCF time: 0 days 0 hours 0 min 2 sec 

Total time                  ....       2.631 sec
Sum of individual times     ....       2.620 sec  ( 99.6%)

SCF preparation             ....       0.024 sec  (  0.9%)
Fock matrix formation       ....       2.518 sec  ( 95.7%)
  Startup                   ....       0.001 sec  (  0.1% of F)
  Split-RI-J                ....       0.272 sec  ( 10.8% of F)
  XC integration            ....       2.238 sec  ( 88.9% of F)
    XC Preparation          ....       0.000 sec  (  0.0% of XC)
    Basis function eval.    ....       0.457 sec  ( 20.4% of XC)
    Density eval.           ....       0.650 sec  ( 29.0% of XC)
    XC-Functional eval.     ....       0.435 sec  ( 19.4% of XC)
    XC-Potential eval.      ....       0.637 sec  ( 28.5% of XC)
Diagonalization             ....       0.000 sec  (  0.0%)
Density matrix formation    ....       0.017 sec  (  0.6%)
Total Energy calculation    ....       0.000 sec  (  0.0%)
Population analysis         ....       0.025 sec  (  1.0%)
Orbital Transformation      ....       0.010 sec  (  0.4%)
Orbital Orthonormalization  ....       0.000 sec  (  0.0%)
DIIS solution               ....       0.019 sec  (  0.7%)
  MO trafo                  ....       0.000 sec  (  0.0 % of DIIS)
  Orb grad                  ....       0.000 sec  (  0.0 % of DIIS)
  Energy W gradient         ....       0.000 sec  (  0.0 % of DIIS)
  DIIS error                ....       0.001 sec  (  4.5 % of DIIS)
  DIIS work                 ....       0.009 sec  ( 48.8 % of DIIS)
  Form Q                    ....       0.000 sec  (  0.0 % of DIIS)
  Form QpQm                 ....       0.000 sec  (  0.0 % of DIIS)
  Exp/Cayley                ....       0.000 sec  (  0.0 % of DIIS)
  Orb update                ....       0.000 sec  (  0.0 % of DIIS)
  Wake-sleep                ....       0.000 sec  (  1.2 % of DIIS)
SOSCF solution              ....       0.007 sec  (  0.2%)
  MO trafo                  ....       0.006 sec  ( 94.0 % of SOSCF)
  Orb grad                  ....       0.000 sec  (  0.2 % of SOSCF)
  Rot update                ....       0.000 sec  (  0.2 % of SOSCF)
  Step                      ....       0.000 sec  (  5.3 % of SOSCF)
Finished LeanSCF after   2.6 sec

Maximum memory used throughout the entire LEANSCF-calculation: 10.5 MB


-------------------------------------------------------------------------------
                          DFT DISPERSION CORRECTION                            
                                                                               
                                DFTD4 V3.4.0                                   
-------------------------------------------------------------------------------
The R2SCAN3C composite method is recognized
Using three-body term ABC
Active option DFTDOPT                   ...         5   

-------------------------   ----------------
Dispersion correction           -0.001487073
-------------------------   ----------------

------------------   -----------------
gCP correction             0.007872474
------------------   -----------------

-------------------------   --------------------
FINAL SINGLE POINT ENERGY      -135.121749878000
-------------------------   --------------------


------------------------------------------------------------------------------
                              ORCA PROPERTY CALCULATIONS
------------------------------------------------------------------------------

GBWName                                 ... sp.gbw
Number of atoms                         ...     10
Number of basis functions               ...     97
Max core memory                         ...   1024 MB

Electric properties:
Dipole moment                           ... YES
Quadrupole moment                       ...  NO
Static polarizability (Dipole/Dipole)   ...  NO
Static polarizability (Dipole/Quad.)    ...  NO
Static polarizability (Quad./Quad.)     ...  NO
Static polarizability (Velocity)        ...  NO

Atomic electric properties:
Dipole moment                           ...  NO
Quadrupole moment                       ...  NO
Static polarizability                   ...  NO

Choice of electric origin               ... Center of mass
Position of electric origin             ...     0.000007     0.000004    -0.000003

General magnetic properties:
Magnetizability                         ...  NO

EPR properties:
g-Tensor (aka g-matrix)                 ...  NO
Zero-Field splitting spin-orbit         ...  NO
Zero-field splitting spin-spin          ...  NO
Hyperfine couplings                     ...  NO (   0 nuclei)
Quadrupole couplings                    ...  NO (   0 nuclei)
Contact density                         ...  NO (   0 nuclei)

NMR properties:
Chemical shifts                         ...  NO (   0 nuclei)
Spin-rotation constants                 ...  NO (   0 nuclei)
Spin-spin couplings                     ...  NO (   0 nuclei,    0 pairs)

Choice of magnetic origin               ... GIAO
Position of magnetic origin             ...     0.000000     0.000000     0.000000

Properties with geometric perturbations:
SCF Hessian                             ...  NO
IR spectrum                             ...  NO
VCD spectrum                            ...  NO
X-ray spectroscopy properties:
SCF XES/XAS/RIXS spectra                ...  NO


-------------
DIPOLE MOMENT
-------------

Method             : SCF
Type of density    : Electron Density
Multiplicity       :   1
Irrep              :   0
Energy             :  -135.1281352796532929 Eh
Relativity type    : 
Basis              : AO
                                X                 Y                 Z
Electronic contribution:      1.536820657      -0.137731458       0.187174136
Nuclear contribution   :     -1.790931126       0.218399416      -0.647439175
                        -----------------------------------------
Total Dipole Moment    :     -0.254110469       0.080667958      -0.460265039
                        -----------------------------------------
Magnitude (a.u.)       :      0.531905402
Magnitude (Debye)      :      1.351996087



--------------------
Rotational spectrum 
--------------------
 
Rotational constants in cm-1:             1.076749             0.299883             0.261440 
Rotational constants in MHz :         32280.131585          8990.277203          7837.787590 

Dipole components along the rotational axes: 
x,y,z [a.u.] :    -0.241304    -0.084236    -0.466476 
x,y,z [Debye]:    -0.613346    -0.214112    -1.185688 

 

Dipole moment calculation done in   0.0 sec 

Maximum memory used throughout the entire PROP-calculation: 5.9 MB

--------------------------------
SUGGESTED CITATIONS FOR THIS RUN
--------------------------------

Below you find a list of papers that are relevant to this ORCA run
We neither can nor want to force you to cite these papers, but we appreciate if you do
You receive ORCA, which is the product of decades of hard work by many enthusiastic individuals, for free
The only thing we kindly ask in return is that you cite our papers,
We deeply appreciate it, if you show your appreciation for ORCA by not just citing the generic ORCA reference.

Please note that relegating all ORCA citations to the supporting information does *not* help us.
SI sections are not indexed - citations you put there will not count into any citation statistics
But we need these citations in order to attract the funding resources that allow us to do what we are doing

Therefore, if you are a happy ORCA user, please consider citing a few of the papers listed below in the main body of your paper

In addition to the list printed below, the program has created the file sp.bibtex that contains the list in bibtex format
You can import this file easily into all common literature databanks and citation aid programs


List of essential papers. We consider these as the minimum necessary citations

  1. Neese,F.
     Software update: the ORCA program system, version 5.0
     WIRES Comput. Molec. Sci., 2022 12(1)e1606
     doi.org/10.1002/wcms.1606
  2. Grimme,S.; Hansen,A.; Ehlert,S.; Mewes,J.
     r2SCAN-3c: A 'Swiss army knife' composite electronic-structure method
     J. Chem. Phys., 2021 154 064103
     doi.org/10.1063/5.0040021

List of papers to cite with high priority. The work reported in these papers was absolutely
necessary for this run to complete.
Our perspective: the developers of density functionals and basis sets usually get cited in chemistry papers
Good! But without the algorithms to do something with them, the functionals or basis sets would not do anything.
Hence, in our opinion, the algorithm design and method developments papers are equally worthy of getting cited

  1. Neese,F.
     An improvement of the resolution of the identity approximation for the formation of the Coulomb matrix
     J. Comp. Chem., 2003 24(14)1740-1747
     doi.org/10.1002/jcc.10318
  2. Neese,F.
     The SHARK Integral Generation and Digestion System
     J. Comp. Chem., 2022  1-16
     doi.org/10.1002/jcc.26942
  3. Lehtola,S.; Steigemann,C.; Oliveira,M.; Marques,M.
     Recent developments in Libxc - A comprehensive library of functionals for density functional theory
     Software X, 2018 7 
     doi.org/10.1016/j.softx.2017.11.002
  4. Caldeweyher,E.; Bannwarth,C.; Grimme,S.
     Extension of the D3 dispersion coefficient model
     J. Chem. Phys., 2017 147 034112
     doi.org/10.1063/1.4993215
  5. Caldeweyher,E.; Ehlert,S.; Hansen,A.; Neugebauer,H.; Spicher,S.; Bannwarth,C.; Grimme,S.
     A generally applicable atomic-charge dependent London dispersion correction
     J. Chem. Phys., 2019 150 154122
     doi.org/10.1063/1.5090222
  6. Caldeweyher,E.; Mewes,J.; Ehlert,S.; Grimme,S.
     Extension and evaluation of the D4 London-dispersion model for periodic systems
     Phys. Chem. Chem. Phys., 2020 22(16)8499-8512
     doi.org/10.1039/D0CP00502A
  7. Wittmann,L.; Gordiy,I.; Friede,M.; Helmich-Paris,B.; Grimme,S.; Hansen,A.; Bursch,M.
     Extension of the D3 and D4 London Dispersion Corrections to the full Actinides Series
     Phys. Chem. Chem. Phys., 2024 26(32)21379-21394
     doi.org/https://doi.org/10.1039/D4CP01514B 

List of suggested additional citations. These are papers that are important in the 'surrounding' of 
of this run, or papers that preceded the highly important papers. If you like your results we are grateful for a citation.

  1. Neese,F.
     The ORCA program system
     WIRES Comput. Molec. Sci., 2012 2(1)73-78
     doi.org/10.1002/wcms.81
  2. Neese,F.
     Software update: the ORCA program system, version 4.0
     WIRES Comput. Molec. Sci., 2018 8(1)1-6
     doi.org/10.1002/wcms.1327
  3. Neese,F.; Wennmohs,F.; Becker,U.; Riplinger,C.
     The ORCA quantum chemistry program package
     J. Chem. Phys., 2020 152 Art. No. L224108
     doi.org/10.1063/5.0004608

List of optional additional citations

  1. Neese,F.
     Approximate second-order SCF convergence for spin unrestricted wavefunctions
     Chem. Phys. Lett., 2000 325(1-3)93-98
     doi.org/10.1016/s0009-2614(00)00662-x

Timings for individual modules:

Sum of individual times          ...        2.915 sec (=   0.049 min)
Startup calculation              ...        0.200 sec (=   0.003 min)   6.8 %
SCF iterations                   ...        2.684 sec (=   0.045 min)  92.1 %
Property calculations            ...        0.032 sec (=   0.001 min)   1.1 %
                             ****ORCA TERMINATED NORMALLY****
TOTAL RUN TIME: 0 days 0 hours 0 minutes 2 seconds 984 msec
