      -----------------------------------------------------------      
     |                   =====================                   |     
     |                           x T B                           |     
     |                   =====================                   |     
     |                         S. Grimme                         |     
     |          Mulliken Center for Theoretical Chemistry        |     
     |                    University of Bonn                     |     
      -----------------------------------------------------------      

   * xtb version 6.7.1 (41059b4) compiled by 'michael@archlinux' on 2025-03-24

   xtb is free software: you can redistribute it and/or modify it under
   the terms of the GNU Lesser General Public License as published by
   the Free Software Foundation, either version 3 of the License, or
   (at your option) any later version.
   
   xtb is distributed in the hope that it will be useful,
   but WITHOUT ANY WARRANTY; without even the implied warranty of
   MERCHANTABILITY or FITNESS FOR A PARTICULAR PURPOSE.  See the
   GNU Lesser General Public License for more details.
   
   Cite this work as:
   * C. Bannwarth, E. Caldeweyher, S. Ehlert, A. Hansen, P. Pracht,
     J. Seibert, S. Spicher, S. Grimme, WIREs Comput. Mol. Sci., 2020, 11,
     e01493. DOI: 10.1002/wcms.1493
   
   for GFN2-xTB:
   * C. Bannwarth, S. Ehlert and S. Grimme., J. Chem. Theory Comput., 2019,
     15, 1652-1671. DOI: 10.1021/acs.jctc.8b01176
   for GFN1-xTB:
   * S. Grimme, C. Bannwarth, P. Shushkov, J. Chem. Theory Comput., 2017,
     13, 1989-2009. DOI: 10.1021/acs.jctc.7b00118
   for GFN0-xTB:
   * P. Pracht, E. Caldeweyher, S. Ehlert, S. Grimme, ChemRxiv, 2019, preprint.
     DOI: 10.26434/chemrxiv.8326202.v1
   for GFN-FF:
   * S. Spicher and S. Grimme, Angew. Chem. Int. Ed., 2020, 59, 15665-15673.
     DOI: 10.1002/anie.202004239
   
   for ALPB and GBSA implicit solvation:
   * S. Ehlert, M. Stahn, S. Spicher, S. Grimme, J. Chem. Theory Comput.,
     2021, 17, 4250-4261. DOI: 10.1021/acs.jctc.1c00471
   
   for ddCOSMO and CPCM-X implicit solvation:
   * M. Stahn, S. Ehlert, S. Grimme, J. Phys. Chem. A,
     2023, XX, XXXX-XXXX. DOI: 10.1021/acs.jpca.3c04382
   
   for DFT-D4:
   * E. Caldeweyher, C. Bannwarth and S. Grimme, J. Chem. Phys., 2017,
     147, 034112. DOI: 10.1063/1.4993215
   * E. Caldeweyher, S. Ehlert, A. Hansen, H. Neugebauer, S. Spicher,
     C. Bannwarth and S. Grimme, J. Chem. Phys., 2019, 150, 154122.
     DOI: 10.1063/1.5090222
   * E. Caldeweyher, J.-M. Mewes, S. Ehlert and S. Grimme, Phys. Chem. Chem. Phys.
     2020, 22, 8499-8512. DOI: 10.1039/D0CP00502A
   
   for sTDA-xTB:
   * S. Grimme and C. Bannwarth, J. Chem. Phys., 2016, 145, 054103.
     DOI: 10.1063/1.4959605
   
   in the mass-spec context:
   * V. Asgeirsson, C. Bauer and S. Grimme, Chem. Sci., 2017, 8, 4879.
     DOI: 10.1039/c7sc00601b
   * J. Koopman and S. Grimme, ACS Omega 2019, 4, 12, 15120-15133.
     DOI: 10.1021/acsomega.9b02011
   
   for metadynamics refer to:
   * S. Grimme, J. Chem. Theory Comput., 2019, 155, 2847-2862
     DOI: 10.1021/acs.jctc.9b00143
   
   for SPH calculations refer to:
   * S. Spicher and S. Grimme, J. Chem. Theory Comput., 2021, 17, 1701-1714
     DOI: 10.1021/acs.jctc.0c01306
   
   for ONIOM refer to:
   * C. Plett, A. Katbashev, S. Ehlert, S. Grimme, M. Bursch,
     Phys. Chem. Chem. Phys., 2023, 25, 17860-17868. DOI: 10.1039/D3CP02178E
   
   for DIPRO refer to:
   * J. Kohn, N. Gildemeister, S. Grimme, D. Fazzi, A. Hansen,
     J. Chem. Phys., 2023, just accepted.
   
   for PTB refer to:
   * S. Grimme, M. Mueller, A. Hansen, J. Chem. Phys., 2023, 158, 124111.
     DOI: 10.1063/5.0137838
   
   with help from (in alphabetical order)
   P. Atkinson, C. Bannwarth, F. Bohle, G. Brandenburg, E. Caldeweyher
   M. Checinski, S. Dohm, S. Ehlert, S. Ehrlich, I. Gerasimov, C. Hölzer
   A. Katbashev, J. Kohn, J. Koopman, C. Lavigne, S. Lehtola, F. März, M. Müller,
   F. Musil, H. Neugebauer, J. Pisarek, C. Plett, P. Pracht, F. Pultar,
   J. Seibert, P. Shushkov, S. Spicher, M. Stahn, M. Steiner, T. Strunk,
   J. Stückrath, T. Rose, and J. Unsleber
   
 * started run on 2025/04/09 at 05:27:49.026     
   ID    Z sym.   atoms
    1    6 C      1-3, 6
    2    8 O      4, 7
    3    7 N      5, 8
    4   53 I      9
    5    1 H      10-12

           -------------------------------------------------
          |                Calculation Setup                |
           -------------------------------------------------

          program call               : /usr/bin/xtb xtb_rrho.coord --gfn2 --ohess vtight --chrg 0 --enso --norestart -I rrho-xcontrol-inp --parallel 1
          coordinate file            : xtb_rrho.coord
          omp threads                :                     1


           -------------------------------------------------
          |                 G F N 2 - x T B                 |
           -------------------------------------------------

        Reference                      10.1021/acs.jctc.8b01176
      * Hamiltonian:
        H0-scaling (s, p, d)           1.850000    2.230000    2.230000
        zeta-weighting                 0.500000
      * Dispersion:
        s8                             2.700000
        a1                             0.520000
        a2                             5.000000
        s9                             5.000000
      * Repulsion:
        kExp                           1.500000    1.000000
        rExp                           1.000000
      * Coulomb:
        alpha                          2.000000
        third order                    shell-resolved
        anisotropic                    true
        a3                             3.000000
        a5                             4.000000
        cn-shift                       1.200000
        cn-exp                         4.000000
        max-rad                        5.000000


          ...................................................
          :                      SETUP                      :
          :.................................................:
          :  # basis functions                  45          :
          :  # atomic orbitals                  44          :
          :  # shells                           22          :
          :  # electrons                        48          :
          :  max. iterations                   250          :
          :  Hamiltonian                  GFN2-xTB          :
          :  restarted?                      false          :
          :  GBSA solvation                  false          :
          :  PC potential                    false          :
          :  electronic temp.          300.0000000     K    :
          :  accuracy                    1.0000000          :
          :  -> integral cutoff          0.2500000E+02      :
          :  -> integral neglect         0.1000000E-07      :
          :  -> SCF convergence          0.1000000E-05 Eh   :
          :  -> wf. convergence          0.1000000E-03 e    :
          :  Broyden damping             0.4000000          :
          :  net charge                          0          :
          :  unpaired electrons                  0          :
          ...................................................

 iter      E             dE          RMSdq      gap      omega  full diag
   1    -28.0424784 -0.280425E+02  0.770E+00    3.83       0.0  T
   2    -28.1631130 -0.120635E+00  0.525E+00    3.14       1.0  T
   3    -28.1728046 -0.969154E-02  0.310E+00    3.37       1.0  T
   4    -28.1694624  0.334215E-02  0.168E+00    3.03       1.0  T
   5    -28.1870795 -0.176171E-01  0.421E-01    3.08       1.0  T
   6    -28.1870485  0.309476E-04  0.329E-01    3.14       1.0  T
   7    -28.1872735 -0.224916E-03  0.173E-01    3.13       1.0  T
   8    -28.1872771 -0.360800E-05  0.107E-01    3.12       1.0  T
   9    -28.1872893 -0.121882E-04  0.404E-02    3.12       1.0  T
  10    -28.1872922 -0.295185E-05  0.755E-03    3.13       3.8  T
  11    -28.1872923 -0.108107E-06  0.394E-03    3.13       7.3  T
  12    -28.1872923 -0.129898E-07  0.718E-04    3.13      40.2  T
  13    -28.1872923 -0.479560E-09  0.423E-04    3.13      68.3  T

   *** convergence criteria satisfied after 13 iterations ***

         #    Occupation            Energy/Eh            Energy/eV
      -------------------------------------------------------------
         1        2.0000           -0.7603971             -20.6915
       ...           ...                  ...                  ...
        18        2.0000           -0.5135653             -13.9748
        19        2.0000           -0.4672067             -12.7133
        20        2.0000           -0.4618096             -12.5665
        21        2.0000           -0.4594746             -12.5029
        22        2.0000           -0.4423001             -12.0356
        23        2.0000           -0.4284740             -11.6594
        24        2.0000           -0.4175611             -11.3624 (HOMO)
        25                         -0.3026327              -8.2351 (LUMO)
        26                         -0.2608907              -7.0992
        27                         -0.2500975              -6.8055
        28                         -0.1783568              -4.8533
        29                         -0.0382904              -1.0419
       ...                                ...                  ...
        44                          0.6495537              17.6753
      -------------------------------------------------------------
                  HL-Gap            0.1149284 Eh            3.1274 eV
             Fermi-level           -0.3600969 Eh           -9.7987 eV

 SCC (total)                   0 d,  0 h,  0 min,  0.007 sec
 SCC setup                      ...        0 min,  0.000 sec (  0.918%)
 Dispersion                     ...        0 min,  0.000 sec (  0.607%)
 classical contributions        ...        0 min,  0.000 sec (  0.175%)
 integral evaluation            ...        0 min,  0.001 sec ( 17.293%)
 iterations                     ...        0 min,  0.004 sec ( 50.690%)
 molecular gradient             ...        0 min,  0.002 sec ( 29.564%)
 printout                       ...        0 min,  0.000 sec (  0.652%)

         :::::::::::::::::::::::::::::::::::::::::::::::::::::
         ::                     SUMMARY                     ::
         :::::::::::::::::::::::::::::::::::::::::::::::::::::
         :: total energy             -27.915700376756 Eh    ::
         :: gradient norm              0.034541143310 Eh/a0 ::
         :: HOMO-LUMO gap              3.127361135254 eV    ::
         ::.................................................::
         :: SCC energy               -28.187276949683 Eh    ::
         :: -> isotropic ES            0.071249286395 Eh    ::
         :: -> anisotropic ES          0.002840310819 Eh    ::
         :: -> anisotropic XC          0.001822220955 Eh    ::
         :: -> dispersion             -0.011684288927 Eh    ::
         :: repulsion energy           0.271576572926 Eh    ::
         :: add. restraining           0.000000000000 Eh    ::
         :: total charge              -0.000000000000 e     ::
         :::::::::::::::::::::::::::::::::::::::::::::::::::::

      ----------------------------------------------------------- 
     |                   =====================                   |
     |                        A N C O P T                        |
     |                   =====================                   |
     |               Approximate Normal Coordinate               |
     |                Rational Function Optimizer                |
      ----------------------------------------------------------- 

          ...................................................
          :                      SETUP                      :
          :.................................................:
          :   optimization level         verytight          :
          :   max. optcycles                   240          :
          :   ANC micro-cycles                  20          :
          :   degrees of freedom                30          :
          :.................................................:
          :   RF solver                   davidson          :
          :   write xtbopt.log                true          :
          :   linear?                        false          :
          :   energy convergence         0.1000000E-06 Eh   :
          :   grad. convergence          0.2000000E-03 Eh/α :
          :   maximum RF displ.          1.0000000          :
          :   Hlow (freq-cutoff)         0.1000000E-01      :
          :   Hmax (freq-cutoff)         5.0000000          :
          :   S6 in model hess.         20.0000000          :
          ...................................................

generating ANC from exact Hessian ...
Using Lindh-Hessian (1995)
 Shifting diagonal of input Hessian by    6.7121643087597639E-003
 Lowest  eigenvalues of input Hessian
    0.000000    0.000000    0.000000    0.000000    0.000000    0.000000
    0.010000    0.016351    0.024941    0.031169    0.041476    0.075305
    0.092388    0.102714    0.120762    0.136954    0.147577    0.154807
 Highest eigenvalues
    1.645023    1.755102    1.971656    2.020148    2.318648    2.519143


........................................................................
.............................. CYCLE    1 ..............................
........................................................................

 iter      E             dE          RMSdq      gap      omega  full diag
   1    -28.1872923 -0.281873E+02  0.209E-04    3.13       0.0  T
   2    -28.1872923 -0.571205E-10  0.156E-04    3.13     185.0  T
   3    -28.1872923 -0.122036E-10  0.112E-04    3.13     257.9  T
     SCC iter.                  ...        0 min,  0.001 sec
     gradient                   ...        0 min,  0.002 sec
 * total energy  :   -27.9157004 Eh     change       -0.2081997E-09 Eh
   gradient norm :     0.0345408 Eh/α   predicted     0.0000000E+00 (-100.00%)
   displ. norm   :     0.1134062 α      lambda       -0.1891496E-02
   maximum displ.:     0.0877096 α      in ANC's #2, #17, #7, ...

........................................................................
.............................. CYCLE    2 ..............................
........................................................................

 iter      E             dE          RMSdq      gap      omega  full diag
   1    -28.2005110 -0.282005E+02  0.216E-01    3.20       0.0  T
   2    -28.2005496 -0.385941E-04  0.120E-01    3.18       1.0  T
   3    -28.2005338  0.158474E-04  0.840E-02    3.18       1.0  T
   4    -28.2005636 -0.298119E-04  0.182E-02    3.18       1.6  T
   5    -28.2005647 -0.109043E-05  0.117E-02    3.18       2.5  T
   6    -28.2005652 -0.507129E-06  0.567E-03    3.18       5.1  T
   7    -28.2005652 -0.252483E-07  0.284E-03    3.18      10.2  T
   8    -28.2005652 -0.883002E-08  0.181E-03    3.18      15.9  T
   9    -28.2005652 -0.345146E-08  0.477E-04    3.18      60.5  T
  10    -28.2005652 -0.175081E-09  0.240E-04    3.18     120.2  T
     SCC iter.                  ...        0 min,  0.003 sec
     gradient                   ...        0 min,  0.002 sec
 * total energy  :   -27.9167867 Eh     change       -0.1086275E-02 Eh
   gradient norm :     0.0079868 Eh/α   predicted    -0.9579114E-03 ( -11.82%)
   displ. norm   :     0.0289392 α      lambda       -0.1237331E-03
   maximum displ.:     0.0172948 α      in ANC's #2, #7, #17, ...

........................................................................
.............................. CYCLE    3 ..............................
........................................................................

 iter      E             dE          RMSdq      gap      omega  full diag
   1    -28.2030107 -0.282030E+02  0.542E-02    3.20       0.0  T
   2    -28.2030168 -0.609894E-05  0.340E-02    3.19       1.0  T
   3    -28.2030176 -0.733900E-06  0.172E-02    3.19       1.7  T
   4    -28.2030177 -0.181174E-06  0.533E-03    3.19       5.4  T
   5    -28.2030179 -0.121694E-06  0.308E-03    3.19       9.4  T
   6    -28.2030179 -0.210887E-07  0.204E-03    3.19      14.1  T
   7    -28.2030179 -0.538281E-08  0.135E-03    3.19      21.3  T
   8    -28.2030179 -0.124066E-08  0.590E-04    3.19      48.9  T
   9    -28.2030179 -0.111186E-09  0.396E-04    3.19      73.0  T
     SCC iter.                  ...        0 min,  0.003 sec
     gradient                   ...        0 min,  0.002 sec
 * total energy  :   -27.9168556 Eh     change       -0.6895743E-04 Eh
   gradient norm :     0.0045419 Eh/α   predicted    -0.6191709E-04 ( -10.21%)
   displ. norm   :     0.0197103 α      lambda       -0.2637658E-04
   maximum displ.:     0.0174425 α      in ANC's #2, #7, #19, ...

........................................................................
.............................. CYCLE    4 ..............................
........................................................................

 iter      E             dE          RMSdq      gap      omega  full diag
   1    -28.2027971 -0.282028E+02  0.377E-02    3.19       0.0  T
   2    -28.2027986 -0.146220E-05  0.194E-02    3.19       1.5  T
   3    -28.2027986  0.127316E-07  0.639E-03    3.19       4.5  T
   4    -28.2027987 -0.126642E-06  0.282E-03    3.19      10.2  T
   5    -28.2027988 -0.427978E-07  0.126E-03    3.19      22.9  T
   6    -28.2027988 -0.139287E-08  0.624E-04    3.19      46.3  T
   7    -28.2027988 -0.105722E-08  0.186E-04    3.19     155.3  T
     SCC iter.                  ...        0 min,  0.002 sec
     gradient                   ...        0 min,  0.002 sec
 * total energy  :   -27.9168715 Eh     change       -0.1592126E-04 Eh
   gradient norm :     0.0022924 Eh/α   predicted    -0.1319339E-04 ( -17.13%)
   displ. norm   :     0.0060583 α      lambda       -0.7532221E-05
   maximum displ.:     0.0033503 α      in ANC's #10, #7, #11, ...

........................................................................
.............................. CYCLE    5 ..............................
........................................................................

 iter      E             dE          RMSdq      gap      omega  full diag
   1    -28.2023822 -0.282024E+02  0.111E-02    3.19       0.0  T
   2    -28.2023825 -0.227366E-06  0.639E-03    3.19       4.5  T
   3    -28.2023826 -0.120743E-06  0.480E-03    3.19       6.0  T
   4    -28.2023826 -0.710039E-07  0.178E-03    3.19      16.2  T
   5    -28.2023826 -0.122863E-08  0.788E-04    3.19      36.6  T
   6    -28.2023826 -0.249578E-10  0.533E-04    3.19      54.2  T
     SCC iter.                  ...        0 min,  0.002 sec
     gradient                   ...        0 min,  0.002 sec
 * total energy  :   -27.9168760 Eh     change       -0.4500336E-05 Eh
   gradient norm :     0.0010084 Eh/α   predicted    -0.3766130E-05 ( -16.31%)
   displ. norm   :     0.0042194 α      lambda       -0.1403081E-05
   maximum displ.:     0.0024948 α      in ANC's #10, #7, #12, ...

........................................................................
.............................. CYCLE    6 ..............................
........................................................................

 iter      E             dE          RMSdq      gap      omega  full diag
   1    -28.2021673 -0.282022E+02  0.982E-03    3.19       0.0  T
   2    -28.2021673 -0.418582E-07  0.554E-03    3.19       5.2  T
   3    -28.2021673  0.245927E-07  0.475E-03    3.19       6.1  T
   4    -28.2021674 -0.960781E-07  0.110E-03    3.19      26.3  T
   5    -28.2021674 -0.310003E-08  0.660E-04    3.19      43.8  T
   6    -28.2021674 -0.151687E-09  0.412E-04    3.19      70.0  T
     SCC iter.                  ...        0 min,  0.002 sec
     gradient                   ...        0 min,  0.002 sec
 * total energy  :   -27.9168770 Eh     change       -0.9706506E-06 Eh
   gradient norm :     0.0005389 Eh/α   predicted    -0.7001481E-06 ( -27.87%)
   displ. norm   :     0.0016389 α      lambda       -0.3224564E-06
   maximum displ.:     0.0009011 α      in ANC's #9, #15, #12, ...

........................................................................
.............................. CYCLE    7 ..............................
........................................................................

 iter      E             dE          RMSdq      gap      omega  full diag
   1    -28.2023223 -0.282023E+02  0.464E-03    3.19       0.0  T
   2    -28.2023223 -0.167901E-07  0.265E-03    3.19      10.9  T
   3    -28.2023223  0.362438E-08  0.152E-03    3.19      19.0  T
   4    -28.2023223 -0.595147E-08  0.982E-04    3.19      29.4  T
   5    -28.2023223 -0.228886E-08  0.596E-04    3.19      48.5  T
     SCC iter.                  ...        0 min,  0.001 sec
     gradient                   ...        0 min,  0.002 sec
 * total energy  :   -27.9168772 Eh     change       -0.2220973E-06 Eh
   gradient norm :     0.0002034 Eh/α   predicted    -0.1600187E-06 ( -27.95%)
   displ. norm   :     0.0011188 α      lambda       -0.9108801E-07
   maximum displ.:     0.0006764 α      in ANC's #7, #2, #10, ...

........................................................................
.............................. CYCLE    8 ..............................
........................................................................

 iter      E             dE          RMSdq      gap      omega  full diag
   1    -28.2023432 -0.282023E+02  0.254E-03    3.19       0.0  T
   2    -28.2023432 -0.425601E-08  0.160E-03    3.19      18.0  T
   3    -28.2023432 -0.555655E-09  0.986E-04    3.19      29.3  T
   4    -28.2023432 -0.403146E-08  0.626E-04    3.19      46.1  T
     SCC iter.                  ...        0 min,  0.001 sec
     gradient                   ...        0 min,  0.002 sec
 * total energy  :   -27.9168773 Eh     change       -0.4759301E-07 Eh
   gradient norm :     0.0001199 Eh/α   predicted    -0.4425368E-07 (  -7.02%)
   displ. norm   :     0.0004332 α      lambda       -0.1919714E-07
   maximum displ.:     0.0002598 α      in ANC's #7, #2, #12, ...

   *** GEOMETRY OPTIMIZATION CONVERGED AFTER 8 ITERATIONS ***

------------------------------------------------------------------------
 total energy gain   :        -0.0011769 Eh       -0.7385 kcal/mol
 total RMSD          :         0.0381192 a0        0.0202 Å
 total power (kW/mol):        -0.3862421 (step)  -73.2065 (real)
------------------------------------------------------------------------

 ANCopt (total)                0 d,  0 h,  0 min,  0.042 sec
 optimizer setup                ...        0 min,  0.000 sec (  0.126%)
 model hessian                  ...        0 min,  0.000 sec (  1.059%)
 ANC generation                 ...        0 min,  0.000 sec (  0.252%)
 coordinate transformation      ...        0 min,  0.000 sec (  0.043%)
 single point calculation       ...        0 min,  0.040 sec ( 95.823%)
 optimization log               ...        0 min,  0.000 sec (  0.637%)
 hessian update                 ...        0 min,  0.000 sec (  0.060%)
 rational function              ...        0 min,  0.000 sec (  0.719%)

================
 final structure:
================
$coord
        1.96447635666708        2.55320771517758        0.00041278907042      C
        0.67281665169726        0.36575441569024        0.00027292366704      C
        1.97540221051966       -2.06135594441768       -0.00011866321208      C
        0.98134145851008       -4.10704587119034       -0.00025201520563      O
        4.59262570666884       -1.80233216154014       -0.00033322913072      N
        5.99099032632173        0.38847226364553       -0.00019538467526      C
        8.26285562036381        0.43751260297960       -0.00038812299957      O
        4.53991304998124        2.56361539472855        0.00018789087989      N
       -3.27367518390001        0.22007244670308        0.00060300689202      I
        1.04159054149290        4.37320326664438        0.00070369642060      H
        5.60108822433515       -3.43366935941703       -0.00061021028506      H
        5.50415856489825        4.21214113387479        0.00030157859440      H
$end

 Bond Distances (Angstroems)
 ---------------------------
C1-C2=1.3443         C1-N8=1.3629         C1-H10=1.0798        C2-C1=1.3443         C2-C3=1.4576         C2-I9=2.0898         
C3-C2=1.4576         C3-O4=1.2036         C3-N5=1.3917         O4-C3=1.2036         N5-C3=1.3917         N5-C6=1.3754         
N5-H11=1.0149        C6-N5=1.3754         C6-O7=1.2025         C6-N8=1.3837         O7-C6=1.2025         N8-C1=1.3629         
N8-C6=1.3837         N8-H12=1.0106        I9-C2=2.0898         H10-C1=1.0798        H11-N5=1.0149        H12-N8=1.0106        
 C  H  Rav=1.0798 sigma=0.0000  Rmin=1.0798  Rmax=1.0798     1
 C  C  Rav=1.4010 sigma=0.0567  Rmin=1.3443  Rmax=1.4576     2
 N  H  Rav=1.0128 sigma=0.0021  Rmin=1.0106  Rmax=1.0149     2
 N  C  Rav=1.3784 sigma=0.0107  Rmin=1.3629  Rmax=1.3917     4
 O  C  Rav=1.2030 sigma=0.0005  Rmin=1.2025  Rmax=1.2036     2
 I  C  Rav=2.0898 sigma=0.0000  Rmin=2.0898  Rmax=2.0898     1

 selected bond angles (degree)
 --------------------
N8-C1-C2=120.79                H10-C1-C2=122.55               H10-C1-N8=116.66               C3-C2-C1=121.22                
I9-C2-C1=122.68                I9-C2-C3=116.11                O4-C3-C2=125.86                N5-C3-C2=112.57                
N5-C3-O4=121.57                C6-N5-C3=128.20                H11-N5-C3=116.07               H11-N5-C6=115.73               
O7-C6-N5=123.79                N8-C6-N5=113.74                N8-C6-O7=122.47                C6-N8-C1=123.48                
H12-N8-C1=120.56               H12-N8-C6=115.97               

 selected dihedral angles (degree)
 ---------------------------------
C3-C2-C1-N8=  0.00            C3-C2-C1-H10=180.00           I9-C2-C1-N8=180.00            I9-C2-C1-H10=  0.00           
O4-C3-C2-C1=180.00            O4-C3-C2-I9=  0.00            N5-C3-C2-C1=  0.00            N5-C3-C2-I9=180.00            
C6-N5-C3-C2=  0.00            C6-N5-C3-O4=180.00            H11-N5-C3-C2=180.00           H11-N5-C3-O4=  0.00           
O7-C6-N5-C3=180.00            O7-C6-N5-H11=  0.00           N8-C6-N5-C3=  0.00            N8-C6-N5-H11=180.00           
C6-N8-C1-C2=  0.00            C6-N8-C1-H10=180.00           H12-N8-C1-C2=180.00           H12-N8-C1-H10=  0.00          
C1-N8-C6-N5=  0.00            C1-N8-C6-O7=180.00            H12-N8-C6-N5=180.00           H12-N8-C6-O7=  0.00           
           -------------------------------------------------
          |                Final Singlepoint                |
           -------------------------------------------------

          ...................................................
          :                      SETUP                      :
          :.................................................:
          :  # basis functions                  45          :
          :  # atomic orbitals                  44          :
          :  # shells                           22          :
          :  # electrons                        48          :
          :  max. iterations                   250          :
          :  Hamiltonian                  GFN2-xTB          :
          :  restarted?                      false          :
          :  GBSA solvation                  false          :
          :  PC potential                    false          :
          :  electronic temp.          300.0000000     K    :
          :  accuracy                    1.0000000          :
          :  -> integral cutoff          0.2500000E+02      :
          :  -> integral neglect         0.1000000E-07      :
          :  -> SCF convergence          0.1000000E-05 Eh   :
          :  -> wf. convergence          0.1000000E-03 e    :
          :  Broyden damping             0.4000000          :
          :  net charge                          0          :
          :  unpaired electrons                  0          :
          ...................................................

 iter      E             dE          RMSdq      gap      omega  full diag
   1    -28.2023432 -0.282023E+02  0.319E-04    3.19       0.0  T
   2    -28.2023432 -0.637499E-10  0.241E-04    3.19     120.0  T
   3    -28.2023432 -0.244995E-10  0.183E-04    3.19     158.0  T

   *** convergence criteria satisfied after 3 iterations ***

         #    Occupation            Energy/Eh            Energy/eV
      -------------------------------------------------------------
         1        2.0000           -0.7584610             -20.6388
       ...           ...                  ...                  ...
        18        2.0000           -0.5115264             -13.9193
        19        2.0000           -0.4685305             -12.7494
        20        2.0000           -0.4607104             -12.5366
        21        2.0000           -0.4594774             -12.5030
        22        2.0000           -0.4410115             -12.0005
        23        2.0000           -0.4266073             -11.6086
        24        2.0000           -0.4163148             -11.3285 (HOMO)
        25                         -0.2989689              -8.1354 (LUMO)
        26                         -0.2569378              -6.9916
        27                         -0.2483270              -6.7573
        28                         -0.1716208              -4.6700
        29                         -0.0336935              -0.9168
       ...                                ...                  ...
        44                          0.6842657              18.6198
      -------------------------------------------------------------
                  HL-Gap            0.1173458 Eh            3.1931 eV
             Fermi-level           -0.3576419 Eh           -9.7319 eV

 SCC (total)                   0 d,  0 h,  0 min,  0.004 sec
 SCC setup                      ...        0 min,  0.000 sec (  0.715%)
 Dispersion                     ...        0 min,  0.000 sec (  0.417%)
 classical contributions        ...        0 min,  0.000 sec (  0.162%)
 integral evaluation            ...        0 min,  0.001 sec ( 23.466%)
 iterations                     ...        0 min,  0.001 sec ( 23.383%)
 molecular gradient             ...        0 min,  0.002 sec ( 50.694%)
 printout                       ...        0 min,  0.000 sec (  0.988%)

         :::::::::::::::::::::::::::::::::::::::::::::::::::::
         ::                     SUMMARY                     ::
         :::::::::::::::::::::::::::::::::::::::::::::::::::::
         :: total energy             -27.916877272080 Eh    ::
         :: gradient norm              0.000116774272 Eh/a0 ::
         :: HOMO-LUMO gap              3.193142156392 eV    ::
         ::.................................................::
         :: SCC energy               -28.202327985567 Eh    ::
         :: -> isotropic ES            0.071472272895 Eh    ::
         :: -> anisotropic ES          0.002753124657 Eh    ::
         :: -> anisotropic XC          0.001355178132 Eh    ::
         :: -> dispersion             -0.011748745060 Eh    ::
         :: repulsion energy           0.285450713487 Eh    ::
         :: add. restraining           0.000000000000 Eh    ::
         :: total charge               0.000000000000 e     ::
         :::::::::::::::::::::::::::::::::::::::::::::::::::::

           ------------------------------------------------- 
          |                Numerical Hessian                |
           ------------------------------------------------- 
step length          :   0.00500
SCC accuracy         :   0.30000
Hessian scale factor :   1.00000
frozen atoms in %    :   0.00000    0
RMS gradient         :   0.00012
estimated CPU  time      0.01 min
estimated wall time      0.01 min

writing file <hessian>, containing the non-mass-weighted Hessian matrix in atomic units (Eₕ/Bohr²).

 projected vibrational frequencies (cm⁻¹)
eigval :       -0.00    -0.00    -0.00    -0.00     0.00     0.00
eigval :       76.90   141.97   145.82   239.15   253.66   350.00
eigval :      385.28   507.89   575.76   584.08   595.15   662.89
eigval :      676.97   715.78   771.95   861.66   951.45  1002.74
eigval :     1132.56  1153.84  1262.57  1279.08  1310.30  1402.41
eigval :     1616.20  1755.49  1788.08  3085.15  3389.79  3434.31
           -------------------------------------------------
          |                Property Printout                |
           -------------------------------------------------

    * Orbital Energies and Occupations

         #    Occupation            Energy/Eh            Energy/eV
      -------------------------------------------------------------
         1        2.0000           -0.7584600             -20.6387
       ...           ...                  ...                  ...
        12        2.0000           -0.5834074             -15.8753
        13        2.0000           -0.5731762             -15.5969
        14        2.0000           -0.5684151             -15.4674
        15        2.0000           -0.5526160             -15.0374
        16        2.0000           -0.5372374             -14.6190
        17        2.0000           -0.5304055             -14.4331
        18        2.0000           -0.5115252             -13.9193
        19        2.0000           -0.4685298             -12.7493
        20        2.0000           -0.4607095             -12.5365
        21        2.0000           -0.4594768             -12.5030
        22        2.0000           -0.4410108             -12.0005
        23        2.0000           -0.4266061             -11.6085
        24        2.0000           -0.4163137             -11.3285 (HOMO)
        25                         -0.2989680              -8.1353 (LUMO)
        26                         -0.2569370              -6.9916
        27                         -0.2483251              -6.7573
        28                         -0.1716198              -4.6700
        29                         -0.0336927              -0.9168
        30                         -0.0114509              -0.3116
        31                          0.0004274               0.0116
        32                          0.0066801               0.1818
        33                          0.0376771               1.0252
        34                          0.0383977               1.0449
        35                          0.0716850               1.9506
       ...                                ...                  ...
        44                          0.6842665              18.6198
      -------------------------------------------------------------
                  HL-Gap            0.1173456 Eh            3.1931 eV
             Fermi-level           -0.3576408 Eh           -9.7319 eV

     #   Z          covCN         q      C6AA      α(0)
     1   6          2.979     0.034    27.237     8.561
     2   6          2.942    -0.004    28.134     8.699
     3   6          2.903     0.286    22.166     7.720
     4   8          0.864    -0.376    21.212     6.175
     5   7          2.702    -0.187    25.051     7.434
     6   6          2.692     0.335    21.307     7.555
     7   8          0.859    -0.415    21.982     6.286
     8   7          2.703    -0.136    23.940     7.267
     9  53          1.252    -0.059   376.296    33.486
    10   1          0.926     0.082     1.958     2.188
    11   1          0.860     0.226     0.984     1.554
    12   1          0.860     0.215     1.034     1.593

 Mol. C6AA /au·bohr⁶  :       3796.638599
 Mol. C8AA /au·bohr⁸  :     153202.757384
 Mol. α(0) /au        :         98.516842


Wiberg/Mayer (AO) data.
largest (>0.10) Wiberg bond orders for each atom

 ---------------------------------------------------------------------------
     #   Z sym  total        # sym  WBO       # sym  WBO       # sym  WBO
 ---------------------------------------------------------------------------
     1   6      3.964 --     2      1.662     8      1.193    10      0.959
     2   6      3.956 --     1      1.662     3      1.068     9      0.997
     3   6      3.952 --     4      1.725     5      1.094     2      1.068
     4   8      2.078 --     3      1.725     5      0.146
     5   7      3.504 --     6      1.130     3      1.094    11      0.916
                             4      0.146     7      0.143
     6   6      3.961 --     7      1.672     5      1.130     8      1.100
     7   8      2.020 --     6      1.672     5      0.143     8      0.132
     8   7      3.534 --     1      1.193     6      1.100    12      0.925
                             7      0.132
     9  53      1.128 --     2      0.997
    10   1      0.993 --     1      0.959
    11   1      0.949 --     5      0.916
    12   1      0.954 --     8      0.925
 ---------------------------------------------------------------------------

Topologies differ in total number of bonds
Writing topology from bond orders to xtbtopo.mol

molecular dipole:
                 x           y           z       tot (Debye)
 q only:        0.089       1.454       0.000
   full:        0.816       1.567       0.000       4.491
molecular quadrupole (traceless):
                xx          xy          yy          xz          yz          zz
 q only:       -9.924       1.236       6.160       0.001       0.001       3.763
  q+dip:      -17.365       1.684      10.836       0.003       0.001       6.529
   full:      -16.188       1.679       8.556       0.003       0.001       7.632

           -------------------------------------------------
          |                Geometry Summary                 |
           -------------------------------------------------

      molecular mass/u    :      237.9834540
   center of mass at/Å    :       -0.0000539       0.0000885       0.0001537
  moments of inertia/u·Å² :        0.1675781E+03   0.1020679E+04   0.1188257E+04
rotational constants/cm⁻¹ :        0.1005957E+00   0.1651609E-01   0.1418685E-01

 * 11 selected distances

     #   Z          #   Z                                           value/Å
     1   6          2   6                                         1.3442911
     3   6          4   8                                         1.2035734
     3   6          5   7                                         1.3917414
     5   7          6   6                                         1.3753568
     6   6          7   8                                         1.2024995
     1   6          8   7                                         1.3628737
     6   6          8   7                                         1.3836617
     2   6          9  53                                         2.0898161 (max)
     1   6         10   1                                         1.0798461
     5   7         11   1                                         1.0148977
     8   7         12   1                                         1.0106325 (min)

 * 6 distinct bonds (by element types)

   Z      Z             #   av. dist./Å        max./Å        min./Å
   1 H    6 C           1     1.0798461     1.0798461     1.0798461
   6 C    6 C           1     1.3442911     1.3442911     1.3442911
   1 H    7 N           2     1.0127651     1.0148977     1.0106325
   6 C    7 N           4     1.3784084     1.3917414     1.3628737
   6 C    8 O           2     1.2030365     1.2035734     1.2024995
   6 C   53 I           1     2.0898161     2.0898161     2.0898161

           -------------------------------------------------
          |               Frequency Printout                |
           -------------------------------------------------
 projected vibrational frequencies (cm⁻¹)
eigval :       -0.00    -0.00    -0.00    -0.00     0.00     0.00
eigval :       76.90   141.97   145.82   239.15   253.66   350.00
eigval :      385.28   507.89   575.76   584.08   595.15   662.89
eigval :      676.97   715.78   771.95   861.66   951.45  1002.74
eigval :     1132.56  1153.84  1262.57  1279.08  1310.30  1402.41
eigval :     1616.20  1755.49  1788.08  3085.15  3389.79  3434.31
 reduced masses (amu)
    1:     23.32    2:      7.50    3:     21.24    4:     11.13    5:     22.88    6:     13.15
    7:      9.82    8:     12.19    9:      8.16   10:     15.60   11:      9.05   12:      3.43
   13:     11.51   14:      8.42   15:      6.65   16:      7.50   17:      1.12   18:      3.44
   19:      7.14   20:      1.62   21:      9.14   22:      1.32   23:      3.21   24:      4.77
   25:      3.12   26:      1.42   27:      2.29   28:      1.87   29:      2.24   30:      4.71
Molecule has the following symmetry elements: (sigma) 
It seems to be the Cs point group
   31:      9.27   32:     11.51   33:     11.28   34:      1.08   35:      1.07   36:      1.07
 IR intensities (km·mol⁻¹)
    1:      0.14    2:      2.89    3:      0.03    4:      1.29    5:      0.09    6:      0.47
    7:      3.94    8:      3.08    9:      5.38   10:      9.43   11:      0.01   12:      7.29
   13:     31.80   14:      4.88   15:      2.27   16:      7.10   17:     88.49   18:      8.58
   19:      8.60   20:    215.15   21:      0.43   22:     15.53   23:      2.88   24:     40.48
   25:      6.42   26:     66.01   27:     76.34   28:     71.09   29:     36.18   30:    174.07
   31:    103.96   32:    575.42   33:    901.00   34:     10.09   35:     39.05   36:     71.63
 Raman intensities (Ä⁴*amu⁻¹)
    1:      0.00    2:      0.00    3:      0.00    4:      0.00    5:      0.00    6:      0.00
    7:      0.00    8:      0.00    9:      0.00   10:      0.00   11:      0.00   12:      0.00
   13:      0.00   14:      0.00   15:      0.00   16:      0.00   17:      0.00   18:      0.00
   19:      0.00   20:      0.00   21:      0.00   22:      0.00   23:      0.00   24:      0.00
   25:      0.00   26:      0.00   27:      0.00   28:      0.00   29:      0.00   30:      0.00
   31:      0.00   32:      0.00   33:      0.00   34:      0.00   35:      0.00   36:      0.00
 output can be read by thermo (or use thermo option).
 writing <g98.out> molden fake output.
 recommended (thermochemical) frequency scaling factor: 1.0
           -------------------------------------------------
          |             Thermodynamic Functions             |
           -------------------------------------------------

cs  symmetry found (for desy threshold:  0.10E+00) used in thermo

          ...................................................
          :                      SETUP                      :
          :.................................................:
          :  # frequencies                          30      :
          :  # imaginary freq.                       0      :
          :  linear?                             false      :
          :  only rotor calc.                    false      :
          :  symmetry                               cs      :
          :  rotational number                       1      :
          :  scaling factor                  1.0000000      :
          :  rotor cutoff                    0.0000000 cm⁻¹ :
          :  imag. cutoff                 -100.0000000 cm⁻¹ :
          :.................................................:

    mode    ω/cm⁻¹     T·S(HO)/kcal·mol⁻¹    T·S(FR)/kcal·mol⁻¹   T·S(vib)
   ------------------------------------------------------------------------
       1     76.90    -1.18323 (100.00%)    -0.92896 (  0.00%)    -1.18323
       2    141.97    -0.82799 (100.00%)    -0.74734 (  0.00%)    -0.82799
       3    145.82    -0.81278 (100.00%)    -0.73943 (  0.00%)    -0.81278
       4    239.15    -0.53941 (100.00%)    -0.59289 (  0.00%)    -0.53941
       5    253.66    -0.50834 (100.00%)    -0.57543 (  0.00%)    -0.50834
   ------------------------------------------------------------------------

   temp. (K)  partition function   enthalpy   heat capacity  entropy
                                   cal/mol     cal/K/mol   cal/K/mol   J/K/mol
 298.15  VIB   61.4                 3237.280     22.627     19.039
         ROT  0.109E+07              888.727      2.981     30.605
         INT  0.668E+08             4126.008     25.608     49.644
         TR   0.112E+27             1481.212      4.968     42.302
         TOT                        5607.2199    30.5760    91.9461   384.7026

       T/K    H(0)-H(T)+PV         H(T)/Eh          T*S/Eh         G(T)/Eh
   ------------------------------------------------------------------------
    298.15    0.893567E-02    0.820850E-01    0.436866E-01    0.383985E-01
   ------------------------------------------------------------------------

         :::::::::::::::::::::::::::::::::::::::::::::::::::::
         ::                  THERMODYNAMIC                  ::
         :::::::::::::::::::::::::::::::::::::::::::::::::::::
         :: total free energy         -27.878478796724 Eh   ::
         ::.................................................::
         :: total energy              -27.916877272110 Eh   ::
         :: zero point energy           0.073149372414 Eh   ::
         :: G(RRHO) w/o ZPVE           -0.034750897028 Eh   ::
         :: G(RRHO) contrib.            0.038398475387 Eh   ::
         :::::::::::::::::::::::::::::::::::::::::::::::::::::

optimized geometry written to: xtbopt.coord


           -------------------------------------------------
          | TOTAL ENERGY              -27.916877272110 Eh   |
          | TOTAL ENTHALPY            -27.834792226002 Eh   |
          | TOTAL FREE ENERGY         -27.878478796724 Eh   |
          | GRADIENT NORM               0.000116454534 Eh/α |
          | HOMO-LUMO GAP               3.193137389881 eV   |
           -------------------------------------------------

------------------------------------------------------------------------
 * finished run on 2025/04/09 at 05:27:49.465     
------------------------------------------------------------------------
 total:
 * wall-time:     0 d,  0 h,  0 min,  0.438 sec
 *  cpu-time:     0 d,  0 h,  0 min,  0.435 sec
 * ratio c/w:     0.993 speedup
 SCF:
 * wall-time:     0 d,  0 h,  0 min,  0.007 sec
 *  cpu-time:     0 d,  0 h,  0 min,  0.007 sec
 * ratio c/w:     0.987 speedup
 ANC optimizer:
 * wall-time:     0 d,  0 h,  0 min,  0.047 sec
 *  cpu-time:     0 d,  0 h,  0 min,  0.047 sec
 * ratio c/w:     0.995 speedup
 analytical hessian:
 * wall-time:     0 d,  0 h,  0 min,  0.379 sec
 *  cpu-time:     0 d,  0 h,  0 min,  0.377 sec
 * ratio c/w:     0.993 speedup

