 Entering Gaussian System
 *********************************************
 Gaussian 98:
 frequency output generated by the xtb code
 *********************************************
                         Standard orientation:
 --------------------------------------------------------------------
  Center     Atomic     Atomic              Coordinates (Angstroms)
  Number     Number      Type              X           Y           Z
 --------------------------------------------------------------------
    1          6             0       -0.760723   -0.000004    0.000006
    2          6             0        0.760708    0.000009   -0.000001
    3          1             0       -1.143606    0.637998    0.793492
    4          1             0       -1.143610    0.368167   -0.949263
    5          1             0       -1.143594   -1.006187    0.155794
    6          1             0        1.143595   -0.368245    0.949236
    7          1             0        1.143579    1.006206   -0.155701
    8          1             0        1.143590   -0.637924   -0.793541
 --------------------------------------------------------------------
     1 basis functions        1 primitive gaussians
     1 alpha electrons        1 beta electrons

 Harmonic frequencies (cm**-1), IR intensities (km*mol⁻¹),
 Raman scattering activities (A**4/amu), Raman depolarization ratios,
 reduced masses (AMU), force constants (mDyne/A) and normal coordinates:
                      1                      2                      3
                        a                      a                      a 
 Frequencies --   301.7089               861.1036               861.1129
 Red. masses --     1.0079                 1.0534                 1.0534
 Frc consts  --     0.0000                 0.0000                 0.0000
 IR Inten    --     0.0012                 9.0812                 9.1722
 Raman Activ --     0.0000                 0.0000                 0.0000
 Depolar     --     0.0000                 0.0000                 0.0000
 Atom AN      X      Y      Z        X      Y      Z        X      Y      Z
   1   6     0.00  -0.00  -0.00     0.00  -0.03  -0.15    -0.00   0.15  -0.03
   2   6     0.00  -0.00  -0.00     0.00  -0.03  -0.15    -0.00   0.15  -0.03
   3   1    -0.00   0.32  -0.26     0.45   0.02   0.16    -0.22  -0.18   0.06
   4   1    -0.00  -0.38  -0.15    -0.42   0.06   0.16    -0.28  -0.18   0.02
   5   1    -0.00   0.06   0.40    -0.04   0.04   0.19     0.50  -0.15   0.04
   6   1     0.00  -0.38  -0.15    -0.42   0.06   0.16    -0.28  -0.18   0.02
   7   1    -0.00   0.06   0.40    -0.04   0.04   0.19     0.50  -0.15   0.04
   8   1    -0.00   0.32  -0.26     0.45   0.02   0.16    -0.22  -0.18   0.06
                      4                      5                      6
                        a                      a                      a 
 Frequencies --  1068.9064              1209.3215              1209.3270
 Red. masses --     3.5571                 1.4464                 1.4464
 Frc consts  --     0.0000                 0.0000                 0.0000
 IR Inten    --     0.0000                 0.0000                 0.0000
 Raman Activ --     0.0000                 0.0000                 0.0000
 Depolar     --     0.0000                 0.0000                 0.0000
 Atom AN      X      Y      Z        X      Y      Z        X      Y      Z
   1   6    -0.63  -0.00   0.00     0.00  -0.40   0.04     0.00  -0.04  -0.40
   2   6     0.63   0.00  -0.00    -0.00   0.40  -0.04    -0.00   0.04   0.40
   3   1    -0.19  -0.00  -0.01     0.24   0.13  -0.06     0.37  -0.03   0.10
   4   1    -0.19  -0.00   0.01     0.20   0.15   0.02    -0.39   0.05   0.08
   5   1    -0.19   0.01  -0.00    -0.44   0.07  -0.00     0.02   0.02   0.16
   6   1     0.19   0.00  -0.01    -0.20  -0.15  -0.02     0.39  -0.05  -0.08
   7   1     0.19  -0.01   0.00     0.44  -0.07   0.00    -0.02  -0.02  -0.16
   8   1     0.19   0.00   0.01    -0.24  -0.13   0.06    -0.37   0.03  -0.10
                      7                      8                      9
                        a                      a                      a 
 Frequencies --  1399.9791              1434.1611              1507.6600
 Red. masses --     1.2042                 1.2306                 1.0362
 Frc consts  --     0.0000                 0.0000                 0.0000
 IR Inten    --     0.3447                 0.0000                 0.0000
 Raman Activ --     0.0000                 0.0000                 0.0000
 Depolar     --     0.0000                 0.0000                 0.0000
 Atom AN      X      Y      Z        X      Y      Z        X      Y      Z
   1   6     0.30  -0.00  -0.00     0.31   0.00  -0.00     0.00   0.00   0.12
   2   6     0.30  -0.00  -0.00    -0.31  -0.00   0.00    -0.00  -0.00  -0.12
   3   1    -0.34  -0.09  -0.11    -0.34  -0.09  -0.11     0.20   0.29  -0.14
   4   1    -0.34  -0.05   0.13    -0.34  -0.05   0.13    -0.23  -0.21   0.01
   5   1    -0.34   0.14  -0.02    -0.34   0.14  -0.02     0.03  -0.09  -0.49
   6   1    -0.34  -0.05   0.13     0.34   0.05  -0.13     0.23   0.21  -0.01
   7   1    -0.34   0.14  -0.02     0.34  -0.14   0.02    -0.03   0.09   0.49
   8   1    -0.34  -0.09  -0.11     0.34   0.09   0.11    -0.20  -0.29   0.14
                     10                     11                     12
                        a                      a                      a 
 Frequencies --  1507.6888              1509.3116              1509.3459
 Red. masses --     1.0362                 1.0718                 1.0718
 Frc consts  --     0.0000                 0.0000                 0.0000
 IR Inten    --     0.0000                 4.0189                 4.1418
 Raman Activ --     0.0000                 0.0000                 0.0000
 Depolar     --     0.0000                 0.0000                 0.0000
 Atom AN      X      Y      Z        X      Y      Z        X      Y      Z
   1   6    -0.00  -0.12   0.00    -0.00  -0.02  -0.18     0.00   0.18  -0.02
   2   6     0.00   0.12  -0.00    -0.00  -0.02  -0.18     0.00   0.18  -0.02
   3   1    -0.15   0.27  -0.29    -0.17  -0.27   0.12     0.11  -0.30   0.31
   4   1    -0.09   0.42   0.20     0.18   0.24   0.00     0.09  -0.41  -0.20
   5   1     0.25  -0.08   0.08    -0.01   0.08   0.50    -0.21   0.09  -0.05
   6   1     0.09  -0.42  -0.20     0.18   0.24   0.00     0.09  -0.41  -0.20
   7   1    -0.25   0.08  -0.08    -0.01   0.08   0.50    -0.21   0.09  -0.05
   8   1     0.15  -0.27   0.29    -0.17  -0.27   0.12     0.11  -0.30   0.31
                     13                     14                     15
                        a                      a                      a 
 Frequencies --  3023.3229              3023.3675              3034.8302
 Red. masses --     1.0898                 1.0898                 1.0269
 Frc consts  --     0.0000                 0.0000                 0.0000
 IR Inten    --     0.0000                 0.0000                 0.0000
 Raman Activ --     0.0000                 0.0000                 0.0000
 Depolar     --     0.0000                 0.0000                 0.0000
 Atom AN      X      Y      Z        X      Y      Z        X      Y      Z
   1   6    -0.00   0.08   0.19     0.00  -0.19   0.08     0.10   0.00   0.00
   2   6     0.00  -0.08  -0.19    -0.00   0.19  -0.08    -0.10  -0.00  -0.00
   3   1     0.19  -0.32  -0.38    -0.05   0.06   0.13    -0.13   0.24   0.30
   4   1    -0.14   0.15  -0.33    -0.14   0.11  -0.35    -0.13   0.14  -0.36
   5   1    -0.05  -0.12   0.05     0.19   0.49  -0.07    -0.13  -0.38   0.06
   6   1     0.14  -0.15   0.33     0.14  -0.11   0.35     0.13  -0.14   0.36
   7   1     0.05   0.12  -0.05    -0.19  -0.49   0.07     0.13   0.38  -0.06
   8   1    -0.19   0.32   0.38     0.05  -0.06  -0.13     0.13  -0.24  -0.30
                     16                     17                     18
                        a                      a                      a 
 Frequencies --  3040.4190              3040.4483              3041.5401
 Red. masses --     1.0973                 1.0974                 1.0299
 Frc consts  --     0.0000                 0.0000                 0.0000
 IR Inten    --    91.4342                91.4230                50.4617
 Raman Activ --     0.0000                 0.0000                 0.0000
 Depolar     --     0.0000                 0.0000                 0.0000
 Atom AN      X      Y      Z        X      Y      Z        X      Y      Z
   1   6     0.00  -0.09  -0.19    -0.00   0.19  -0.09     0.11   0.01   0.00
   2   6     0.00  -0.09  -0.19    -0.00   0.19  -0.09     0.11   0.01   0.00
   3   1    -0.19   0.33   0.40     0.04  -0.05  -0.11    -0.12   0.23   0.29
   4   1     0.13  -0.14   0.31     0.14  -0.12   0.37    -0.13   0.14  -0.36
   5   1     0.05   0.14  -0.05    -0.18  -0.48   0.07    -0.13  -0.39   0.06
   6   1     0.13  -0.14   0.31     0.14  -0.12   0.37    -0.13   0.14  -0.36
   7   1     0.05   0.14  -0.05    -0.18  -0.48   0.07    -0.13  -0.39   0.06
   8   1    -0.19   0.33   0.40     0.04  -0.05  -0.11    -0.12   0.23   0.29
