      -----------------------------------------------------------      
     |                   =====================                   |     
     |                           x T B                           |     
     |                   =====================                   |     
     |                         S. Grimme                         |     
     |          Mulliken Center for Theoretical Chemistry        |     
     |                    University of Bonn                     |     
      -----------------------------------------------------------      

   * xtb version 6.7.1 (41059b4) compiled by 'michael@archlinux' on 2025-03-24

   xtb is free software: you can redistribute it and/or modify it under
   the terms of the GNU Lesser General Public License as published by
   the Free Software Foundation, either version 3 of the License, or
   (at your option) any later version.
   
   xtb is distributed in the hope that it will be useful,
   but WITHOUT ANY WARRANTY; without even the implied warranty of
   MERCHANTABILITY or FITNESS FOR A PARTICULAR PURPOSE.  See the
   GNU Lesser General Public License for more details.
   
   Cite this work as:
   * C. Bannwarth, E. Caldeweyher, S. Ehlert, A. Hansen, P. Pracht,
     J. Seibert, S. Spicher, S. Grimme, WIREs Comput. Mol. Sci., 2020, 11,
     e01493. DOI: 10.1002/wcms.1493
   
   for GFN2-xTB:
   * C. Bannwarth, S. Ehlert and S. Grimme., J. Chem. Theory Comput., 2019,
     15, 1652-1671. DOI: 10.1021/acs.jctc.8b01176
   for GFN1-xTB:
   * S. Grimme, C. Bannwarth, P. Shushkov, J. Chem. Theory Comput., 2017,
     13, 1989-2009. DOI: 10.1021/acs.jctc.7b00118
   for GFN0-xTB:
   * P. Pracht, E. Caldeweyher, S. Ehlert, S. Grimme, ChemRxiv, 2019, preprint.
     DOI: 10.26434/chemrxiv.8326202.v1
   for GFN-FF:
   * S. Spicher and S. Grimme, Angew. Chem. Int. Ed., 2020, 59, 15665-15673.
     DOI: 10.1002/anie.202004239
   
   for ALPB and GBSA implicit solvation:
   * S. Ehlert, M. Stahn, S. Spicher, S. Grimme, J. Chem. Theory Comput.,
     2021, 17, 4250-4261. DOI: 10.1021/acs.jctc.1c00471
   
   for ddCOSMO and CPCM-X implicit solvation:
   * M. Stahn, S. Ehlert, S. Grimme, J. Phys. Chem. A,
     2023, XX, XXXX-XXXX. DOI: 10.1021/acs.jpca.3c04382
   
   for DFT-D4:
   * E. Caldeweyher, C. Bannwarth and S. Grimme, J. Chem. Phys., 2017,
     147, 034112. DOI: 10.1063/1.4993215
   * E. Caldeweyher, S. Ehlert, A. Hansen, H. Neugebauer, S. Spicher,
     C. Bannwarth and S. Grimme, J. Chem. Phys., 2019, 150, 154122.
     DOI: 10.1063/1.5090222
   * E. Caldeweyher, J.-M. Mewes, S. Ehlert and S. Grimme, Phys. Chem. Chem. Phys.
     2020, 22, 8499-8512. DOI: 10.1039/D0CP00502A
   
   for sTDA-xTB:
   * S. Grimme and C. Bannwarth, J. Chem. Phys., 2016, 145, 054103.
     DOI: 10.1063/1.4959605
   
   in the mass-spec context:
   * V. Asgeirsson, C. Bauer and S. Grimme, Chem. Sci., 2017, 8, 4879.
     DOI: 10.1039/c7sc00601b
   * J. Koopman and S. Grimme, ACS Omega 2019, 4, 12, 15120-15133.
     DOI: 10.1021/acsomega.9b02011
   
   for metadynamics refer to:
   * S. Grimme, J. Chem. Theory Comput., 2019, 155, 2847-2862
     DOI: 10.1021/acs.jctc.9b00143
   
   for SPH calculations refer to:
   * S. Spicher and S. Grimme, J. Chem. Theory Comput., 2021, 17, 1701-1714
     DOI: 10.1021/acs.jctc.0c01306
   
   for ONIOM refer to:
   * C. Plett, A. Katbashev, S. Ehlert, S. Grimme, M. Bursch,
     Phys. Chem. Chem. Phys., 2023, 25, 17860-17868. DOI: 10.1039/D3CP02178E
   
   for DIPRO refer to:
   * J. Kohn, N. Gildemeister, S. Grimme, D. Fazzi, A. Hansen,
     J. Chem. Phys., 2023, just accepted.
   
   for PTB refer to:
   * S. Grimme, M. Mueller, A. Hansen, J. Chem. Phys., 2023, 158, 124111.
     DOI: 10.1063/5.0137838
   
   with help from (in alphabetical order)
   P. Atkinson, C. Bannwarth, F. Bohle, G. Brandenburg, E. Caldeweyher
   M. Checinski, S. Dohm, S. Ehlert, S. Ehrlich, I. Gerasimov, C. Hölzer
   A. Katbashev, J. Kohn, J. Koopman, C. Lavigne, S. Lehtola, F. März, M. Müller,
   F. Musil, H. Neugebauer, J. Pisarek, C. Plett, P. Pracht, F. Pultar,
   J. Seibert, P. Shushkov, S. Spicher, M. Stahn, M. Steiner, T. Strunk,
   J. Stückrath, T. Rose, and J. Unsleber
   
 * started run on 2025/04/09 at 02:59:55.665     
   ID    Z sym.   atoms
    1    6 C      1, 2
    2    1 H      3-8

           -------------------------------------------------
          |                Calculation Setup                |
           -------------------------------------------------

          program call               : /usr/bin/xtb xtb_rrho.coord --gfn2 --ohess vtight --chrg 0 --enso --norestart -I rrho-xcontrol-inp --parallel 1
          coordinate file            : xtb_rrho.coord
          omp threads                :                     1


           -------------------------------------------------
          |                 G F N 2 - x T B                 |
           -------------------------------------------------

        Reference                      10.1021/acs.jctc.8b01176
      * Hamiltonian:
        H0-scaling (s, p, d)           1.850000    2.230000    2.230000
        zeta-weighting                 0.500000
      * Dispersion:
        s8                             2.700000
        a1                             0.520000
        a2                             5.000000
        s9                             5.000000
      * Repulsion:
        kExp                           1.500000    1.000000
        rExp                           1.000000
      * Coulomb:
        alpha                          2.000000
        third order                    shell-resolved
        anisotropic                    true
        a3                             3.000000
        a5                             4.000000
        cn-shift                       1.200000
        cn-exp                         4.000000
        max-rad                        5.000000


          ...................................................
          :                      SETUP                      :
          :.................................................:
          :  # basis functions                  14          :
          :  # atomic orbitals                  14          :
          :  # shells                           10          :
          :  # electrons                        14          :
          :  max. iterations                   250          :
          :  Hamiltonian                  GFN2-xTB          :
          :  restarted?                      false          :
          :  GBSA solvation                  false          :
          :  PC potential                    false          :
          :  electronic temp.          300.0000000     K    :
          :  accuracy                    1.0000000          :
          :  -> integral cutoff          0.2500000E+02      :
          :  -> integral neglect         0.1000000E-07      :
          :  -> SCF convergence          0.1000000E-05 Eh   :
          :  -> wf. convergence          0.1000000E-03 e    :
          :  Broyden damping             0.4000000          :
          :  net charge                          0          :
          :  unpaired electrons                  0          :
          ...................................................

 iter      E             dE          RMSdq      gap      omega  full diag
   1     -7.4233740 -0.742337E+01  0.265E+00   15.60       0.0  T
   2     -7.4477236 -0.243496E-01  0.131E+00   15.17       1.0  T
   3     -7.4479286 -0.204951E-03  0.708E-01   15.15       1.0  T
   4     -7.4479990 -0.704853E-04  0.907E-02   15.14       1.0  T
   5     -7.4479991 -0.191511E-07  0.300E-03   15.14      11.8  T
   6     -7.4479991 -0.381659E-07  0.115E-03   15.14      30.8  T
   7     -7.4479991 -0.611555E-10  0.116E-04   15.14     304.4  T
   8     -7.4479991 -0.640616E-10  0.328E-06   15.14   10775.9  T

   *** convergence criteria satisfied after 8 iterations ***

         #    Occupation            Energy/Eh            Energy/eV
      -------------------------------------------------------------
         1        2.0000           -0.6031741             -16.4132
         2        2.0000           -0.5629263             -15.3180
         3        2.0000           -0.4938323             -13.4379
         4        2.0000           -0.4938289             -13.4378
         5        2.0000           -0.4622792             -12.5793
         6        2.0000           -0.4351672             -11.8415
         7        2.0000           -0.4351636             -11.8414 (HOMO)
         8                          0.1211981               3.2980 (LUMO)
         9                          0.1548875               4.2147
        10                          0.1549141               4.2154
        11                          0.1701012               4.6287
        12                          0.1994930               5.4285
       ...                                ...                  ...
        14                          0.2686934               7.3115
      -------------------------------------------------------------
                  HL-Gap            0.5563617 Eh           15.1394 eV
             Fermi-level           -0.1569827 Eh           -4.2717 eV

 SCC (total)                   0 d,  0 h,  0 min,  0.002 sec
 SCC setup                      ...        0 min,  0.000 sec (  3.897%)
 Dispersion                     ...        0 min,  0.000 sec (  1.397%)
 classical contributions        ...        0 min,  0.000 sec (  0.627%)
 integral evaluation            ...        0 min,  0.000 sec (  9.595%)
 iterations                     ...        0 min,  0.001 sec ( 56.118%)
 molecular gradient             ...        0 min,  0.000 sec ( 23.727%)
 printout                       ...        0 min,  0.000 sec (  4.156%)

         :::::::::::::::::::::::::::::::::::::::::::::::::::::
         ::                     SUMMARY                     ::
         :::::::::::::::::::::::::::::::::::::::::::::::::::::
         :: total energy              -7.336054607793 Eh    ::
         :: gradient norm              0.011105435802 Eh/a0 ::
         :: HOMO-LUMO gap             15.139371830142 eV    ::
         ::.................................................::
         :: SCC energy                -7.447998924560 Eh    ::
         :: -> isotropic ES            0.001939695335 Eh    ::
         :: -> anisotropic ES          0.003321724182 Eh    ::
         :: -> anisotropic XC          0.005516779860 Eh    ::
         :: -> dispersion             -0.002034069861 Eh    ::
         :: repulsion energy           0.111944316767 Eh    ::
         :: add. restraining           0.000000000000 Eh    ::
         :: total charge               0.000000000000 e     ::
         :::::::::::::::::::::::::::::::::::::::::::::::::::::

      ----------------------------------------------------------- 
     |                   =====================                   |
     |                        A N C O P T                        |
     |                   =====================                   |
     |               Approximate Normal Coordinate               |
     |                Rational Function Optimizer                |
      ----------------------------------------------------------- 

          ...................................................
          :                      SETUP                      :
          :.................................................:
          :   optimization level         verytight          :
          :   max. optcycles                   200          :
          :   ANC micro-cycles                  20          :
          :   degrees of freedom                18          :
          :.................................................:
          :   RF solver                   davidson          :
          :   write xtbopt.log                true          :
          :   linear?                        false          :
          :   energy convergence         0.1000000E-06 Eh   :
          :   grad. convergence          0.2000000E-03 Eh/α :
          :   maximum RF displ.          1.0000000          :
          :   Hlow (freq-cutoff)         0.1000000E-01      :
          :   Hmax (freq-cutoff)         5.0000000          :
          :   S6 in model hess.         20.0000000          :
          ...................................................

generating ANC from exact Hessian ...
Using Lindh-Hessian (1995)
 Shifting diagonal of input Hessian by    0.0000000000000000     
 Lowest  eigenvalues of input Hessian
    0.000000    0.000000    0.000000    0.000000    0.000000    0.000000
    0.015247    0.038087    0.038090    0.056946    0.075943    0.075946
    0.119110    0.119117    0.134889    0.134892    0.175262    0.332834
 Highest eigenvalues
    0.661620    1.035592    1.035646    1.138899    1.138960    1.229291


........................................................................
.............................. CYCLE    1 ..............................
........................................................................

 iter      E             dE          RMSdq      gap      omega  full diag
   1     -7.4479991 -0.744800E+01  0.550E-08   15.14       0.0  T
   2     -7.4479991 -0.710543E-14  0.290E-08   15.14  100000.0  T
   3     -7.4479991  0.799361E-14  0.163E-08   15.14  100000.0  T
     SCC iter.                  ...        0 min,  0.001 sec
     gradient                   ...        0 min,  0.000 sec
 * total energy  :    -7.3360546 Eh     change       -0.1509903E-13 Eh
   gradient norm :     0.0111055 Eh/α   predicted     0.0000000E+00 (-100.00%)
   displ. norm   :     0.0846195 α      lambda       -0.5943601E-03
   maximum displ.:     0.0811608 α      in ANC's #4, #12, #18, ...

........................................................................
.............................. CYCLE    2 ..............................
........................................................................

 iter      E             dE          RMSdq      gap      omega  full diag
   1     -7.4528318 -0.745283E+01  0.164E-01   15.58       0.0  T
   2     -7.4528340 -0.216727E-05  0.941E-02   15.59       1.0  T
   3     -7.4528342 -0.159320E-06  0.762E-03   15.59       4.6  T
   4     -7.4528342 -0.175178E-08  0.166E-03   15.59      21.3  T
   5     -7.4528342 -0.237410E-10  0.331E-05   15.59    1068.5  T
   6     -7.4528342 -0.116351E-12  0.146E-05   15.59    2414.4  T
     SCC iter.                  ...        0 min,  0.000 sec
     gradient                   ...        0 min,  0.000 sec
 * total energy  :    -7.3363549 Eh     change       -0.3003285E-03 Eh
   gradient norm :     0.0043605 Eh/α   predicted    -0.2993092E-03 (  -0.34%)
   displ. norm   :     0.0096309 α      lambda       -0.2657491E-04
   maximum displ.:     0.0071579 α      in ANC's #4, #12, #18, ...

........................................................................
.............................. CYCLE    3 ..............................
........................................................................

 iter      E             dE          RMSdq      gap      omega  full diag
   1     -7.4539014 -0.745390E+01  0.204E-02   15.54       0.0  T
   2     -7.4539018 -0.358651E-06  0.119E-02   15.54       3.0  T
   3     -7.4539018 -0.605107E-08  0.340E-03   15.54      10.4  T
   4     -7.4539018 -0.573078E-09  0.463E-04   15.54      76.4  T
   5     -7.4539018 -0.160227E-11  0.114E-05   15.54    3114.5  T
     SCC iter.                  ...        0 min,  0.000 sec
     gradient                   ...        0 min,  0.000 sec
 * total energy  :    -7.3363696 Eh     change       -0.1470100E-04 Eh
   gradient norm :     0.0011720 Eh/α   predicted    -0.1328909E-04 (  -9.60%)
   displ. norm   :     0.0019833 α      lambda       -0.1521850E-05
   maximum displ.:     0.0018442 α      in ANC's #18, #12, #1, ...

........................................................................
.............................. CYCLE    4 ..............................
........................................................................

 iter      E             dE          RMSdq      gap      omega  full diag
   1     -7.4539492 -0.745395E+01  0.441E-03   15.50       0.0  T
   2     -7.4539492 -0.201197E-07  0.253E-03   15.50      14.0  T
   3     -7.4539492 -0.517986E-10  0.909E-04   15.50      38.9  T
   4     -7.4539492 -0.928502E-11  0.395E-05   15.50     895.9  T
     SCC iter.                  ...        0 min,  0.000 sec
     gradient                   ...        0 min,  0.000 sec
 * total energy  :    -7.3363706 Eh     change       -0.9982554E-06 Eh
   gradient norm :     0.0002095 Eh/α   predicted    -0.7619021E-06 ( -23.68%)
   displ. norm   :     0.0007700 α      lambda       -0.6742822E-07
   maximum displ.:     0.0006152 α      in ANC's #4, #12, #18, ...

........................................................................
.............................. CYCLE    5 ..............................
........................................................................

 iter      E             dE          RMSdq      gap      omega  full diag
   1     -7.4538746 -0.745387E+01  0.161E-03   15.51       0.0  T
   2     -7.4538746 -0.175549E-08  0.953E-04   15.51      37.1  T
   3     -7.4538746 -0.347926E-10  0.224E-04   15.51     157.6  T
     SCC iter.                  ...        0 min,  0.000 sec
     gradient                   ...        0 min,  0.000 sec
 * total energy  :    -7.3363707 Eh     change       -0.3798820E-07 Eh
   gradient norm :     0.0000419 Eh/α   predicted    -0.3378760E-07 ( -11.06%)
   displ. norm   :     0.0002179 α      lambda       -0.3257435E-08
   maximum displ.:     0.0001652 α      in ANC's #4, #12, #1, ...

   *** GEOMETRY OPTIMIZATION CONVERGED AFTER 5 ITERATIONS ***

------------------------------------------------------------------------
 total energy gain   :        -0.0003161 Eh       -0.1983 kcal/mol
 total RMSD          :         0.0283964 a0        0.0150 Å
 total power (kW/mol):        -0.1659661 (step) -178.3404 (real)
------------------------------------------------------------------------

 ANCopt (total)                0 d,  0 h,  0 min,  0.005 sec
 optimizer setup                ...        0 min,  0.000 sec (  1.419%)
 model hessian                  ...        0 min,  0.000 sec (  4.606%)
 ANC generation                 ...        0 min,  0.000 sec (  1.161%)
 coordinate transformation      ...        0 min,  0.000 sec (  0.332%)
 single point calculation       ...        0 min,  0.004 sec ( 83.624%)
 optimization log               ...        0 min,  0.000 sec (  3.324%)
 hessian update                 ...        0 min,  0.000 sec (  0.242%)
 rational function              ...        0 min,  0.000 sec (  2.913%)

================
 final structure:
================
$coord
       -1.43755797574887       -0.00001520149965        0.00000642941223      C
        1.43752909206997        0.00002452285374        0.00000387138803      C
       -2.16111299207830        1.20562650091947        1.49947628470614      H
       -2.16110768901325        0.69572739034253       -1.79385290590098      H
       -2.16107038073833       -1.90142975953282        0.29439707087375      H
        2.16107880627322       -0.69587354918427        1.79380289660890      H
        2.16104149465585        1.90146458846700       -0.29422196275810      H
        2.16108411035676       -1.20548720625866       -1.49957047908842      H
$end

 Bond Distances (Angstroems)
 ---------------------------
C1-C2=1.5214         C1-H3=1.0878         C1-H4=1.0878         C1-H5=1.0878         C2-C1=1.5214         C2-H6=1.0878         
C2-H7=1.0878         C2-H8=1.0878         H3-C1=1.0878         H4-C1=1.0878         H5-C1=1.0878         H6-C2=1.0878         
H7-C2=1.0878         H8-C2=1.0878         
 C  H  Rav=1.0878 sigma=0.0000  Rmin=1.0878  Rmax=1.0878     6
 C  C  Rav=1.5214 sigma=0.0000  Rmin=1.5214  Rmax=1.5214     1

 selected bond angles (degree)
 --------------------
H3-C1-C2=110.61                H4-C1-C2=110.61                H4-C1-H3=108.31                H5-C1-C2=110.61                
H5-C1-H3=108.31                H5-C1-H4=108.31                H6-C2-C1=110.61                H7-C2-C1=110.61                
H7-C2-H6=108.31                H8-C2-C1=110.61                H8-C2-H6=108.31                H8-C2-H7=108.31                

 selected dihedral angles (degree)
 ---------------------------------
H6-C2-C1-H3= 60.00            H6-C2-C1-H4=180.00            H6-C2-C1-H5=300.00            H7-C2-C1-H3=300.00            
H7-C2-C1-H4= 60.00            H7-C2-C1-H5=180.00            H8-C2-C1-H3=180.00            H8-C2-C1-H4=300.00            
H8-C2-C1-H5= 60.00            
           -------------------------------------------------
          |                Final Singlepoint                |
           -------------------------------------------------

          ...................................................
          :                      SETUP                      :
          :.................................................:
          :  # basis functions                  14          :
          :  # atomic orbitals                  14          :
          :  # shells                           10          :
          :  # electrons                        14          :
          :  max. iterations                   250          :
          :  Hamiltonian                  GFN2-xTB          :
          :  restarted?                      false          :
          :  GBSA solvation                  false          :
          :  PC potential                    false          :
          :  electronic temp.          300.0000000     K    :
          :  accuracy                    1.0000000          :
          :  -> integral cutoff          0.2500000E+02      :
          :  -> integral neglect         0.1000000E-07      :
          :  -> SCF convergence          0.1000000E-05 Eh   :
          :  -> wf. convergence          0.1000000E-03 e    :
          :  Broyden damping             0.4000000          :
          :  net charge                          0          :
          :  unpaired electrons                  0          :
          ...................................................

 iter      E             dE          RMSdq      gap      omega  full diag
   1     -7.4538746 -0.745387E+01  0.334E-05   15.51       0.0  T
   2     -7.4538746 -0.177636E-14  0.202E-05   15.51    1753.9  T
   3     -7.4538746 -0.532907E-14  0.584E-07   15.51   60569.2  T

   *** convergence criteria satisfied after 3 iterations ***

         #    Occupation            Energy/Eh            Energy/eV
      -------------------------------------------------------------
         1        2.0000           -0.6047738             -16.4567
         2        2.0000           -0.5631138             -15.3231
         3        2.0000           -0.4954065             -13.4807
         4        2.0000           -0.4954065             -13.4807
         5        2.0000           -0.4610599             -12.5461
         6        2.0000           -0.4353390             -11.8462
         7        2.0000           -0.4353390             -11.8462 (HOMO)
         8                          0.1345047               3.6601 (LUMO)
         9                          0.1675225               4.5585
        10                          0.1675226               4.5585
        11                          0.1747714               4.7558
        12                          0.2019025               5.4940
       ...                                ...                  ...
        14                          0.2817204               7.6660
      -------------------------------------------------------------
                  HL-Gap            0.5698437 Eh           15.5062 eV
             Fermi-level           -0.1504171 Eh           -4.0931 eV

 SCC (total)                   0 d,  0 h,  0 min,  0.001 sec
 SCC setup                      ...        0 min,  0.000 sec (  3.364%)
 Dispersion                     ...        0 min,  0.000 sec (  1.219%)
 classical contributions        ...        0 min,  0.000 sec (  0.594%)
 integral evaluation            ...        0 min,  0.000 sec ( 19.586%)
 iterations                     ...        0 min,  0.000 sec ( 23.640%)
 molecular gradient             ...        0 min,  0.000 sec ( 45.886%)
 printout                       ...        0 min,  0.000 sec (  4.829%)

         :::::::::::::::::::::::::::::::::::::::::::::::::::::
         ::                     SUMMARY                     ::
         :::::::::::::::::::::::::::::::::::::::::::::::::::::
         :: total energy              -7.336370673518 Eh    ::
         :: gradient norm              0.000042253790 Eh/a0 ::
         :: HOMO-LUMO gap             15.506237330599 eV    ::
         ::.................................................::
         :: SCC energy                -7.453874439097 Eh    ::
         :: -> isotropic ES            0.002037758728 Eh    ::
         :: -> anisotropic ES          0.003092253340 Eh    ::
         :: -> anisotropic XC          0.005385645011 Eh    ::
         :: -> dispersion             -0.002033942816 Eh    ::
         :: repulsion energy           0.117503765579 Eh    ::
         :: add. restraining           0.000000000000 Eh    ::
         :: total charge               0.000000000000 e     ::
         :::::::::::::::::::::::::::::::::::::::::::::::::::::

           ------------------------------------------------- 
          |                Numerical Hessian                |
           ------------------------------------------------- 
step length          :   0.00500
SCC accuracy         :   0.30000
Hessian scale factor :   1.00000
frozen atoms in %    :   0.00000    0
RMS gradient         :   0.00004
estimated CPU  time      0.00 min
estimated wall time      0.00 min

writing file <hessian>, containing the non-mass-weighted Hessian matrix in atomic units (Eₕ/Bohr²).

 projected vibrational frequencies (cm⁻¹)
eigval :       -0.00    -0.00    -0.00    -0.00     0.00     0.00
eigval :      301.71   861.10   861.11  1068.91  1209.32  1209.33
eigval :     1399.98  1434.16  1507.66  1507.69  1509.31  1509.35
eigval :     3023.32  3023.37  3034.83  3040.42  3040.45  3041.54
           -------------------------------------------------
          |                Property Printout                |
           -------------------------------------------------

    * Orbital Energies and Occupations

         #    Occupation            Energy/Eh            Energy/eV
      -------------------------------------------------------------
         1        2.0000           -0.6047738             -16.4567
         2        2.0000           -0.5631138             -15.3231
         3        2.0000           -0.4954065             -13.4807
         4        2.0000           -0.4954065             -13.4807
         5        2.0000           -0.4610599             -12.5461
         6        2.0000           -0.4353390             -11.8462
         7        2.0000           -0.4353390             -11.8462 (HOMO)
         8                          0.1345047               3.6601 (LUMO)
         9                          0.1675225               4.5585
        10                          0.1675226               4.5585
        11                          0.1747714               4.7558
        12                          0.2019025               5.4940
        13                          0.2817204               7.6660
        14                          0.2817204               7.6660
      -------------------------------------------------------------
                  HL-Gap            0.5698437 Eh           15.5062 eV
             Fermi-level           -0.1504171 Eh           -4.0931 eV

     #   Z          covCN         q      C6AA      α(0)
     1   6          3.750    -0.097    22.414     6.752
     2   6          3.750    -0.097    22.414     6.752
     3   1          0.925     0.032     2.554     2.499
     4   1          0.925     0.032     2.554     2.499
     5   1          0.925     0.032     2.554     2.499
     6   1          0.925     0.032     2.554     2.499
     7   1          0.925     0.032     2.554     2.499
     8   1          0.925     0.032     2.554     2.499

 Mol. C6AA /au·bohr⁶  :        362.045765
 Mol. C8AA /au·bohr⁸  :       7078.463465
 Mol. α(0) /au        :         28.498893


Wiberg/Mayer (AO) data.
largest (>0.10) Wiberg bond orders for each atom

 ---------------------------------------------------------------------------
     #   Z sym  total        # sym  WBO       # sym  WBO       # sym  WBO
 ---------------------------------------------------------------------------
     1   6      3.997 --     2      1.031     4      0.989     5      0.989
                             3      0.989
     2   6      3.997 --     1      1.031     6      0.989     7      0.989
                             8      0.989
     3   1      0.999 --     1      0.989
     4   1      0.999 --     1      0.989
     5   1      0.999 --     1      0.989
     6   1      0.999 --     2      0.989
     7   1      0.999 --     2      0.989
     8   1      0.999 --     2      0.989
 ---------------------------------------------------------------------------

Topologies differ in total number of bonds
Writing topology from bond orders to xtbtopo.mol

molecular dipole:
                 x           y           z       tot (Debye)
 q only:        0.000       0.000       0.000
   full:        0.000       0.000       0.000       0.000
molecular quadrupole (traceless):
                xx          xy          yy          xz          yz          zz
 q only:        0.146       0.000      -0.073      -0.000       0.000      -0.073
  q+dip:       -0.624      -0.000       0.312       0.000       0.000       0.312
   full:       -0.269      -0.000       0.134       0.000       0.000       0.134

           -------------------------------------------------
          |                Geometry Summary                 |
           -------------------------------------------------

      molecular mass/u    :       30.0691163
   center of mass at/Å    :       -0.0000076       0.0000025       0.0000027
  moments of inertia/u·Å² :        0.6269394E+01   0.2494481E+02   0.2494481E+02
rotational constants/cm⁻¹ :        0.2688877E+01   0.6757972E+00   0.6757972E+00

 * 7 selected distances

     #   Z          #   Z                                           value/Å
     1   6          2   6                                         1.5214307 (max)
     1   6          3   1                                         1.0877796
     1   6          4   1                                         1.0877796 (min)
     1   6          5   1                                         1.0877796
     2   6          6   1                                         1.0877796
     2   6          7   1                                         1.0877796
     2   6          8   1                                         1.0877796

 * 2 distinct bonds (by element types)

   Z      Z             #   av. dist./Å        max./Å        min./Å
   1 H    6 C           6     1.0877796     1.0877796     1.0877796
   6 C    6 C           1     1.5214307     1.5214307     1.5214307

           -------------------------------------------------
          |               Frequency Printout                |
           -------------------------------------------------
 projected vibrational frequencies (cm⁻¹)
eigval :       -0.00    -0.00    -0.00    -0.00     0.00     0.00
eigval :      301.71   861.10   861.11  1068.91  1209.32  1209.33
eigval :     1399.98  1434.16  1507.66  1507.69  1509.31  1509.35
eigval :     3023.32  3023.37  3034.83  3040.42  3040.45  3041.54
 reduced masses (amu)
Molecule has the following symmetry elements: (i) (C3) 3*(C2) (S6) 3*(sigma) 
It seems to be the D3d point group
    1:      1.47    2:      2.47    3:      2.64    4:      3.05    5:      3.40    6:      1.48
    7:      1.01    8:      1.05    9:      1.05   10:      3.56   11:      1.45   12:      1.45
   13:      1.20   14:      1.23   15:      1.04   16:      1.04   17:      1.07   18:      1.07
   19:      1.09   20:      1.09   21:      1.03   22:      1.10   23:      1.10   24:      1.03
 IR intensities (km·mol⁻¹)
    1:      0.00    2:      0.00    3:      0.00    4:      0.00    5:      0.00    6:      0.00
    7:      0.00    8:      9.08    9:      9.17   10:      0.00   11:      0.00   12:      0.00
   13:      0.34   14:      0.00   15:      0.00   16:      0.00   17:      4.02   18:      4.14
   19:      0.00   20:      0.00   21:      0.00   22:     91.43   23:     91.42   24:     50.46
 Raman intensities (Ä⁴*amu⁻¹)
    1:      0.00    2:      0.00    3:      0.00    4:      0.00    5:      0.00    6:      0.00
    7:      0.00    8:      0.00    9:      0.00   10:      0.00   11:      0.00   12:      0.00
   13:      0.00   14:      0.00   15:      0.00   16:      0.00   17:      0.00   18:      0.00
   19:      0.00   20:      0.00   21:      0.00   22:      0.00   23:      0.00   24:      0.00
 output can be read by thermo (or use thermo option).
 writing <g98.out> molden fake output.
 recommended (thermochemical) frequency scaling factor: 1.0
           -------------------------------------------------
          |             Thermodynamic Functions             |
           -------------------------------------------------

d3d symmetry found (for desy threshold:  0.10E+00) used in thermo

          ...................................................
          :                      SETUP                      :
          :.................................................:
          :  # frequencies                          18      :
          :  # imaginary freq.                       0      :
          :  linear?                             false      :
          :  only rotor calc.                    false      :
          :  symmetry                              d3d      :
          :  rotational number                       6      :
          :  scaling factor                  1.0000000      :
          :  rotor cutoff                    0.0000000 cm⁻¹ :
          :  imag. cutoff                 -100.0000000 cm⁻¹ :
          :.................................................:

    mode    ω/cm⁻¹     T·S(HO)/kcal·mol⁻¹    T·S(FR)/kcal·mol⁻¹   T·S(vib)
   ------------------------------------------------------------------------
   ------------------------------------------------------------------------

   temp. (K)  partition function   enthalpy   heat capacity  entropy
                                   cal/mol     cal/K/mol   cal/K/mol   J/K/mol
 298.15  VIB   1.37                  399.328      3.978      1.963
         ROT   795.                  888.727      2.981     16.253
         INT  0.109E+04             1288.055      6.959     18.215
         TR   0.504E+25             1481.212      4.968     36.136
         TOT                        2769.2675    11.9271    54.3512   227.4056

       T/K    H(0)-H(T)+PV         H(T)/Eh          T*S/Eh         G(T)/Eh
   ------------------------------------------------------------------------
    298.15    0.441311E-02    0.786439E-01    0.258240E-01    0.528199E-01
   ------------------------------------------------------------------------

         :::::::::::::::::::::::::::::::::::::::::::::::::::::
         ::                  THERMODYNAMIC                  ::
         :::::::::::::::::::::::::::::::::::::::::::::::::::::
         :: total free energy          -7.283550790281 Eh   ::
         ::.................................................::
         :: total energy               -7.336370673518 Eh   ::
         :: zero point energy           0.074230799488 Eh   ::
         :: G(RRHO) w/o ZPVE           -0.021410916251 Eh   ::
         :: G(RRHO) contrib.            0.052819883237 Eh   ::
         :::::::::::::::::::::::::::::::::::::::::::::::::::::

optimized geometry written to: xtbopt.coord


           -------------------------------------------------
          | TOTAL ENERGY               -7.336370673518 Eh   |
          | TOTAL ENTHALPY             -7.257726765354 Eh   |
          | TOTAL FREE ENERGY          -7.283550790281 Eh   |
          | GRADIENT NORM               0.000042254118 Eh/α |
          | HOMO-LUMO GAP              15.506237309852 eV   |
           -------------------------------------------------

------------------------------------------------------------------------
 * finished run on 2025/04/09 at 02:59:55.705     
------------------------------------------------------------------------
 total:
 * wall-time:     0 d,  0 h,  0 min,  0.041 sec
 *  cpu-time:     0 d,  0 h,  0 min,  0.041 sec
 * ratio c/w:     0.992 speedup
 SCF:
 * wall-time:     0 d,  0 h,  0 min,  0.002 sec
 *  cpu-time:     0 d,  0 h,  0 min,  0.002 sec
 * ratio c/w:     0.987 speedup
 ANC optimizer:
 * wall-time:     0 d,  0 h,  0 min,  0.006 sec
 *  cpu-time:     0 d,  0 h,  0 min,  0.005 sec
 * ratio c/w:     0.986 speedup
 analytical hessian:
 * wall-time:     0 d,  0 h,  0 min,  0.030 sec
 *  cpu-time:     0 d,  0 h,  0 min,  0.030 sec
 * ratio c/w:     0.995 speedup

