      -----------------------------------------------------------      
     |                   =====================                   |     
     |                           x T B                           |     
     |                   =====================                   |     
     |                         S. Grimme                         |     
     |          Mulliken Center for Theoretical Chemistry        |     
     |                    University of Bonn                     |     
      -----------------------------------------------------------      

   * xtb version 6.7.1 (41059b4) compiled by 'michael@archlinux' on 2025-03-24

   xtb is free software: you can redistribute it and/or modify it under
   the terms of the GNU Lesser General Public License as published by
   the Free Software Foundation, either version 3 of the License, or
   (at your option) any later version.
   
   xtb is distributed in the hope that it will be useful,
   but WITHOUT ANY WARRANTY; without even the implied warranty of
   MERCHANTABILITY or FITNESS FOR A PARTICULAR PURPOSE.  See the
   GNU Lesser General Public License for more details.
   
   Cite this work as:
   * C. Bannwarth, E. Caldeweyher, S. Ehlert, A. Hansen, P. Pracht,
     J. Seibert, S. Spicher, S. Grimme, WIREs Comput. Mol. Sci., 2020, 11,
     e01493. DOI: 10.1002/wcms.1493
   
   for GFN2-xTB:
   * C. Bannwarth, S. Ehlert and S. Grimme., J. Chem. Theory Comput., 2019,
     15, 1652-1671. DOI: 10.1021/acs.jctc.8b01176
   for GFN1-xTB:
   * S. Grimme, C. Bannwarth, P. Shushkov, J. Chem. Theory Comput., 2017,
     13, 1989-2009. DOI: 10.1021/acs.jctc.7b00118
   for GFN0-xTB:
   * P. Pracht, E. Caldeweyher, S. Ehlert, S. Grimme, ChemRxiv, 2019, preprint.
     DOI: 10.26434/chemrxiv.8326202.v1
   for GFN-FF:
   * S. Spicher and S. Grimme, Angew. Chem. Int. Ed., 2020, 59, 15665-15673.
     DOI: 10.1002/anie.202004239
   
   for ALPB and GBSA implicit solvation:
   * S. Ehlert, M. Stahn, S. Spicher, S. Grimme, J. Chem. Theory Comput.,
     2021, 17, 4250-4261. DOI: 10.1021/acs.jctc.1c00471
   
   for ddCOSMO and CPCM-X implicit solvation:
   * M. Stahn, S. Ehlert, S. Grimme, J. Phys. Chem. A,
     2023, XX, XXXX-XXXX. DOI: 10.1021/acs.jpca.3c04382
   
   for DFT-D4:
   * E. Caldeweyher, C. Bannwarth and S. Grimme, J. Chem. Phys., 2017,
     147, 034112. DOI: 10.1063/1.4993215
   * E. Caldeweyher, S. Ehlert, A. Hansen, H. Neugebauer, S. Spicher,
     C. Bannwarth and S. Grimme, J. Chem. Phys., 2019, 150, 154122.
     DOI: 10.1063/1.5090222
   * E. Caldeweyher, J.-M. Mewes, S. Ehlert and S. Grimme, Phys. Chem. Chem. Phys.
     2020, 22, 8499-8512. DOI: 10.1039/D0CP00502A
   
   for sTDA-xTB:
   * S. Grimme and C. Bannwarth, J. Chem. Phys., 2016, 145, 054103.
     DOI: 10.1063/1.4959605
   
   in the mass-spec context:
   * V. Asgeirsson, C. Bauer and S. Grimme, Chem. Sci., 2017, 8, 4879.
     DOI: 10.1039/c7sc00601b
   * J. Koopman and S. Grimme, ACS Omega 2019, 4, 12, 15120-15133.
     DOI: 10.1021/acsomega.9b02011
   
   for metadynamics refer to:
   * S. Grimme, J. Chem. Theory Comput., 2019, 155, 2847-2862
     DOI: 10.1021/acs.jctc.9b00143
   
   for SPH calculations refer to:
   * S. Spicher and S. Grimme, J. Chem. Theory Comput., 2021, 17, 1701-1714
     DOI: 10.1021/acs.jctc.0c01306
   
   for ONIOM refer to:
   * C. Plett, A. Katbashev, S. Ehlert, S. Grimme, M. Bursch,
     Phys. Chem. Chem. Phys., 2023, 25, 17860-17868. DOI: 10.1039/D3CP02178E
   
   for DIPRO refer to:
   * J. Kohn, N. Gildemeister, S. Grimme, D. Fazzi, A. Hansen,
     J. Chem. Phys., 2023, just accepted.
   
   for PTB refer to:
   * S. Grimme, M. Mueller, A. Hansen, J. Chem. Phys., 2023, 158, 124111.
     DOI: 10.1063/5.0137838
   
   with help from (in alphabetical order)
   P. Atkinson, C. Bannwarth, F. Bohle, G. Brandenburg, E. Caldeweyher
   M. Checinski, S. Dohm, S. Ehlert, S. Ehrlich, I. Gerasimov, C. Hölzer
   A. Katbashev, J. Kohn, J. Koopman, C. Lavigne, S. Lehtola, F. März, M. Müller,
   F. Musil, H. Neugebauer, J. Pisarek, C. Plett, P. Pracht, F. Pultar,
   J. Seibert, P. Shushkov, S. Spicher, M. Stahn, M. Steiner, T. Strunk,
   J. Stückrath, T. Rose, and J. Unsleber
   
 * started run on 2025/04/09 at 02:34:04.533     
   ID    Z sym.   atoms
    1    6 C      1, 2, 4, 6, 8
    2    1 H      3, 5, 7, 9, 15-20
    3    8 O      10-14

           -------------------------------------------------
          |                Calculation Setup                |
           -------------------------------------------------

          program call               : /usr/bin/xtb xtb_opt.coord --opt normal --orca -I xtb_opt-xcontrol-inp
          coordinate file            : xtb_opt.coord
          omp threads                :                    16

           -------------------------------------------------
          |                   Orca driver                   |
           -------------------------------------------------
orca executable           : /home/michael/Documents/CHEM4561/orca_avx2/orca
orca input file           : xtb_opt.inp
orca input line           : 
orca parallel             : true
orca number of threads    : 16
                         * ORCA takes the control...
  ------------------------------------------------------------------------

                                 *****************
                                 * O   R   C   A *
                                 *****************

                                            #,                                       
                                            ###                                      
                                            ####                                     
                                            #####                                    
                                            ######                                   
                                           ########,                                 
                                     ,,################,,,,,                         
                               ,,#################################,,                 
                          ,,##########################################,,             
                       ,#########################################, ''#####,          
                    ,#############################################,,   '####,        
                  ,##################################################,,,,####,       
                ,###########''''           ''''###############################       
              ,#####''   ,,,,##########,,,,          '''####'''          '####       
            ,##' ,,,,###########################,,,                        '##       
           ' ,,###''''                  '''############,,,                           
         ,,##''                                '''############,,,,        ,,,,,,###''
      ,#''                                            '''#######################'''  
     '                                                          ''''####''''         
             ,#######,   #######,   ,#######,      ##                                
            ,#'     '#,  ##    ##  ,#'     '#,    #''#        ,####,   ,####,        
            ##       ##  ##   ,#'  ##            #'  '#       #'       #'  '#        
            ##       ##  #######   ##           ,######,      #####,   #    #        
            '#,     ,#'  ##    ##  '#,     ,#' ,#      #,     #,   #   #,  ,#        
             '#######'   ##     ##  '#######'  #'      '#     '####' # '####'        



                #########################################################
                #                        -***-                          #
                #          Department of theory and spectroscopy        #
                #                                                       #
                #                      Frank Neese                      #
                #                                                       #
                #     Directorship, Architecture, Infrastructure        #
                #                    SHARK, DRIVERS                     #
                #        Core code/Algorithms in most modules           #
                #                                                       #
                #        Max Planck Institute fuer Kohlenforschung      #
                #                Kaiser Wilhelm Platz 1                 #
                #                 D-45470 Muelheim/Ruhr                 #
                #                      Germany                          #
                #                                                       #
                #                  All rights reserved                  #
                #                        -***-                          #
                #########################################################


                         Program Version 6.0.1  -  RELEASE   -


 With contributions from (in alphabetic order):
[Max-Planck-Institut fuer Kohlenforschung]                               
  Daniel Aravena         : Magnetic Suceptibility                        
  Michael Atanasov       : Ab Initio Ligand Field Theory (pilot matlab implementation)
  Alexander A. Auer      : GIAO ZORA, VPT2 properties, NMR spectrum      
  Ute Becker             : All parallelization in ORCA, NUMFREQ, NUMCALC 
  Giovanni Bistoni       : ED, misc. LED, open-shell LED, HFLD           
  Martin Brehm           : Molecular dynamics                            
  Dmytro Bykov           : pre 5.0 version of the SCF Hessian            
  Marcos Casanova-Páez   : Triplet and SCS-CIS(D). UHF-(DLPNO)-IP/EA/STEOM-CCSD. UHF-CVS-IP/STEOM-CCSD   
  Vijay G. Chilkuri      : MRCI spin determinant printing, contributions to CSF-ICE 
  Pauline Colinet        : FMM embedding                                 
  Dipayan Datta          : RHF DLPNO-CCSD density                        
  Achintya Kumar Dutta   : EOM-CC, STEOM-CC                              
  Nicolas Foglia         : Exact transition moments, OPA infrastructure, MCD improvements    
  Dmitry Ganyushin       : Spin-Orbit,Spin-Spin,Magnetic field MRCI      
  Miquel Garcia-Rates    : C-PCM and meta-GGA Hessian, CCSD/C-PCM, Gaussian charge scheme 
  Tiago L. C. Gouveia    : GS-ROHF, GS-ROCIS                             
  Yang Guo               : DLPNO-NEVPT2, F12-NEVPT2, CIM, IAO-localization        
  Andreas Hansen         : Spin unrestricted coupled pair/coupled cluster methods 
  Ingolf Harden          : AUTO-CI MPn and infrastructure                
  Benjamin Helmich-Paris : MC-RPA, TRAH-(SCF,CASSCF), AVAS, COSX integrals, SCF dyn. polar. 
  Lee Huntington         : MR-EOM, pCC                                   
  Robert Izsak           : Overlap fitted RIJCOSX, COSX-SCS-MP3, EOM     
  Riya Kayal             : Wick's Theorem for AUTO-CI, AUTO-CI UHF-CCSDT 
  Emily Kempfer          : AUTO-CI, RHF CISDT and CCSDT                  
  Christian Kollmar      : KDIIS, OOCD, Brueckner-CCSD(T), CCSD density, CASPT2, CASPT2-K, improved NEVPT2 
  Axel Koslowski         : Symmetry handling                             
  Simone Kossmann        : meta-GGA functionals, TD-DFT gradient, OOMP2, (MP2 Hessian; deprecated post 5.0) 
  Lucas Lang             : DCDCAS                                        
  Marvin Lechner         : AUTO-CI (C++ implementation), FIC-MRCC        
  Spencer Leger          : CASSCF response                               
  Dagmar Lenk            : GEPOL surface, SMD, ORCA-2-JSON               
  Dimitrios Liakos       : Extrapolation schemes; Compound Job, initial MDCI parallelization 
  Dimitrios Manganas     : Further ROCIS development; embedding schemes. LFT, Crystal Embedding 
  Dimitrios Pantazis     : SARC Basis sets                               
  Anastasios Papadopoulos: AUTO-CI, single reference methods and gradients 
  Taras Petrenko         : pre 6.0 DFT Hessian and TD-DFT gradient, (ASA, deprecated), ECA, 1-Electron XAS/XES, NRVS 
  Peter Pinski           : DLPNO-MP2, DLPNO-MP2 Gradient                 
  Christoph Reimann      : Effective Core Potentials                     
  Marius Retegan         : Local ZFS, SOC                                
  Christoph Riplinger    : Optimizer, TS searches, QM/MM, DLPNO-CCSD(T), (RO)-DLPNO pert. Triples 
  Michael Roemelt        : Original ROCIS implementation                 
  Masaaki Saitow         : Open-shell DLPNO-CCSD energy and density      
  Barbara Sandhoefer     : DKH picture change effects                    
  Kantharuban Sivalingam : CASSCF convergence/infrastructure, NEVPT2 and variants, FIC-MRCI 
  Bernardo de Souza      : ESD, SOC TD-DFT                               
  Georgi L. Stoychev     : AutoAux, RI-MP2 NMR, DLPNO-MP2 response, X2C  
  Van Anh Tran           : RI-MP2 g-tensors                              
  Willem Van den Heuvel  : Paramagnetic NMR                              
  Zikuan Wang            : NOTCH, Electric field optimization            
  Frank Wennmohs         : Technical directorship and infrastructure     
  Hang Xu                : AUTO-CI-Response properties                   
                                                                         
[FACCTs GmbH]                                                            
  Markus Bursch, Miquel Garcia-Rates, Christoph Riplinger, Bernardo de Souza, Georgi L. Stoychev 
                                                                 
  APM, Basis sets (HGBS, AHGBS, def-TZVP (Ac-Lr), def2-XVPD (La-Lu)), CI-OPT, improved COSX, DLPNO-Multilevel,           
  DOCKER, DRACO, updates on ESD, GOAT, IRC, LR-CPCM, MBIS, meta-GGA TD-DFT gradient, ML-optimized integration grids, 
  MM, NACMEs, nearIR, NEB, NEB-TS, NL-DFT gradient (VV10), 2- and 3-layer-ONIOM, interface openCOSMO-RS, QMMM,   
  Crystal-QMMM, SF, symmetry and pop. for TD-DFT, r2SCAN hybrids, SOLVATOR                                   
                                                                         
[Other institutions]                                                     
  V. Asgeirsson          : NEB                                           
  Christoph Bannwarth    : sTDA-DFT, sTD-DFT, PBEh-3c, B97-3c, D3        
  Sebastian Ehlert       : rSCAN, r2SCAN, r2SCAN-3c, D4, dhf basis sets  
  Marvin Friede          : D4 for Fr, Ra, Ac-Lr                          
  Lars Goerigk           : TD-DFT with DH, B97 family of functionals     
  Stefan Grimme          : VdW corrections, initial TS optimization, DFT functionals, gCP, sTDA/sTD-DF 
  Waldemar Hujo          : DFT-NL                                        
  H. Jonsson             : NEB                                           
  Holger Kruse           : gCP                                           
  Marcel Mueller         : wB97X-3c, vDZP basis set                      
  Hagen Neugebauer       : wr2SCAN                                       
  Tobias Risthaus        : range-separated hybrid DFT                    
  Lukas Wittmann         : regularized MP2, r2SCAN double-hybrids, wr2SCAN        
                                                                         
We gratefully acknowledge several colleagues who have allowed us to      
interface, adapt or use parts of their codes:                            
  Ed Valeev, F. Pavosevic, A. Kumar             : LibInt (2-el integral package), F12 methods 
  Garnet Chan, S. Sharma, J. Yang, R. Olivares  : DMRG                   
  Ulf Ekstrom                                   : XCFun DFT Library      
  Mihaly Kallay                                 : mrcc  (arbitrary order and MRCC methods)
  Frank Weinhold                                : gennbo (NPA and NBO analysis)           
  Simon Mueller                                 : openCOSMO-RS                            
  Christopher J. Cramer and Donald G. Truhlar   : smd solvation model                     
  S Lehtola, MJT Oliveira, MAL Marques          : LibXC Library                           
  Liviu Ungur et al                             : ANISO software                          


 Your calculation uses the libint2 library for the computation of 2-el integrals
 For citations please refer to: http://libint.valeyev.net

 Your ORCA version has been built with support for libXC version: 6.2.2
 For citations please refer to: https://libxc.gitlab.io

 This ORCA versions uses:
   CBLAS   interface :  Fast vector & matrix operations
   LAPACKE interface :  Fast linear algebra routines
   SCALAPACK package :  Parallel linear algebra routines
   Shared memory     :  Shared parallel matrices
   BLAS/LAPACK       :  OpenBLAS 0.3.27  USE64BITINT DYNAMIC_ARCH NO_AFFINITY Zen SINGLE_THREADED
        Core in use  :  Zen
   Copyright (c) 2011-2014, The OpenBLAS Project




***************************************
The coordinates will be read from file: xtb_opt.xyz
***************************************


Your calculation utilizes the geometrical counterpoise correction gCP
Please cite in your paper:
H.Kruse, S. Grimme J.Chem.Phys., 136, (2012), 154101 
   

Your calculation utilizes the atom-pairwise dispersion correction
based on EEQ partial charges (D4)


================================================================================

----- Orbital basis set information -----
Your calculation utilizes the basis: def2-mTZVPP
   Stefan Grimme, Andreas Hansen, Sebastian Ehlert, and Jan-Michael Mewes 
   J. Chem. Phys. 154, 064103 (2021). DOI: 10.1063/5.0040021

----- AuxJ basis set information -----
Your calculation utilizes the auxiliary basis: def2/J
   F. Weigend, Phys. Chem. Chem. Phys. 8, 1057 (2006).

================================================================================
                                        WARNINGS
                       Please study these warnings very carefully!
================================================================================

WARNING: Old DensityContainer found on disk!
         Will remove this file - 
         If you want to keep old densities, please start your calculation with a different basename. 



WARNING: SCAN, rSCAN, or r2SCAN functional requested.
  ===> : libXC variant has now been activated.



================================================================================
                                       INPUT FILE
================================================================================
NAME = xtb_opt.inp
|  1> ! r2scan-3c def2/J RI DEFGRID2 scfconv7 ENGRAD tightSCF miniprint
|  2> * xyzfile 0 1 xtb_opt.xyz
|  3> 
|  4>                          ****END OF INPUT****
================================================================================

                     *******************************
                     * Energy+Gradient Calculation *
                     *******************************

---------------------------------
CARTESIAN COORDINATES (ANGSTROEM)
---------------------------------
  C      0.844371    1.357143   -0.614816
  C      1.573392    0.150096   -0.046691
  H      2.552726    0.051001   -0.549013
  C      0.764339   -1.120288   -0.302352
  H      1.194454   -1.939658    0.293062
  C     -0.708874   -0.931912    0.100085
  H     -1.295591   -1.780271   -0.281227
  C     -1.290873    0.359446   -0.485101
  H     -1.327269    0.316587   -1.585906
  O     -0.471694    1.475632   -0.086237
  O     -2.582520    0.579751   -0.021621
  O     -0.880704   -0.936952    1.516891
  O      0.880611   -1.366183   -1.707049
  O      1.731894    0.223282    1.387543
  H      0.827569    1.269002   -1.714856
  H      1.371112    2.287044   -0.361854
  H     -2.572564    0.325959    0.915050
  H     -0.172596   -0.361966    1.880363
  H      0.375848   -2.162603   -1.922302
  H      1.897185    1.226804    1.635260

----------------------------
CARTESIAN COORDINATES (A.U.)
----------------------------
  NO LB      ZA    FRAG     MASS         X           Y           Z
   0 C     6.0000    0    12.011    1.595629    2.564629   -1.161834
   1 C     6.0000    0    12.011    2.973281    0.283641   -0.088233
   2 H     1.0000    0     1.008    4.823952    0.096379   -1.037485
   3 C     6.0000    0    12.011    1.444391   -2.117038   -0.571362
   4 H     1.0000    0     1.008    2.257191   -3.665422    0.553808
   5 C     6.0000    0    12.011   -1.339577   -1.761058    0.189133
   6 H     1.0000    0     1.008   -2.448312   -3.364225   -0.531442
   7 C     6.0000    0    12.011   -2.439396    0.679255   -0.916709
   8 H     1.0000    0     1.008   -2.508175    0.598262   -2.996927
   9 O     8.0000    0    15.999   -0.891373    2.788541   -0.162964
  10 O     8.0000    0    15.999   -4.880255    1.095571   -0.040858
  11 O     8.0000    0    15.999   -1.664289   -1.770583    2.866508
  12 O     8.0000    0    15.999    1.664114   -2.581712   -3.225855
  13 O     8.0000    0    15.999    3.272806    0.421943    2.622077
  14 H     1.0000    0     1.008    1.563878    2.398067   -3.240608
  15 H     1.0000    0     1.008    2.591026    4.321886   -0.683805
  16 H     1.0000    0     1.008   -4.861441    0.615973    1.729194
  17 H     1.0000    0     1.008   -0.326159   -0.684017    3.553372
  18 H     1.0000    0     1.008    0.710250   -4.086728   -3.632624
  19 H     1.0000    0     1.008    3.585160    2.318324    3.090193

------------------------------------------------------------------------------
                   ___                                                        
                  /   \      - P O W E R E D   B Y -                         
                 /     \                                                     
                 |  |  |   _    _      __       _____    __    __             
                 |  |  |  | |  | |    /  \     |  _  \  |  |  /  |          
                  \  \/   | |  | |   /    \    | | | |  |  | /  /          
                 / \  \   | |__| |  /  /\  \   | |_| |  |  |/  /          
                |  |  |   |  __  | /  /__\  \  |    /   |      \           
                |  |  |   | |  | | |   __   |  |    \   |  |\   \          
                \     /   | |  | | |  |  |  |  | |\  \  |  | \   \       
                 \___/    |_|  |_| |__|  |__|  |_| \__\ |__|  \__/        
                                                                              
                      - O R C A' S   B I G   F R I E N D -                    
                                      &                                       
                       - I N T E G R A L  F E E D E R -                       
                                                                              
 v1 FN, 2020, v2 2021, v3 2022-2024                                           
------------------------------------------------------------------------------


----------------------
SHARK INTEGRAL PACKAGE
----------------------

Number of atoms                             ...     20
Number of basis functions                   ...    265
Number of shells                            ...    125
Maximum angular momentum                    ...      2
Integral batch strategy                     ... SHARK/LIBINT Hybrid
RI-J (if used) integral strategy            ... SPLIT-RIJ (Revised 2003 algorithm where possible)
Printlevel                                  ...      1
Contraction scheme used                     ... SEGMENTED contraction
Prescreening option                         ... SCHWARTZ
   Thresh                                   ... 3.000e-11
   Tcut                                     ... 1.000e-12
   Tpresel                                  ... 1.000e-12 
Coulomb Range Separation                    ... NOT USED
Exchange Range Separation                   ... NOT USED
Multipole approximations                    ... NOT USED
Finite Nucleus Model                        ... NOT USED
CABS basis                                  ... NOT available
Auxiliary Coulomb fitting basis             ... AVAILABLE
   # of basis functions in Aux-J            ...    600
   # of shells in Aux-J                     ...    200
   Maximum angular momentum in Aux-J        ...      4
Auxiliary J/K fitting basis                 ... NOT available
Auxiliary Correlation fitting basis         ... NOT available
Auxiliary 'external' fitting basis          ... NOT available

Checking pre-screening integrals            ... done (  0.0 sec) Dimension = 125
Check shell pair data                       ... done (  0.0 sec)
Shell pair information
Shell pair cut-off parameter TPreSel        ...   1.0e-12
Total number of shell pairs                 ...      7875
Shell pairs after pre-screening             ...      7234
Total number of primitive shell pairs       ...     27980
Primitive shell pairs kept                  ...     18170
          la=0 lb=0:   2195 shell pairs
          la=1 lb=0:   2573 shell pairs
          la=1 lb=1:    779 shell pairs
          la=2 lb=0:    989 shell pairs
          la=2 lb=1:    580 shell pairs
          la=2 lb=2:    118 shell pairs

Calculating one electron integrals          ... done (  0.0 sec)
Calculating RI/J V-Matrix + Cholesky decomp.... done (  0.0 sec)
Calculating Nuclear repulsion               ... done (  0.0 sec) ENN=    632.963809050808 Eh

Diagonalization of the overlap matrix:
Smallest eigenvalue                        ... 5.351e-05
Time for diagonalization                   ...    0.006 sec
Threshold for overlap eigenvalues          ... 1.000e-07
Number of eigenvalues below threshold      ... 0
Time for construction of square roots      ...    0.002 sec
Total time needed                          ...    0.008 sec

-------------------
DFT GRID GENERATION
-------------------

General Integration Accuracy     IntAcc      ... 4.388
Radial Grid Type                 RadialGrid  ... OptM3 with GC (2021)
Angular Grid (max. ang.)         AngularGrid ... 4 (Lebedev-302)
Angular grid pruning method      GridPruning ... 4 (adaptive)
Weight generation scheme         WeightScheme... mBecke (2022)
Basis function cutoff            BFCut       ... 1.0000e-11
Integration weight cutoff        WCut        ... 1.0000e-14
Partially contracted basis set               ... off
Rotationally invariant grid construction     ... off
Angular grids for H and He will be reduced by one unit
Diffuse basis detected: some atoms will have their outermost
                        angular grid increased by 1.

Total number of grid points                  ...    93414
Total number of batches                      ...     1470
Average number of points per batch           ...       63
Average number of grid points per atom       ...     4671
Initializing property integral containers    ... done (  0.0 sec)

SHARK setup successfully completed in   0.7 seconds

Maximum memory used throughout the entire STARTUP-calculation: 46.3 MB
Occupation numbers will be reassigned to an Aufbau configuration
             **** ENERGY FILE WAS UPDATED (xtb_opt.en.tmp) ****
Finished Guess after   0.1 sec
Maximum memory used throughout the entire GUESS-calculation: 21.1 MB
----------------------------------------D-I-I-S--------------------------------------------
Iteration    Energy (Eh)           Delta-E    RMSDP     MaxDP     DIISErr   Damp  Time(sec)
-------------------------------------------------------------------------------------------
               ***  Starting incremental Fock matrix formation  ***
                              *** Initializing SOSCF ***
---------------------------------------S-O-S-C-F--------------------------------------
Iteration    Energy (Eh)           Delta-E    RMSDP     MaxDP     MaxGrad    Time(sec)
--------------------------------------------------------------------------------------
    1    -572.5700174863748089     0.00e+00  2.94e-06  1.14e-04  4.33e-06     2.1
               *** Restarting incremental Fock matrix formation ***
    2    -572.5700174853791395     9.96e-10  4.03e-06  1.27e-04  1.41e-05     2.1
                  *** Gradient check signals convergence ***

               *****************************************************
               *                     SUCCESS                       *
               *           SCF CONVERGED AFTER   2 CYCLES          *
               *****************************************************

             **** ENERGY FILE WAS UPDATED (xtb_opt.en.tmp) ****

----------------
TOTAL SCF ENERGY
----------------

Total Energy       :       -572.57001748537914 Eh          -15580.42227 eV

Components:
Nuclear Repulsion  :        632.96380905080764 Eh           17223.82089 eV
Electronic Energy  :      -1205.53382653618678 Eh          -32804.24316 eV
One Electron Energy:      -2041.07248799133572 Eh          -55540.40602 eV
Two Electron Energy:        835.53866145514894 Eh           22736.16286 eV

Virial components:
Potential Energy   :      -1142.60594704440905 Eh          -31091.88850 eV
Kinetic Energy     :        570.03592955902991 Eh           15511.46623 eV
Virial Ratio       :          2.00444548807355

DFT components:
N(Alpha)           :       40.000008124870 electrons
N(Beta)            :       40.000008124870 electrons
N(Total)           :       80.000016249739 electrons
E(X)               :      -70.976441218247 Eh       
E(C)               :       -2.658876285791 Eh       
E(XC)              :      -73.635317504038 Eh       

---------------
SCF CONVERGENCE
---------------

  Last Energy change         ...   -9.9567e-10  Tolerance :   1.0000e-07
  Last MAX-Density change    ...    1.2685e-04  Tolerance :   1.0000e-07
  Last RMS-Density change    ...    4.0326e-06  Tolerance :   5.0000e-09
  Last DIIS Error            ...    8.0593e-05  Tolerance :   1.0000e-07
  Last Orbital Gradient      ...    1.4087e-05  Tolerance :   1.0000e-04
  Last Orbital Rotation      ...    2.3831e-05  Tolerance :   1.0000e-04


----------------
ORBITAL ENERGIES
----------------

  NO   OCC          E(Eh)            E(eV) 
   0   2.0000     -18.985583      -516.6240 
   1   2.0000     -18.974791      -516.3303 
   2   2.0000     -18.963483      -516.0226 
   3   2.0000     -18.959407      -515.9117 
   4   2.0000     -18.956683      -515.8376 
   5   2.0000     -10.132610      -275.7223 
   6   2.0000     -10.103669      -274.9348 
   7   2.0000     -10.103450      -274.9289 
   8   2.0000     -10.094999      -274.6989 
   9   2.0000     -10.094065      -274.6735 
  10   2.0000      -1.039906       -28.2973 
  11   2.0000      -1.010441       -27.4955 
  12   2.0000      -0.995005       -27.0755 
  13   2.0000      -0.987217       -26.8635 
  14   2.0000      -0.969873       -26.3916 
  15   2.0000      -0.752482       -20.4761 
  16   2.0000      -0.718772       -19.5588 
  17   2.0000      -0.638515       -17.3749 
  18   2.0000      -0.612305       -16.6617 
  19   2.0000      -0.553574       -15.0635 
  20   2.0000      -0.521033       -14.1780 
  21   2.0000      -0.511978       -13.9316 
  22   2.0000      -0.479592       -13.0504 
  23   2.0000      -0.464633       -12.6433 
  24   2.0000      -0.450825       -12.2676 
  25   2.0000      -0.448092       -12.1932 
  26   2.0000      -0.428603       -11.6629 
  27   2.0000      -0.410017       -11.1571 
  28   2.0000      -0.393640       -10.7115 
  29   2.0000      -0.371156       -10.0997 
  30   2.0000      -0.356374        -9.6974 
  31   2.0000      -0.345235        -9.3943 
  32   2.0000      -0.325983        -8.8704 
  33   2.0000      -0.319895        -8.7048 
  34   2.0000      -0.300020        -8.1639 
  35   2.0000      -0.275719        -7.5027 
  36   2.0000      -0.268592        -7.3088 
  37   2.0000      -0.261004        -7.1023 
  38   2.0000      -0.254065        -6.9135 
  39   2.0000      -0.224473        -6.1082 
  40   0.0000       0.012255         0.3335 
  41   0.0000       0.039660         1.0792 
  42   0.0000       0.059608         1.6220 
  43   0.0000       0.082528         2.2457 
  44   0.0000       0.095233         2.5914 
  45   0.0000       0.101073         2.7503 
  46   0.0000       0.113467         3.0876 
  47   0.0000       0.114649         3.1198 
  48   0.0000       0.129444         3.5223 
  49   0.0000       0.140588         3.8256 
  50   0.0000       0.147262         4.0072 
*Only the first 10 virtual orbitals were printed.
Total SCF time: 0 days 0 hours 0 min 4 sec 
Finished LeanSCF after   4.4 sec

Maximum memory used throughout the entire LEANSCF-calculation: 32.0 MB


-------------------------------------------------------------------------------
                          DFT DISPERSION CORRECTION                            
                                                                               
                                DFTD4 V3.4.0                                   
-------------------------------------------------------------------------------
-------------------------   ----------------
Dispersion correction           -0.006479960
-------------------------   ----------------

------------------   -----------------
gCP correction             0.017090341
------------------   -----------------

-------------------------   --------------------
FINAL SINGLE POINT ENERGY      -572.559407104680
-------------------------   --------------------

------------------------------------------------------------------------------
                         ORCA SCF GRADIENT CALCULATION
------------------------------------------------------------------------------

Nuc. rep. gradient        (SHARK) ... done (  0.0 sec)
HCore & Overlap gradient  (SHARK) ... done (  0.3 sec)
Split-RIJ-J gradient      (SHARK) ... done (  1.7 sec)
XC gradient                       ... done (  6.1 sec)
Dispersion correction             ... done (  0.0 sec)

-------------------
DISPERSION GRADIENT
-------------------

   1   C   :    0.000021653    0.000054508   -0.000030138
   2   C   :    0.000066062    0.000010802    0.000000751
   3   H   :    0.000043400    0.000002174   -0.000003323
   4   C   :    0.000028018   -0.000043021   -0.000008716
   5   H   :    0.000021595   -0.000037184    0.000003449
   6   C   :   -0.000038138   -0.000033706    0.000002911
   7   H   :   -0.000028646   -0.000032934    0.000004198
   8   C   :   -0.000032867    0.000027840   -0.000016777
   9   H   :   -0.000038499    0.000014715   -0.000016372
  10   O   :   -0.000030817    0.000065570   -0.000012061
  11   O   :   -0.000112838    0.000017436    0.000019006
  12   O   :   -0.000032973   -0.000032960    0.000084217
  13   O   :    0.000028480   -0.000086913   -0.000078740
  14   O   :    0.000087460    0.000048541    0.000073503
  15   H   :    0.000015482    0.000032989   -0.000028251
  16   H   :    0.000022421    0.000046739   -0.000005703
  17   H   :   -0.000043852    0.000012120   -0.000007511
  18   H   :   -0.000025092   -0.000025957    0.000028237
  19   H   :    0.000018573   -0.000029008   -0.000033687
  20   H   :    0.000030579   -0.000011750    0.000025006

Difference to translation invariance:
           :    0.0000000000    0.0000000000   -0.0000000000

Difference to rotation invariance:
           :    0.0000000000    0.0000000000   -0.0000000000

Norm of the Dispersion gradient    ...    0.0003083033
RMS gradient                       ...    0.0000398018
MAX gradient                       ...    0.0001128376
gCP correction                   ... done

------------------
CARTESIAN GRADIENT
------------------

   1   C   :    0.000289077   -0.001002726    0.001078816
   2   C   :   -0.002401332   -0.000339269   -0.002130725
   3   H   :    0.001668562   -0.000229203   -0.002538086
   4   C   :    0.000805788    0.001241038    0.001575413
   5   H   :    0.000071711    0.000469775    0.000423379
   6   C   :   -0.000889921    0.001433022   -0.002249990
   7   H   :    0.000056457   -0.000396482    0.000044391
   8   C   :    0.003292079   -0.002665978   -0.000260839
   9   H   :    0.000001860   -0.000096835   -0.000875796
  10   O   :   -0.000321358    0.000901585    0.000671502
  11   O   :   -0.003716781    0.000755398    0.001144536
  12   O   :   -0.006427681   -0.005438874   -0.002277390
  13   O   :    0.002072327    0.002735461    0.000595907
  14   O   :   -0.008737220   -0.059400513   -0.011149712
  15   H   :    0.000402239   -0.000089736   -0.000787649
  16   H   :    0.000372500    0.000602574   -0.000357598
  17   H   :    0.000034625   -0.000214013   -0.000195860
  18   H   :    0.006162813    0.005623860    0.003899827
  19   H   :   -0.002155919   -0.002577092   -0.001312919
  20   H   :    0.009420175    0.058688008    0.014702792

Difference to translation invariance:
           :   -0.0000000000    0.0000000000    0.0000000000

Difference to rotation invariance:
           :    0.0002215600    0.0005091296    0.0005731547

Norm of the Cartesian gradient     ...    0.0879589226
RMS gradient                       ...    0.0113554481
MAX gradient                       ...    0.0594005129

-------
TIMINGS
-------

Total SCF gradient time     ....        8.069 sec

Densities                   ....       0.001 sec  (  0.0%)
One electron gradient       ....       0.284 sec  (  3.5%)
RI-J Coulomb gradient       ....       1.654 sec  ( 20.5%)
XC gradient                 ....       6.112 sec  ( 75.8%)

Maximum memory used throughout the entire SCFGRAD-calculation: 41.4 MB

------------------------------------------------------------------------------
                              ORCA PROPERTY CALCULATIONS
------------------------------------------------------------------------------

GBWName                                 ... xtb_opt.gbw
Number of atoms                         ...     20
Number of basis functions               ...    265
Max core memory                         ...   1024 MB

Electric properties:
Dipole moment                           ... YES
Quadrupole moment                       ...  NO
Static polarizability (Dipole/Dipole)   ...  NO
Static polarizability (Dipole/Quad.)    ...  NO
Static polarizability (Quad./Quad.)     ...  NO
Static polarizability (Velocity)        ...  NO

Atomic electric properties:
Dipole moment                           ...  NO
Quadrupole moment                       ...  NO
Static polarizability                   ...  NO

Choice of electric origin               ... Center of mass
Position of electric origin             ...    -0.051385    -0.042720    -0.005978

General magnetic properties:
Magnetizability                         ...  NO

EPR properties:
g-Tensor (aka g-matrix)                 ...  NO
Zero-Field splitting spin-orbit         ...  NO
Zero-field splitting spin-spin          ...  NO
Hyperfine couplings                     ...  NO (   0 nuclei)
Quadrupole couplings                    ...  NO (   0 nuclei)
Contact density                         ...  NO (   0 nuclei)

NMR properties:
Chemical shifts                         ...  NO (   0 nuclei)
Spin-rotation constants                 ...  NO (   0 nuclei)
Spin-spin couplings                     ...  NO (   0 nuclei,    0 pairs)

Choice of magnetic origin               ... GIAO
Position of magnetic origin             ...     0.000000     0.000000     0.000000

Properties with geometric perturbations:
SCF Hessian                             ...  NO
IR spectrum                             ...  NO
VCD spectrum                            ...  NO
X-ray spectroscopy properties:
SCF XES/XAS/RIXS spectra                ...  NO


-------------
DIPOLE MOMENT
-------------

Method             : SCF
Type of density    : Electron Density
Multiplicity       :   1
Irrep              :   0
Energy             :  -572.5700174853791395 Eh
Relativity type    : 
Basis              : AO
                                X                 Y                 Z
Electronic contribution:     -1.973407296       0.326152052       1.292379894
Nuclear contribution   :      2.912183311      -0.507213889      -1.540826126
                        -----------------------------------------
Total Dipole Moment    :      0.938776015      -0.181061837      -0.248446232
                        -----------------------------------------
Magnitude (a.u.)       :      0.987830616
Magnitude (Debye)      :      2.510865885



--------------------
Rotational spectrum 
--------------------
 
Rotational constants in cm-1:             0.058107             0.040323             0.038415 
Rotational constants in MHz :          1742.013823          1208.851677          1151.643715 

Dipole components along the rotational axes: 
x,y,z [a.u.] :    -0.972240    -0.094579    -0.147015 
x,y,z [Debye]:    -2.471238    -0.240400    -0.373682 

 

Dipole moment calculation done in   0.0 sec 

Maximum memory used throughout the entire PROP-calculation: 20.1 MB

--------------------------------
SUGGESTED CITATIONS FOR THIS RUN
--------------------------------

Below you find a list of papers that are relevant to this ORCA run
We neither can nor want to force you to cite these papers, but we appreciate if you do
You receive ORCA, which is the product of decades of hard work by many enthusiastic individuals, for free
The only thing we kindly ask in return is that you cite our papers,
We deeply appreciate it, if you show your appreciation for ORCA by not just citing the generic ORCA reference.

Please note that relegating all ORCA citations to the supporting information does *not* help us.
SI sections are not indexed - citations you put there will not count into any citation statistics
But we need these citations in order to attract the funding resources that allow us to do what we are doing

Therefore, if you are a happy ORCA user, please consider citing a few of the papers listed below in the main body of your paper

In addition to the list printed below, the program has created the file xtb_opt.bibtex that contains the list in bibtex format
You can import this file easily into all common literature databanks and citation aid programs


List of essential papers. We consider these as the minimum necessary citations

  1. Neese,F.
     Software update: the ORCA program system, version 5.0
     WIRES Comput. Molec. Sci., 2022 12(1)e1606
     doi.org/10.1002/wcms.1606
  2. Grimme,S.; Hansen,A.; Ehlert,S.; Mewes,J.
     r2SCAN-3c: A 'Swiss army knife' composite electronic-structure method
     J. Chem. Phys., 2021 154 064103
     doi.org/10.1063/5.0040021

List of papers to cite with high priority. The work reported in these papers was absolutely
necessary for this run to complete.
Our perspective: the developers of density functionals and basis sets usually get cited in chemistry papers
Good! But without the algorithms to do something with them, the functionals or basis sets would not do anything.
Hence, in our opinion, the algorithm design and method developments papers are equally worthy of getting cited

  1. Neese,F.
     An improvement of the resolution of the identity approximation for the formation of the Coulomb matrix
     J. Comp. Chem., 2003 24(14)1740-1747
     doi.org/10.1002/jcc.10318
  2. Neese,F.
     The SHARK Integral Generation and Digestion System
     J. Comp. Chem., 2022  1-16
     doi.org/10.1002/jcc.26942
  3. Lehtola,S.; Steigemann,C.; Oliveira,M.; Marques,M.
     Recent developments in Libxc - A comprehensive library of functionals for density functional theory
     Software X, 2018 7 
     doi.org/10.1016/j.softx.2017.11.002
  4. Caldeweyher,E.; Bannwarth,C.; Grimme,S.
     Extension of the D3 dispersion coefficient model
     J. Chem. Phys., 2017 147 034112
     doi.org/10.1063/1.4993215
  5. Caldeweyher,E.; Ehlert,S.; Hansen,A.; Neugebauer,H.; Spicher,S.; Bannwarth,C.; Grimme,S.
     A generally applicable atomic-charge dependent London dispersion correction
     J. Chem. Phys., 2019 150 154122
     doi.org/10.1063/1.5090222
  6. Caldeweyher,E.; Mewes,J.; Ehlert,S.; Grimme,S.
     Extension and evaluation of the D4 London-dispersion model for periodic systems
     Phys. Chem. Chem. Phys., 2020 22(16)8499-8512
     doi.org/10.1039/D0CP00502A
  7. Wittmann,L.; Gordiy,I.; Friede,M.; Helmich-Paris,B.; Grimme,S.; Hansen,A.; Bursch,M.
     Extension of the D3 and D4 London Dispersion Corrections to the full Actinides Series
     Phys. Chem. Chem. Phys., 2024 26(32)21379-21394
     doi.org/https://doi.org/10.1039/D4CP01514B 

List of suggested additional citations. These are papers that are important in the 'surrounding' of 
of this run, or papers that preceded the highly important papers. If you like your results we are grateful for a citation.

  1. Neese,F.
     The ORCA program system
     WIRES Comput. Molec. Sci., 2012 2(1)73-78
     doi.org/10.1002/wcms.81
  2. Neese,F.
     Software update: the ORCA program system, version 4.0
     WIRES Comput. Molec. Sci., 2018 8(1)1-6
     doi.org/10.1002/wcms.1327
  3. Neese,F.; Wennmohs,F.; Becker,U.; Riplinger,C.
     The ORCA quantum chemistry program package
     J. Chem. Phys., 2020 152 Art. No. L224108
     doi.org/10.1063/5.0004608

List of optional additional citations

  1. Neese,F.
     Approximate second-order SCF convergence for spin unrestricted wavefunctions
     Chem. Phys. Lett., 2000 325(1-3)93-98
     doi.org/10.1016/s0009-2614(00)00662-x

Timings for individual modules:

Sum of individual times          ...       13.311 sec (=   0.222 min)
Startup calculation              ...        0.695 sec (=   0.012 min)   5.2 %
SCF iterations                   ...        4.458 sec (=   0.074 min)  33.5 %
Property calculations            ...        0.043 sec (=   0.001 min)   0.3 %
SCF Gradient evaluation          ...        8.115 sec (=   0.135 min)  61.0 %
                             ****ORCA TERMINATED NORMALLY****
TOTAL RUN TIME: 0 days 0 hours 0 minutes 13 seconds 378 msec
  ------------------------------------------------------------------------
          * successful ORCA run, taking over control again...

         :::::::::::::::::::::::::::::::::::::::::::::::::::::
         ::                  ORCA SUMMARY                   ::
         :::::::::::::::::::::::::::::::::::::::::::::::::::::
         :: total energy            -572.559407104680 Eh    ::
         :: gradient norm              0.087958922640 Eh/a0 ::
         :: HOMO-LUMO gap              0.000000000000 eV    ::
         :::::::::::::::::::::::::::::::::::::::::::::::::::::

      ----------------------------------------------------------- 
     |                       L-ANC optimizer                     |
      ----------------------------------------------------------- 
          low memory version by Sebastian Ehlert

          ...................................................
          :                      SETUP                      :
          :.................................................:
          :   energy convergence        0.5000000E-05 Eh    :
          :   grad. convergence         0.1000000E-02 Eh/a0 :
          :   optimization log               true           :
          :   writing optlog all                1     steps :
          :   Hessian reset                     8     steps :
          :   maximium step len.        1.0000000     a0    :
          :   LBFGS images                      8           :
          ...................................................
 * calculating model hessian...
Using Lindh-Hessian (1995)
 Shifting diagonal of input Hessian by    1.0000000000000000E-002
 Lowest  eigenvalues of input Hessian
    0.000000    0.000000    0.000000    0.000000    0.000000    0.000000
    0.015578    0.017861    0.020265    0.021705    0.023309    0.028162
    0.030468    0.032165    0.037446    0.046889    0.047531    0.055500
 Highest eigenvalues
    1.312093    1.369166    1.396657    1.434931    1.489071    1.575665


........................................................................
.............................. CYCLE    1 ..............................
........................................................................
                         * ORCA takes the control...
  ------------------------------------------------------------------------

                                 *****************
                                 * O   R   C   A *
                                 *****************

                                            #,                                       
                                            ###                                      
                                            ####                                     
                                            #####                                    
                                            ######                                   
                                           ########,                                 
                                     ,,################,,,,,                         
                               ,,#################################,,                 
                          ,,##########################################,,             
                       ,#########################################, ''#####,          
                    ,#############################################,,   '####,        
                  ,##################################################,,,,####,       
                ,###########''''           ''''###############################       
              ,#####''   ,,,,##########,,,,          '''####'''          '####       
            ,##' ,,,,###########################,,,                        '##       
           ' ,,###''''                  '''############,,,                           
         ,,##''                                '''############,,,,        ,,,,,,###''
      ,#''                                            '''#######################'''  
     '                                                          ''''####''''         
             ,#######,   #######,   ,#######,      ##                                
            ,#'     '#,  ##    ##  ,#'     '#,    #''#        ,####,   ,####,        
            ##       ##  ##   ,#'  ##            #'  '#       #'       #'  '#        
            ##       ##  #######   ##           ,######,      #####,   #    #        
            '#,     ,#'  ##    ##  '#,     ,#' ,#      #,     #,   #   #,  ,#        
             '#######'   ##     ##  '#######'  #'      '#     '####' # '####'        



                #########################################################
                #                        -***-                          #
                #          Department of theory and spectroscopy        #
                #                                                       #
                #                      Frank Neese                      #
                #                                                       #
                #     Directorship, Architecture, Infrastructure        #
                #                    SHARK, DRIVERS                     #
                #        Core code/Algorithms in most modules           #
                #                                                       #
                #        Max Planck Institute fuer Kohlenforschung      #
                #                Kaiser Wilhelm Platz 1                 #
                #                 D-45470 Muelheim/Ruhr                 #
                #                      Germany                          #
                #                                                       #
                #                  All rights reserved                  #
                #                        -***-                          #
                #########################################################


                         Program Version 6.0.1  -  RELEASE   -


 With contributions from (in alphabetic order):
[Max-Planck-Institut fuer Kohlenforschung]                               
  Daniel Aravena         : Magnetic Suceptibility                        
  Michael Atanasov       : Ab Initio Ligand Field Theory (pilot matlab implementation)
  Alexander A. Auer      : GIAO ZORA, VPT2 properties, NMR spectrum      
  Ute Becker             : All parallelization in ORCA, NUMFREQ, NUMCALC 
  Giovanni Bistoni       : ED, misc. LED, open-shell LED, HFLD           
  Martin Brehm           : Molecular dynamics                            
  Dmytro Bykov           : pre 5.0 version of the SCF Hessian            
  Marcos Casanova-Páez   : Triplet and SCS-CIS(D). UHF-(DLPNO)-IP/EA/STEOM-CCSD. UHF-CVS-IP/STEOM-CCSD   
  Vijay G. Chilkuri      : MRCI spin determinant printing, contributions to CSF-ICE 
  Pauline Colinet        : FMM embedding                                 
  Dipayan Datta          : RHF DLPNO-CCSD density                        
  Achintya Kumar Dutta   : EOM-CC, STEOM-CC                              
  Nicolas Foglia         : Exact transition moments, OPA infrastructure, MCD improvements    
  Dmitry Ganyushin       : Spin-Orbit,Spin-Spin,Magnetic field MRCI      
  Miquel Garcia-Rates    : C-PCM and meta-GGA Hessian, CCSD/C-PCM, Gaussian charge scheme 
  Tiago L. C. Gouveia    : GS-ROHF, GS-ROCIS                             
  Yang Guo               : DLPNO-NEVPT2, F12-NEVPT2, CIM, IAO-localization        
  Andreas Hansen         : Spin unrestricted coupled pair/coupled cluster methods 
  Ingolf Harden          : AUTO-CI MPn and infrastructure                
  Benjamin Helmich-Paris : MC-RPA, TRAH-(SCF,CASSCF), AVAS, COSX integrals, SCF dyn. polar. 
  Lee Huntington         : MR-EOM, pCC                                   
  Robert Izsak           : Overlap fitted RIJCOSX, COSX-SCS-MP3, EOM     
  Riya Kayal             : Wick's Theorem for AUTO-CI, AUTO-CI UHF-CCSDT 
  Emily Kempfer          : AUTO-CI, RHF CISDT and CCSDT                  
  Christian Kollmar      : KDIIS, OOCD, Brueckner-CCSD(T), CCSD density, CASPT2, CASPT2-K, improved NEVPT2 
  Axel Koslowski         : Symmetry handling                             
  Simone Kossmann        : meta-GGA functionals, TD-DFT gradient, OOMP2, (MP2 Hessian; deprecated post 5.0) 
  Lucas Lang             : DCDCAS                                        
  Marvin Lechner         : AUTO-CI (C++ implementation), FIC-MRCC        
  Spencer Leger          : CASSCF response                               
  Dagmar Lenk            : GEPOL surface, SMD, ORCA-2-JSON               
  Dimitrios Liakos       : Extrapolation schemes; Compound Job, initial MDCI parallelization 
  Dimitrios Manganas     : Further ROCIS development; embedding schemes. LFT, Crystal Embedding 
  Dimitrios Pantazis     : SARC Basis sets                               
  Anastasios Papadopoulos: AUTO-CI, single reference methods and gradients 
  Taras Petrenko         : pre 6.0 DFT Hessian and TD-DFT gradient, (ASA, deprecated), ECA, 1-Electron XAS/XES, NRVS 
  Peter Pinski           : DLPNO-MP2, DLPNO-MP2 Gradient                 
  Christoph Reimann      : Effective Core Potentials                     
  Marius Retegan         : Local ZFS, SOC                                
  Christoph Riplinger    : Optimizer, TS searches, QM/MM, DLPNO-CCSD(T), (RO)-DLPNO pert. Triples 
  Michael Roemelt        : Original ROCIS implementation                 
  Masaaki Saitow         : Open-shell DLPNO-CCSD energy and density      
  Barbara Sandhoefer     : DKH picture change effects                    
  Kantharuban Sivalingam : CASSCF convergence/infrastructure, NEVPT2 and variants, FIC-MRCI 
  Bernardo de Souza      : ESD, SOC TD-DFT                               
  Georgi L. Stoychev     : AutoAux, RI-MP2 NMR, DLPNO-MP2 response, X2C  
  Van Anh Tran           : RI-MP2 g-tensors                              
  Willem Van den Heuvel  : Paramagnetic NMR                              
  Zikuan Wang            : NOTCH, Electric field optimization            
  Frank Wennmohs         : Technical directorship and infrastructure     
  Hang Xu                : AUTO-CI-Response properties                   
                                                                         
[FACCTs GmbH]                                                            
  Markus Bursch, Miquel Garcia-Rates, Christoph Riplinger, Bernardo de Souza, Georgi L. Stoychev 
                                                                 
  APM, Basis sets (HGBS, AHGBS, def-TZVP (Ac-Lr), def2-XVPD (La-Lu)), CI-OPT, improved COSX, DLPNO-Multilevel,           
  DOCKER, DRACO, updates on ESD, GOAT, IRC, LR-CPCM, MBIS, meta-GGA TD-DFT gradient, ML-optimized integration grids, 
  MM, NACMEs, nearIR, NEB, NEB-TS, NL-DFT gradient (VV10), 2- and 3-layer-ONIOM, interface openCOSMO-RS, QMMM,   
  Crystal-QMMM, SF, symmetry and pop. for TD-DFT, r2SCAN hybrids, SOLVATOR                                   
                                                                         
[Other institutions]                                                     
  V. Asgeirsson          : NEB                                           
  Christoph Bannwarth    : sTDA-DFT, sTD-DFT, PBEh-3c, B97-3c, D3        
  Sebastian Ehlert       : rSCAN, r2SCAN, r2SCAN-3c, D4, dhf basis sets  
  Marvin Friede          : D4 for Fr, Ra, Ac-Lr                          
  Lars Goerigk           : TD-DFT with DH, B97 family of functionals     
  Stefan Grimme          : VdW corrections, initial TS optimization, DFT functionals, gCP, sTDA/sTD-DF 
  Waldemar Hujo          : DFT-NL                                        
  H. Jonsson             : NEB                                           
  Holger Kruse           : gCP                                           
  Marcel Mueller         : wB97X-3c, vDZP basis set                      
  Hagen Neugebauer       : wr2SCAN                                       
  Tobias Risthaus        : range-separated hybrid DFT                    
  Lukas Wittmann         : regularized MP2, r2SCAN double-hybrids, wr2SCAN        
                                                                         
We gratefully acknowledge several colleagues who have allowed us to      
interface, adapt or use parts of their codes:                            
  Ed Valeev, F. Pavosevic, A. Kumar             : LibInt (2-el integral package), F12 methods 
  Garnet Chan, S. Sharma, J. Yang, R. Olivares  : DMRG                   
  Ulf Ekstrom                                   : XCFun DFT Library      
  Mihaly Kallay                                 : mrcc  (arbitrary order and MRCC methods)
  Frank Weinhold                                : gennbo (NPA and NBO analysis)           
  Simon Mueller                                 : openCOSMO-RS                            
  Christopher J. Cramer and Donald G. Truhlar   : smd solvation model                     
  S Lehtola, MJT Oliveira, MAL Marques          : LibXC Library                           
  Liviu Ungur et al                             : ANISO software                          


 Your calculation uses the libint2 library for the computation of 2-el integrals
 For citations please refer to: http://libint.valeyev.net

 Your ORCA version has been built with support for libXC version: 6.2.2
 For citations please refer to: https://libxc.gitlab.io

 This ORCA versions uses:
   CBLAS   interface :  Fast vector & matrix operations
   LAPACKE interface :  Fast linear algebra routines
   SCALAPACK package :  Parallel linear algebra routines
   Shared memory     :  Shared parallel matrices
   BLAS/LAPACK       :  OpenBLAS 0.3.27  USE64BITINT DYNAMIC_ARCH NO_AFFINITY Zen SINGLE_THREADED
        Core in use  :  Zen
   Copyright (c) 2011-2014, The OpenBLAS Project




***************************************
The coordinates will be read from file: xtb_opt.xyz
***************************************


Your calculation utilizes the geometrical counterpoise correction gCP
Please cite in your paper:
H.Kruse, S. Grimme J.Chem.Phys., 136, (2012), 154101 
   

Your calculation utilizes the atom-pairwise dispersion correction
based on EEQ partial charges (D4)


================================================================================

----- Orbital basis set information -----
Your calculation utilizes the basis: def2-mTZVPP
   Stefan Grimme, Andreas Hansen, Sebastian Ehlert, and Jan-Michael Mewes 
   J. Chem. Phys. 154, 064103 (2021). DOI: 10.1063/5.0040021

----- AuxJ basis set information -----
Your calculation utilizes the auxiliary basis: def2/J
   F. Weigend, Phys. Chem. Chem. Phys. 8, 1057 (2006).

================================================================================
                                        WARNINGS
                       Please study these warnings very carefully!
================================================================================

WARNING: Old DensityContainer found on disk!
         Will remove this file - 
         If you want to keep old densities, please start your calculation with a different basename. 



WARNING: SCAN, rSCAN, or r2SCAN functional requested.
  ===> : libXC variant has now been activated.



================================================================================
                                       INPUT FILE
================================================================================
NAME = xtb_opt.inp
|  1> ! r2scan-3c def2/J RI DEFGRID2 scfconv7 ENGRAD tightSCF miniprint
|  2> * xyzfile 0 1 xtb_opt.xyz
|  3> 
|  4>                          ****END OF INPUT****
================================================================================

                     *******************************
                     * Energy+Gradient Calculation *
                     *******************************

---------------------------------
CARTESIAN COORDINATES (ANGSTROEM)
---------------------------------
  C      0.843674    1.359851   -0.618207
  C      1.571419    0.154556   -0.043968
  H      2.553571    0.054584   -0.533751
  C      0.764961   -1.119575   -0.302528
  H      1.195008   -1.940548    0.290960
  C     -0.707328   -0.931414    0.101931
  H     -1.296119   -1.778007   -0.279454
  C     -1.290340    0.361424   -0.483887
  H     -1.328363    0.317281   -1.583603
  O     -0.471310    1.477773   -0.088842
  O     -2.578618    0.580679   -0.019826
  O     -0.877084   -0.935086    1.517724
  O      0.880118   -1.366588   -1.706548
  O      1.723426    0.245304    1.387742
  H      0.825640    1.270501   -1.717035
  H      1.369390    2.288727   -0.362484
  H     -2.568116    0.329593    0.917687
  H     -0.170274   -0.368707    1.875624
  H      0.382864   -2.165473   -1.917079
  H      1.888298    1.187039    1.614776

----------------------------
CARTESIAN COORDINATES (A.U.)
----------------------------
  NO LB      ZA    FRAG     MASS         X           Y           Z
   0 C     6.0000    0    12.011    1.594312    2.569746   -1.168241
   1 C     6.0000    0    12.011    2.969552    0.292069   -0.083088
   2 H     1.0000    0     1.008    4.825550    0.103149   -1.008644
   3 C     6.0000    0    12.011    1.445567   -2.115690   -0.571695
   4 H     1.0000    0     1.008    2.258238   -3.667104    0.549834
   5 C     6.0000    0    12.011   -1.336656   -1.760117    0.192621
   6 H     1.0000    0     1.008   -2.449310   -3.359946   -0.528091
   7 C     6.0000    0    12.011   -2.438389    0.682993   -0.914414
   8 H     1.0000    0     1.008   -2.510242    0.599573   -2.992576
   9 O     8.0000    0    15.999   -0.890646    2.792587   -0.167887
  10 O     8.0000    0    15.999   -4.872882    1.097325   -0.037467
  11 O     8.0000    0    15.999   -1.657449   -1.767057    2.868082
  12 O     8.0000    0    15.999    1.663182   -2.582476   -3.224908
  13 O     8.0000    0    15.999    3.256803    0.463558    2.622453
  14 H     1.0000    0     1.008    1.560233    2.400898   -3.244725
  15 H     1.0000    0     1.008    2.587772    4.325066   -0.684995
  16 H     1.0000    0     1.008   -4.853036    0.622841    1.734178
  17 H     1.0000    0     1.008   -0.321772   -0.696755    3.544415
  18 H     1.0000    0     1.008    0.723508   -4.092150   -3.622754
  19 H     1.0000    0     1.008    3.568365    2.243178    3.051485

------------------------------------------------------------------------------
                   ___                                                        
                  /   \      - P O W E R E D   B Y -                         
                 /     \                                                     
                 |  |  |   _    _      __       _____    __    __             
                 |  |  |  | |  | |    /  \     |  _  \  |  |  /  |          
                  \  \/   | |  | |   /    \    | | | |  |  | /  /          
                 / \  \   | |__| |  /  /\  \   | |_| |  |  |/  /          
                |  |  |   |  __  | /  /__\  \  |    /   |      \           
                |  |  |   | |  | | |   __   |  |    \   |  |\   \          
                \     /   | |  | | |  |  |  |  | |\  \  |  | \   \       
                 \___/    |_|  |_| |__|  |__|  |_| \__\ |__|  \__/        
                                                                              
                      - O R C A' S   B I G   F R I E N D -                    
                                      &                                       
                       - I N T E G R A L  F E E D E R -                       
                                                                              
 v1 FN, 2020, v2 2021, v3 2022-2024                                           
------------------------------------------------------------------------------


----------------------
SHARK INTEGRAL PACKAGE
----------------------

Number of atoms                             ...     20
Number of basis functions                   ...    265
Number of shells                            ...    125
Maximum angular momentum                    ...      2
Integral batch strategy                     ... SHARK/LIBINT Hybrid
RI-J (if used) integral strategy            ... SPLIT-RIJ (Revised 2003 algorithm where possible)
Printlevel                                  ...      1
Contraction scheme used                     ... SEGMENTED contraction
Prescreening option                         ... SCHWARTZ
   Thresh                                   ... 3.000e-11
   Tcut                                     ... 1.000e-12
   Tpresel                                  ... 1.000e-12 
Coulomb Range Separation                    ... NOT USED
Exchange Range Separation                   ... NOT USED
Multipole approximations                    ... NOT USED
Finite Nucleus Model                        ... NOT USED
CABS basis                                  ... NOT available
Auxiliary Coulomb fitting basis             ... AVAILABLE
   # of basis functions in Aux-J            ...    600
   # of shells in Aux-J                     ...    200
   Maximum angular momentum in Aux-J        ...      4
Auxiliary J/K fitting basis                 ... NOT available
Auxiliary Correlation fitting basis         ... NOT available
Auxiliary 'external' fitting basis          ... NOT available

Checking pre-screening integrals            ... done (  0.0 sec) Dimension = 125
Check shell pair data                       ... done (  0.0 sec)
Shell pair information
Shell pair cut-off parameter TPreSel        ...   1.0e-12
Total number of shell pairs                 ...      7875
Shell pairs after pre-screening             ...      7233
Total number of primitive shell pairs       ...     27980
Primitive shell pairs kept                  ...     18168
          la=0 lb=0:   2194 shell pairs
          la=1 lb=0:   2573 shell pairs
          la=1 lb=1:    779 shell pairs
          la=2 lb=0:    989 shell pairs
          la=2 lb=1:    580 shell pairs
          la=2 lb=2:    118 shell pairs

Calculating one electron integrals          ... done (  0.0 sec)
Calculating RI/J V-Matrix + Cholesky decomp.... done (  0.0 sec)
Calculating Nuclear repulsion               ... done (  0.0 sec) ENN=    633.647485427662 Eh

Diagonalization of the overlap matrix:
Smallest eigenvalue                        ... 5.385e-05
Time for diagonalization                   ...    0.004 sec
Threshold for overlap eigenvalues          ... 1.000e-07
Number of eigenvalues below threshold      ... 0
Time for construction of square roots      ...    0.002 sec
Total time needed                          ...    0.007 sec

-------------------
DFT GRID GENERATION
-------------------

General Integration Accuracy     IntAcc      ... 4.388
Radial Grid Type                 RadialGrid  ... OptM3 with GC (2021)
Angular Grid (max. ang.)         AngularGrid ... 4 (Lebedev-302)
Angular grid pruning method      GridPruning ... 4 (adaptive)
Weight generation scheme         WeightScheme... mBecke (2022)
Basis function cutoff            BFCut       ... 1.0000e-11
Integration weight cutoff        WCut        ... 1.0000e-14
Partially contracted basis set               ... off
Rotationally invariant grid construction     ... off
Angular grids for H and He will be reduced by one unit
Diffuse basis detected: some atoms will have their outermost
                        angular grid increased by 1.

Total number of grid points                  ...    93404
Total number of batches                      ...     1468
Average number of points per batch           ...       63
Average number of grid points per atom       ...     4670
Initializing property integral containers    ... done (  0.0 sec)

SHARK setup successfully completed in   0.7 seconds

Maximum memory used throughout the entire STARTUP-calculation: 46.3 MB
Occupation numbers will be reassigned to an Aufbau configuration
             **** ENERGY FILE WAS UPDATED (xtb_opt.en.tmp) ****
Finished Guess after   0.1 sec
Maximum memory used throughout the entire GUESS-calculation: 21.1 MB
----------------------------------------D-I-I-S--------------------------------------------
Iteration    Energy (Eh)           Delta-E    RMSDP     MaxDP     DIISErr   Damp  Time(sec)
-------------------------------------------------------------------------------------------
               ***  Starting incremental Fock matrix formation  ***
    1    -572.5738905275454727     0.00e+00  1.38e-04  4.99e-03  2.34e-02  0.700   2.1
    2    -572.5742594184889640    -3.69e-04  1.06e-04  4.01e-03  1.72e-02  0.700   1.6
                               ***Turning on AO-DIIS***
    3    -572.5745061101833926    -2.47e-04  8.09e-05  3.06e-03  1.21e-02  0.700   1.6
    4    -572.5746746416825772    -1.69e-04  2.02e-04  7.04e-03  8.53e-03  0.000   1.6
                              *** Initializing SOSCF ***
---------------------------------------S-O-S-C-F--------------------------------------
Iteration    Energy (Eh)           Delta-E    RMSDP     MaxDP     MaxGrad    Time(sec)
--------------------------------------------------------------------------------------
    5    -572.5750775380186042    -4.03e-04  1.92e-05  7.44e-04  1.10e-03     1.7
               *** Restarting incremental Fock matrix formation ***
    6    -572.5750789161741068    -1.38e-06  9.95e-06  3.02e-04  5.56e-05     2.1
    7    -572.5750787283629961     1.88e-07  5.41e-06  1.59e-04  9.10e-05     1.5
    8    -572.5750790704646533    -3.42e-07  1.99e-06  1.10e-04  5.29e-06     1.5
                  *** Gradient check signals convergence ***

               *****************************************************
               *                     SUCCESS                       *
               *           SCF CONVERGED AFTER   8 CYCLES          *
               *****************************************************

             **** ENERGY FILE WAS UPDATED (xtb_opt.en.tmp) ****

----------------
TOTAL SCF ENERGY
----------------

Total Energy       :       -572.57507907046465 Eh          -15580.56000 eV

Components:
Nuclear Repulsion  :        633.64748542766188 Eh           17242.42467 eV
Electronic Energy  :      -1206.22256449812653 Eh          -32822.98467 eV
One Electron Energy:      -2042.35485916764628 Eh          -55575.30111 eV
Two Electron Energy:        836.13229466951975 Eh           22752.31644 eV

Virial components:
Potential Energy   :      -1142.73969699055215 Eh          -31095.52802 eV
Kinetic Energy     :        570.16461792008738 Eh           15514.96802 eV
Virial Ratio       :          2.00422765824924

DFT components:
N(Alpha)           :       40.000014195015 electrons
N(Beta)            :       40.000014195015 electrons
N(Total)           :       80.000028390030 electrons
E(X)               :      -71.013439685588 Eh       
E(C)               :       -2.659850428366 Eh       
E(XC)              :      -73.673290113954 Eh       

---------------
SCF CONVERGENCE
---------------

  Last Energy change         ...    3.4210e-07  Tolerance :   1.0000e-07
  Last MAX-Density change    ...    1.0990e-04  Tolerance :   1.0000e-07
  Last RMS-Density change    ...    1.9915e-06  Tolerance :   5.0000e-09
  Last DIIS Error            ...    1.1017e-03  Tolerance :   1.0000e-07
  Last Orbital Gradient      ...    5.2914e-06  Tolerance :   1.0000e-04
  Last Orbital Rotation      ...    9.9128e-06  Tolerance :   1.0000e-04


----------------
ORBITAL ENERGIES
----------------

  NO   OCC          E(Eh)            E(eV) 
   0   2.0000     -18.980880      -516.4960 
   1   2.0000     -18.975024      -516.3367 
   2   2.0000     -18.963100      -516.0122 
   3   2.0000     -18.959169      -515.9052 
   4   2.0000     -18.956810      -515.8410 
   5   2.0000     -10.132217      -275.7116 
   6   2.0000     -10.104211      -274.9496 
   7   2.0000     -10.103843      -274.9396 
   8   2.0000     -10.094852      -274.6949 
   9   2.0000     -10.093842      -274.6674 
  10   2.0000      -1.041233       -28.3334 
  11   2.0000      -1.012936       -27.5634 
  12   2.0000      -1.002850       -27.2889 
  13   2.0000      -0.989083       -26.9143 
  14   2.0000      -0.971488       -26.4355 
  15   2.0000      -0.754643       -20.5349 
  16   2.0000      -0.719132       -19.5686 
  17   2.0000      -0.639222       -17.3941 
  18   2.0000      -0.613389       -16.6912 
  19   2.0000      -0.557486       -15.1700 
  20   2.0000      -0.523440       -14.2435 
  21   2.0000      -0.513070       -13.9613 
  22   2.0000      -0.481439       -13.1006 
  23   2.0000      -0.465222       -12.6593 
  24   2.0000      -0.451639       -12.2897 
  25   2.0000      -0.448620       -12.2076 
  26   2.0000      -0.431605       -11.7446 
  27   2.0000      -0.411238       -11.1903 
  28   2.0000      -0.394258       -10.7283 
  29   2.0000      -0.371777       -10.1166 
  30   2.0000      -0.356939        -9.7128 
  31   2.0000      -0.346513        -9.4291 
  32   2.0000      -0.326430        -8.8826 
  33   2.0000      -0.320007        -8.7078 
  34   2.0000      -0.300075        -8.1654 
  35   2.0000      -0.276162        -7.5147 
  36   2.0000      -0.269023        -7.3205 
  37   2.0000      -0.262327        -7.1383 
  38   2.0000      -0.254177        -6.9165 
  39   2.0000      -0.224222        -6.1014 
  40   0.0000       0.019453         0.5293 
  41   0.0000       0.047498         1.2925 
  42   0.0000       0.063182         1.7193 
  43   0.0000       0.083064         2.2603 
  44   0.0000       0.096594         2.6285 
  45   0.0000       0.103956         2.8288 
  46   0.0000       0.113496         3.0884 
  47   0.0000       0.115580         3.1451 
  48   0.0000       0.130490         3.5508 
  49   0.0000       0.141673         3.8551 
  50   0.0000       0.148488         4.0406 
*Only the first 10 virtual orbitals were printed.
Total SCF time: 0 days 0 hours 0 min 13 sec 
Finished LeanSCF after  13.8 sec

Maximum memory used throughout the entire LEANSCF-calculation: 32.1 MB


-------------------------------------------------------------------------------
                          DFT DISPERSION CORRECTION                            
                                                                               
                                DFTD4 V3.4.0                                   
-------------------------------------------------------------------------------
-------------------------   ----------------
Dispersion correction           -0.006481612
-------------------------   ----------------

------------------   -----------------
gCP correction             0.016973644
------------------   -----------------

-------------------------   --------------------
FINAL SINGLE POINT ENERGY      -572.564587038852
-------------------------   --------------------

------------------------------------------------------------------------------
                         ORCA SCF GRADIENT CALCULATION
------------------------------------------------------------------------------

Nuc. rep. gradient        (SHARK) ... done (  0.0 sec)
HCore & Overlap gradient  (SHARK) ... done (  0.3 sec)
Split-RIJ-J gradient      (SHARK) ... done (  1.7 sec)
XC gradient                       ... done (  6.4 sec)
Dispersion correction             ... done (  0.0 sec)

-------------------
DISPERSION GRADIENT
-------------------

   1   C   :    0.000021650    0.000054606   -0.000029944
   2   C   :    0.000065531    0.000011004    0.000000451
   3   H   :    0.000043672    0.000002336   -0.000003051
   4   C   :    0.000028099   -0.000043059   -0.000008646
   5   H   :    0.000021575   -0.000037231    0.000003368
   6   C   :   -0.000038057   -0.000033463    0.000002848
   7   H   :   -0.000028694   -0.000032973    0.000004223
   8   C   :   -0.000032594    0.000027588   -0.000016599
   9   H   :   -0.000038576    0.000014713   -0.000016610
  10   O   :   -0.000030582    0.000065693   -0.000012019
  11   O   :   -0.000113195    0.000017478    0.000019103
  12   O   :   -0.000033325   -0.000033621    0.000084015
  13   O   :    0.000028679   -0.000087199   -0.000078839
  14   O   :    0.000085533    0.000033997    0.000070637
  15   H   :    0.000015466    0.000033018   -0.000028419
  16   H   :    0.000022448    0.000046762   -0.000005665
  17   H   :   -0.000043914    0.000012072   -0.000007499
  18   H   :   -0.000024423   -0.000025264    0.000028381
  19   H   :    0.000018432   -0.000029199   -0.000033757
  20   H   :    0.000032277    0.000002741    0.000028023

Difference to translation invariance:
           :    0.0000000000   -0.0000000000    0.0000000000

Difference to rotation invariance:
           :   -0.0000000000   -0.0000000000   -0.0000000000

Norm of the Dispersion gradient    ...    0.0003054973
RMS gradient                       ...    0.0000394395
MAX gradient                       ...    0.0001131954
gCP correction                   ... done

------------------
CARTESIAN GRADIENT
------------------

   1   C   :    0.000229659   -0.000698471    0.000580673
   2   C   :   -0.001365083    0.000300226   -0.001500263
   3   H   :    0.000450318   -0.000034921   -0.001015512
   4   C   :    0.000413776    0.000565876    0.000284881
   5   H   :   -0.000121694    0.000102324    0.000172426
   6   C   :   -0.000370610    0.000885184   -0.001019506
   7   H   :    0.000034543   -0.000202181    0.000080810
   8   C   :    0.001793828   -0.001574078   -0.000099406
   9   H   :   -0.000059395    0.000063659   -0.000177889
  10   O   :    0.000037287    0.000471461    0.000313373
  11   O   :   -0.001817605    0.000416939    0.000235158
  12   O   :   -0.001744489   -0.001430991   -0.000077792
  13   O   :    0.000470967   -0.000022622   -0.000091480
  14   O   :   -0.001766985   -0.015984026   -0.001511744
  15   H   :    0.000119695   -0.000106282   -0.000232979
  16   H   :    0.000197356    0.000176993    0.000050803
  17   H   :    0.000085096   -0.000271352   -0.000079640
  18   H   :    0.001434094    0.001430047    0.000711409
  19   H   :   -0.000704159   -0.000341207   -0.000535137
  20   H   :    0.002683400    0.016253420    0.003911815

[...]
ORBITAL ENERGIES
----------------

  NO   OCC          E(Eh)            E(eV) 
   0   2.0000     -18.979865      -516.4684 
   1   2.0000     -18.974993      -516.3358 
   2   2.0000     -18.961856      -515.9783 
   3   2.0000     -18.957832      -515.8688 
   4   2.0000     -18.955678      -515.8102 
   5   2.0000     -10.130981      -275.6780 
   6   2.0000     -10.104006      -274.9440 
   7   2.0000     -10.103658      -274.9345 
   8   2.0000     -10.093595      -274.6607 
   9   2.0000     -10.092961      -274.6434 
  10   2.0000      -1.041341       -28.3363 
  11   2.0000      -1.014940       -27.6179 
  12   2.0000      -1.005584       -27.3633 
  13   2.0000      -0.988960       -26.9110 
  14   2.0000      -0.971007       -26.4225 
  15   2.0000      -0.754874       -20.5412 
  16   2.0000      -0.717930       -19.5359 
  17   2.0000      -0.638530       -17.3753 
  18   2.0000      -0.612890       -16.6776 
  19   2.0000      -0.558829       -15.2065 
  20   2.0000      -0.524325       -14.2676 
  21   2.0000      -0.512670       -13.9505 
  22   2.0000      -0.481836       -13.1114 
  23   2.0000      -0.464454       -12.6384 
  24   2.0000      -0.451779       -12.2935 
  25   2.0000      -0.447636       -12.1808 
  26   2.0000      -0.433996       -11.8096 
  27   2.0000      -0.411457       -11.1963 
  28   2.0000      -0.393759       -10.7147 
  29   2.0000      -0.371701       -10.1145 
  30   2.0000      -0.354743        -9.6531 
  31   2.0000      -0.347535        -9.4569 
  32   2.0000      -0.326202        -8.8764 
  33   2.0000      -0.319122        -8.6838 
  34   2.0000      -0.299267        -8.1435 
  35   2.0000      -0.275749        -7.5035 
  36   2.0000      -0.269048        -7.3212 
  37   2.0000      -0.262087        -7.1318 
  38   2.0000      -0.253344        -6.8938 
  39   2.0000      -0.222842        -6.0639 
  40   0.0000       0.020937         0.5697 
  41   0.0000       0.049253         1.3402 
  42   0.0000       0.065812         1.7908 
  43   0.0000       0.084498         2.2993 
  44   0.0000       0.098207         2.6724 
  45   0.0000       0.105767         2.8781 
  46   0.0000       0.113892         3.0992 
  47   0.0000       0.116954         3.1825 
  48   0.0000       0.130714         3.5569 
  49   0.0000       0.142871         3.8877 
  50   0.0000       0.149987         4.0814 
*Only the first 10 virtual orbitals were printed.
Total SCF time: 0 days 0 hours 0 min 4 sec 
Finished LeanSCF after   4.4 sec

Maximum memory used throughout the entire LEANSCF-calculation: 32.1 MB


-------------------------------------------------------------------------------
                          DFT DISPERSION CORRECTION                            
                                                                               
                                DFTD4 V3.4.0                                   
-------------------------------------------------------------------------------
-------------------------   ----------------
Dispersion correction           -0.006483719
-------------------------   ----------------

------------------   -----------------
gCP correction             0.017016222
------------------   -----------------

-------------------------   --------------------
FINAL SINGLE POINT ENERGY      -572.565011445913
-------------------------   --------------------

------------------------------------------------------------------------------
                         ORCA SCF GRADIENT CALCULATION
------------------------------------------------------------------------------

Nuc. rep. gradient        (SHARK) ... done (  0.0 sec)
HCore & Overlap gradient  (SHARK) ... done (  0.3 sec)
Split-RIJ-J gradient      (SHARK) ... done (  1.7 sec)
XC gradient                       ... done (  6.3 sec)
Dispersion correction             ... done (  0.0 sec)

-------------------
DISPERSION GRADIENT
-------------------

   1   C   :    0.000022325    0.000054622   -0.000030241
   2   C   :    0.000065145    0.000011074    0.000000158
   3   H   :    0.000043823    0.000002505   -0.000002647
   4   C   :    0.000028288   -0.000043047   -0.000008671
   5   H   :    0.000021517   -0.000037289    0.000003186
   6   C   :   -0.000038084   -0.000032773    0.000002725
   7   H   :   -0.000028830   -0.000033048    0.000003994
   8   C   :   -0.000033160    0.000027047   -0.000016594
   9   H   :   -0.000038836    0.000014836   -0.000016494
  10   O   :   -0.000030382    0.000065919   -0.000012535
  11   O   :   -0.000113238    0.000018012    0.000019936
  12   O   :   -0.000033081   -0.000034498    0.000084029
  13   O   :    0.000030176   -0.000087160   -0.000079008
  14   O   :    0.000085157    0.000032100    0.000071398
  15   H   :    0.000015485    0.000032606   -0.000028657
  16   H   :    0.000022513    0.000046768   -0.000005969
  17   H   :   -0.000044319    0.000011971   -0.000007348
  18   H   :   -0.000024042   -0.000024911    0.000028259
  19   H   :    0.000017747   -0.000028972   -0.000033833
  20   H   :    0.000031794    0.000004237    0.000028310

Difference to translation invariance:
           :   -0.0000000000    0.0000000000    0.0000000000

Difference to rotation invariance:
           :    0.0000000000   -0.0000000000   -0.0000000000

Norm of the Dispersion gradient    ...    0.0003057020
RMS gradient                       ...    0.0000394660
MAX gradient                       ...    0.0001132375
gCP correction                   ... done

------------------
CARTESIAN GRADIENT
------------------

   1   C   :   -0.000083581    0.000052514   -0.000027361
   2   C   :    0.000166436   -0.000104490    0.000197718
   3   H   :    0.000014103    0.000047268    0.000025768
   4   C   :   -0.000022592    0.000020601   -0.000063959
   5   H   :    0.000041609   -0.000008777   -0.000015501
   6   C   :    0.000026473   -0.000206159    0.000190705
   7   H   :   -0.000007794   -0.000019127   -0.000022777
   8   C   :   -0.000150415    0.000187551    0.000010173
   9   H   :   -0.000009613   -0.000041779   -0.000007032
  10   O   :   -0.000057563    0.000007300   -0.000015498
  11   O   :    0.000176104   -0.000093790    0.000016947
  12   O   :   -0.000014440    0.000018455   -0.000147485
  13   O   :    0.000226140    0.000262104    0.000100233
  14   O   :   -0.000158124    0.000077674   -0.000263521
  15   H   :   -0.000009047   -0.000008241    0.000012641
  16   H   :   -0.000012131    0.000008171   -0.000004503
  17   H   :   -0.000002906    0.000044778    0.000002868
  18   H   :    0.000062758   -0.000029596    0.000008631
  19   H   :   -0.000255357   -0.000185475   -0.000037046
  20   H   :    0.000069939   -0.000028986    0.000039000

Difference to translation invariance:
           :   -0.0000000000   -0.0000000000   -0.0000000000

Difference to rotation invariance:
           :    0.0002337532    0.0005671240    0.0005329157

Norm of the Cartesian gradient     ...    0.0008066838
RMS gradient                       ...    0.0001041424
MAX gradient                       ...    0.0002635210

-------
TIMINGS
-------

Total SCF gradient time     ....        8.245 sec

Densities                   ....       0.001 sec  (  0.0%)
One electron gradient       ....       0.284 sec  (  3.4%)
RI-J Coulomb gradient       ....       1.663 sec  ( 20.2%)
XC gradient                 ....       6.278 sec  ( 76.1%)

Maximum memory used throughout the entire SCFGRAD-calculation: 41.4 MB

------------------------------------------------------------------------------
                              ORCA PROPERTY CALCULATIONS
------------------------------------------------------------------------------

GBWName                                 ... xtb_opt.gbw
Number of atoms                         ...     20
Number of basis functions               ...    265
Max core memory                         ...   1024 MB

Electric properties:
Dipole moment                           ... YES
Quadrupole moment                       ...  NO
Static polarizability (Dipole/Dipole)   ...  NO
Static polarizability (Dipole/Quad.)    ...  NO
Static polarizability (Quad./Quad.)     ...  NO
Static polarizability (Velocity)        ...  NO

Atomic electric properties:
Dipole moment                           ...  NO
Quadrupole moment                       ...  NO
Static polarizability                   ...  NO

Choice of electric origin               ... Center of mass
Position of electric origin             ...    -0.060211    -0.028744    -0.006730

General magnetic properties:
Magnetizability                         ...  NO

EPR properties:
g-Tensor (aka g-matrix)                 ...  NO
Zero-Field splitting spin-orbit         ...  NO
Zero-field splitting spin-spin          ...  NO
Hyperfine couplings                     ...  NO (   0 nuclei)
Quadrupole couplings                    ...  NO (   0 nuclei)
Contact density                         ...  NO (   0 nuclei)

NMR properties:
Chemical shifts                         ...  NO (   0 nuclei)
Spin-rotation constants                 ...  NO (   0 nuclei)
Spin-spin couplings                     ...  NO (   0 nuclei,    0 pairs)

Choice of magnetic origin               ... GIAO
Position of magnetic origin             ...     0.000000     0.000000     0.000000

Properties with geometric perturbations:
SCF Hessian                             ...  NO
IR spectrum                             ...  NO
VCD spectrum                            ...  NO
X-ray spectroscopy properties:
SCF XES/XAS/RIXS spectra                ...  NO


-------------
DIPOLE MOMENT
-------------

Method             : SCF
Type of density    : Electron Density
Multiplicity       :   1
Irrep              :   0
Energy             :  -572.5755439493702852 Eh
Relativity type    : 
Basis              : AO
                                X                 Y                 Z
Electronic contribution:     -1.990398570       0.408570552       1.285968679
Nuclear contribution   :      3.003658503      -0.650934830      -1.531067463
                        -----------------------------------------
Total Dipole Moment    :      1.013259933      -0.242364278      -0.245098784
                        -----------------------------------------
Magnitude (a.u.)       :      1.070284798
Magnitude (Debye)      :      2.720447760



--------------------
Rotational spectrum 
--------------------
 
Rotational constants in cm-1:             0.057989             0.040588             0.038714 
Rotational constants in MHz :          1738.470567          1216.807619          1160.607587 

Dipole components along the rotational axes: 
x,y,z [a.u.] :    -1.058321    -0.118499    -0.106888 
x,y,z [Debye]:    -2.690037    -0.301200    -0.271687 

 

Dipole moment calculation done in   0.0 sec 

Maximum memory used throughout the entire PROP-calculation: 20.1 MB

--------------------------------
SUGGESTED CITATIONS FOR THIS RUN
--------------------------------

Below you find a list of papers that are relevant to this ORCA run
We neither can nor want to force you to cite these papers, but we appreciate if you do
You receive ORCA, which is the product of decades of hard work by many enthusiastic individuals, for free
The only thing we kindly ask in return is that you cite our papers,
We deeply appreciate it, if you show your appreciation for ORCA by not just citing the generic ORCA reference.

Please note that relegating all ORCA citations to the supporting information does *not* help us.
SI sections are not indexed - citations you put there will not count into any citation statistics
But we need these citations in order to attract the funding resources that allow us to do what we are doing

Therefore, if you are a happy ORCA user, please consider citing a few of the papers listed below in the main body of your paper

In addition to the list printed below, the program has created the file xtb_opt.bibtex that contains the list in bibtex format
You can import this file easily into all common literature databanks and citation aid programs


List of essential papers. We consider these as the minimum necessary citations

  1. Neese,F.
     Software update: the ORCA program system, version 5.0
     WIRES Comput. Molec. Sci., 2022 12(1)e1606
     doi.org/10.1002/wcms.1606
  2. Grimme,S.; Hansen,A.; Ehlert,S.; Mewes,J.
     r2SCAN-3c: A 'Swiss army knife' composite electronic-structure method
     J. Chem. Phys., 2021 154 064103
     doi.org/10.1063/5.0040021

List of papers to cite with high priority. The work reported in these papers was absolutely
necessary for this run to complete.
Our perspective: the developers of density functionals and basis sets usually get cited in chemistry papers
Good! But without the algorithms to do something with them, the functionals or basis sets would not do anything.
Hence, in our opinion, the algorithm design and method developments papers are equally worthy of getting cited

  1. Neese,F.
     An improvement of the resolution of the identity approximation for the formation of the Coulomb matrix
     J. Comp. Chem., 2003 24(14)1740-1747
     doi.org/10.1002/jcc.10318
  2. Neese,F.
     The SHARK Integral Generation and Digestion System
     J. Comp. Chem., 2022  1-16
     doi.org/10.1002/jcc.26942
  3. Lehtola,S.; Steigemann,C.; Oliveira,M.; Marques,M.
     Recent developments in Libxc - A comprehensive library of functionals for density functional theory
     Software X, 2018 7 
     doi.org/10.1016/j.softx.2017.11.002
  4. Caldeweyher,E.; Bannwarth,C.; Grimme,S.
     Extension of the D3 dispersion coefficient model
     J. Chem. Phys., 2017 147 034112
     doi.org/10.1063/1.4993215
  5. Caldeweyher,E.; Ehlert,S.; Hansen,A.; Neugebauer,H.; Spicher,S.; Bannwarth,C.; Grimme,S.
     A generally applicable atomic-charge dependent London dispersion correction
     J. Chem. Phys., 2019 150 154122
     doi.org/10.1063/1.5090222
  6. Caldeweyher,E.; Mewes,J.; Ehlert,S.; Grimme,S.
     Extension and evaluation of the D4 London-dispersion model for periodic systems
     Phys. Chem. Chem. Phys., 2020 22(16)8499-8512
     doi.org/10.1039/D0CP00502A
  7. Wittmann,L.; Gordiy,I.; Friede,M.; Helmich-Paris,B.; Grimme,S.; Hansen,A.; Bursch,M.
     Extension of the D3 and D4 London Dispersion Corrections to the full Actinides Series
     Phys. Chem. Chem. Phys., 2024 26(32)21379-21394
     doi.org/https://doi.org/10.1039/D4CP01514B 

List of suggested additional citations. These are papers that are important in the 'surrounding' of 
of this run, or papers that preceded the highly important papers. If you like your results we are grateful for a citation.

  1. Neese,F.
     The ORCA program system
     WIRES Comput. Molec. Sci., 2012 2(1)73-78
     doi.org/10.1002/wcms.81
  2. Neese,F.
     Software update: the ORCA program system, version 4.0
     WIRES Comput. Molec. Sci., 2018 8(1)1-6
     doi.org/10.1002/wcms.1327
  3. Neese,F.; Wennmohs,F.; Becker,U.; Riplinger,C.
     The ORCA quantum chemistry program package
     J. Chem. Phys., 2020 152 Art. No. L224108
     doi.org/10.1063/5.0004608

List of optional additional citations

  1. Neese,F.
     Approximate second-order SCF convergence for spin unrestricted wavefunctions
     Chem. Phys. Lett., 2000 325(1-3)93-98
     doi.org/10.1016/s0009-2614(00)00662-x

Timings for individual modules:

Sum of individual times          ...       13.525 sec (=   0.225 min)
Startup calculation              ...        0.704 sec (=   0.012 min)   5.2 %
SCF iterations                   ...        4.484 sec (=   0.075 min)  33.2 %
Property calculations            ...        0.046 sec (=   0.001 min)   0.3 %
SCF Gradient evaluation          ...        8.291 sec (=   0.138 min)  61.3 %
                             ****ORCA TERMINATED NORMALLY****
TOTAL RUN TIME: 0 days 0 hours 0 minutes 13 seconds 592 msec
  ------------------------------------------------------------------------
          * successful ORCA run, taking over control again...

         :::::::::::::::::::::::::::::::::::::::::::::::::::::
         ::                  ORCA SUMMARY                   ::
         :::::::::::::::::::::::::::::::::::::::::::::::::::::
         :: total energy            -572.565011445913 Eh    ::
         :: gradient norm              0.000806683752 Eh/a0 ::
         :: HOMO-LUMO gap              0.000000000000 eV    ::
         :::::::::::::::::::::::::::::::::::::::::::::::::::::

           -------------------------------------------------
          |                Property Printout                |
           -------------------------------------------------
           -------------------------------------------------
          |                Geometry Summary                 |
           -------------------------------------------------

      molecular mass/u    :      150.1301116
   center of mass at/Å    :       -0.0318689      -0.0152098      -0.0035552
  moments of inertia/u·Å² :        0.2907047E+03   0.4153352E+03   0.4354461E+03
rotational constants/cm⁻¹ :        0.5798885E-01   0.4058802E-01   0.3871347E-01

 * 20 selected distances

     #   Z          #   Z                                           value/Å
     1   6          2   6                                         1.5229185
     2   6          3   1                                         1.1005972
     2   6          4   6                                         1.5300465
     4   6          5   1                                         1.1005709
     4   6          6   6                                         1.5384998 (max)
     6   6          7   1                                         1.0991836
     6   6          8   6                                         1.5384534
     8   6          9   1                                         1.1010225
     1   6         10   8                                         1.4217772
     8   6         10   8                                         1.4387231
     8   6         11   8                                         1.3837286
     6   6         12   8                                         1.4243804
     4   6         13   8                                         1.4293631
     2   6         14   8                                         1.4376958
     1   6         15   1                                         1.1020177
     1   6         16   1                                         1.0970627
    11   8         17   1                                         0.9706287
    12   8         18   1                                         0.9716614
    13   8         19   1                                         0.9636622 (min)
    14   8         20   1                                         0.9642273

 * 4 distinct bonds (by element types)

   Z      Z             #   av. dist./Å        max./Å        min./Å
   1 H    6 C           6     1.1000757     1.1020177     1.0970627
   6 C    6 C           4     1.5324795     1.5384998     1.5229185
   1 H    8 O           4     0.9675449     0.9716614     0.9636622
   6 C    8 O           6     1.4226114     1.4387231     1.3837286


optimized geometry written to: xtbopt.coord


           -------------------------------------------------
          | TOTAL ENERGY             -572.565011445913 Eh   |
          | GRADIENT NORM               0.000806683752 Eh/α |
           -------------------------------------------------

------------------------------------------------------------------------
 * finished run on 2025/04/09 at 02:36:28.620     
------------------------------------------------------------------------
 total:
 * wall-time:     0 d,  0 h,  2 min, 24.087 sec
 *  cpu-time:     0 d,  0 h,  0 min,  0.366 sec
 * ratio c/w:     0.003 speedup
 SCF:
 * wall-time:     0 d,  0 h,  0 min, 13.393 sec
 *  cpu-time:     0 d,  0 h,  0 min,  0.070 sec
 * ratio c/w:     0.005 speedup
 ANC optimizer:
 * wall-time:     0 d,  0 h,  2 min, 10.655 sec
 *  cpu-time:     0 d,  0 h,  0 min,  0.012 sec
 * ratio c/w:     0.000 speedup

