      -----------------------------------------------------------      
     |                   =====================                   |     
     |                           x T B                           |     
     |                   =====================                   |     
     |                         S. Grimme                         |     
     |          Mulliken Center for Theoretical Chemistry        |     
     |                    University of Bonn                     |     
      -----------------------------------------------------------      

   * xtb version 6.7.1 (41059b4) compiled by 'michael@archlinux' on 2025-03-24

   xtb is free software: you can redistribute it and/or modify it under
   the terms of the GNU Lesser General Public License as published by
   the Free Software Foundation, either version 3 of the License, or
   (at your option) any later version.
   
   xtb is distributed in the hope that it will be useful,
   but WITHOUT ANY WARRANTY; without even the implied warranty of
   MERCHANTABILITY or FITNESS FOR A PARTICULAR PURPOSE.  See the
   GNU Lesser General Public License for more details.
   
   Cite this work as:
   * C. Bannwarth, E. Caldeweyher, S. Ehlert, A. Hansen, P. Pracht,
     J. Seibert, S. Spicher, S. Grimme, WIREs Comput. Mol. Sci., 2020, 11,
     e01493. DOI: 10.1002/wcms.1493
   
   for GFN2-xTB:
   * C. Bannwarth, S. Ehlert and S. Grimme., J. Chem. Theory Comput., 2019,
     15, 1652-1671. DOI: 10.1021/acs.jctc.8b01176
   for GFN1-xTB:
   * S. Grimme, C. Bannwarth, P. Shushkov, J. Chem. Theory Comput., 2017,
     13, 1989-2009. DOI: 10.1021/acs.jctc.7b00118
   for GFN0-xTB:
   * P. Pracht, E. Caldeweyher, S. Ehlert, S. Grimme, ChemRxiv, 2019, preprint.
     DOI: 10.26434/chemrxiv.8326202.v1
   for GFN-FF:
   * S. Spicher and S. Grimme, Angew. Chem. Int. Ed., 2020, 59, 15665-15673.
     DOI: 10.1002/anie.202004239
   
   for ALPB and GBSA implicit solvation:
   * S. Ehlert, M. Stahn, S. Spicher, S. Grimme, J. Chem. Theory Comput.,
     2021, 17, 4250-4261. DOI: 10.1021/acs.jctc.1c00471
   
   for ddCOSMO and CPCM-X implicit solvation:
   * M. Stahn, S. Ehlert, S. Grimme, J. Phys. Chem. A,
     2023, XX, XXXX-XXXX. DOI: 10.1021/acs.jpca.3c04382
   
   for DFT-D4:
   * E. Caldeweyher, C. Bannwarth and S. Grimme, J. Chem. Phys., 2017,
     147, 034112. DOI: 10.1063/1.4993215
   * E. Caldeweyher, S. Ehlert, A. Hansen, H. Neugebauer, S. Spicher,
     C. Bannwarth and S. Grimme, J. Chem. Phys., 2019, 150, 154122.
     DOI: 10.1063/1.5090222
   * E. Caldeweyher, J.-M. Mewes, S. Ehlert and S. Grimme, Phys. Chem. Chem. Phys.
     2020, 22, 8499-8512. DOI: 10.1039/D0CP00502A
   
   for sTDA-xTB:
   * S. Grimme and C. Bannwarth, J. Chem. Phys., 2016, 145, 054103.
     DOI: 10.1063/1.4959605
   
   in the mass-spec context:
   * V. Asgeirsson, C. Bauer and S. Grimme, Chem. Sci., 2017, 8, 4879.
     DOI: 10.1039/c7sc00601b
   * J. Koopman and S. Grimme, ACS Omega 2019, 4, 12, 15120-15133.
     DOI: 10.1021/acsomega.9b02011
   
   for metadynamics refer to:
   * S. Grimme, J. Chem. Theory Comput., 2019, 155, 2847-2862
     DOI: 10.1021/acs.jctc.9b00143
   
   for SPH calculations refer to:
   * S. Spicher and S. Grimme, J. Chem. Theory Comput., 2021, 17, 1701-1714
     DOI: 10.1021/acs.jctc.0c01306
   
   for ONIOM refer to:
   * C. Plett, A. Katbashev, S. Ehlert, S. Grimme, M. Bursch,
     Phys. Chem. Chem. Phys., 2023, 25, 17860-17868. DOI: 10.1039/D3CP02178E
   
   for DIPRO refer to:
   * J. Kohn, N. Gildemeister, S. Grimme, D. Fazzi, A. Hansen,
     J. Chem. Phys., 2023, just accepted.
   
   for PTB refer to:
   * S. Grimme, M. Mueller, A. Hansen, J. Chem. Phys., 2023, 158, 124111.
     DOI: 10.1063/5.0137838
   
   with help from (in alphabetical order)
   P. Atkinson, C. Bannwarth, F. Bohle, G. Brandenburg, E. Caldeweyher
   M. Checinski, S. Dohm, S. Ehlert, S. Ehrlich, I. Gerasimov, C. Hölzer
   A. Katbashev, J. Kohn, J. Koopman, C. Lavigne, S. Lehtola, F. März, M. Müller,
   F. Musil, H. Neugebauer, J. Pisarek, C. Plett, P. Pracht, F. Pultar,
   J. Seibert, P. Shushkov, S. Spicher, M. Stahn, M. Steiner, T. Strunk,
   J. Stückrath, T. Rose, and J. Unsleber
   
 * started run on 2025/04/09 at 02:30:15.384     
   ID    Z sym.   atoms
    1    6 C      1, 2, 4, 6, 8
    2    1 H      3, 5, 7, 9, 15-20
    3    8 O      10-14

           -------------------------------------------------
          |                Calculation Setup                |
           -------------------------------------------------

          program call               : /usr/bin/xtb xtb_rrho.coord --gfn2 --bhess vtight --chrg 0 --enso --norestart -I rrho-xcontrol-inp --parallel 1
          coordinate file            : xtb_rrho.coord
          omp threads                :                     1


           -------------------------------------------------
          |                 G F N 2 - x T B                 |
           -------------------------------------------------

        Reference                      10.1021/acs.jctc.8b01176
      * Hamiltonian:
        H0-scaling (s, p, d)           1.850000    2.230000    2.230000
        zeta-weighting                 0.500000
      * Dispersion:
        s8                             2.700000
        a1                             0.520000
        a2                             5.000000
        s9                             5.000000
      * Repulsion:
        kExp                           1.500000    1.000000
        rExp                           1.000000
      * Coulomb:
        alpha                          2.000000
        third order                    shell-resolved
        anisotropic                    true
        a3                             3.000000
        a5                             4.000000
        cn-shift                       1.200000
        cn-exp                         4.000000
        max-rad                        5.000000


          ...................................................
          :                      SETUP                      :
          :.................................................:
          :  # basis functions                  50          :
          :  # atomic orbitals                  50          :
          :  # shells                           30          :
          :  # electrons                        60          :
          :  max. iterations                   250          :
          :  Hamiltonian                  GFN2-xTB          :
          :  restarted?                      false          :
          :  GBSA solvation                  false          :
          :  PC potential                    false          :
          :  electronic temp.          300.0000000     K    :
          :  accuracy                    1.0000000          :
          :  -> integral cutoff          0.2500000E+02      :
          :  -> integral neglect         0.1000000E-07      :
          :  -> SCF convergence          0.1000000E-05 Eh   :
          :  -> wf. convergence          0.1000000E-03 e    :
          :  Broyden damping             0.4000000          :
          :  net charge                          0          :
          :  unpaired electrons                  0          :
          ...................................................

 iter      E             dE          RMSdq      gap      omega  full diag
   1    -36.3476016 -0.363476E+02  0.464E+00   10.10       0.0  T
   2    -36.3786578 -0.310561E-01  0.254E+00    9.93       1.0  T
   3    -36.3796219 -0.964149E-03  0.738E-01    9.98       1.0  T
   4    -36.3805038 -0.881832E-03  0.144E-01    9.98       1.0  T
   5    -36.3805541 -0.503491E-04  0.549E-02   10.00       1.0  T
   6    -36.3805651 -0.110319E-04  0.195E-02   10.00       1.1  T
   7    -36.3805658 -0.635903E-06  0.638E-03   10.00       3.5  T
   8    -36.3805661 -0.300066E-06  0.172E-03   10.00      13.0  T
   9    -36.3805661 -0.357321E-08  0.595E-04   10.00      37.6  T
  10    -36.3805661 -0.157529E-08  0.272E-04   10.00      82.1  T

   *** convergence criteria satisfied after 10 iterations ***

         #    Occupation            Energy/Eh            Energy/eV
      -------------------------------------------------------------
         1        2.0000           -0.7174799             -19.5236
       ...           ...                  ...                  ...
        24        2.0000           -0.4758838             -12.9495
        25        2.0000           -0.4698622             -12.7856
        26        2.0000           -0.4622412             -12.5782
        27        2.0000           -0.4391128             -11.9489
        28        2.0000           -0.4305005             -11.7145
        29        2.0000           -0.4226216             -11.5001
        30        2.0000           -0.4144756             -11.2785 (HOMO)
        31                         -0.0468726              -1.2755 (LUMO)
        32                         -0.0024638              -0.0670
        33                          0.0045731               0.1244
        34                          0.0357289               0.9722
        35                          0.0485005               1.3198
       ...                                ...                  ...
        50                          0.2829896               7.7005
      -------------------------------------------------------------
                  HL-Gap            0.3676030 Eh           10.0030 eV
             Fermi-level           -0.2306741 Eh           -6.2770 eV

 SCC (total)                   0 d,  0 h,  0 min,  0.016 sec
 SCC setup                      ...        0 min,  0.000 sec (  0.633%)
 Dispersion                     ...        0 min,  0.000 sec (  0.805%)
 classical contributions        ...        0 min,  0.000 sec (  0.207%)
 integral evaluation            ...        0 min,  0.003 sec ( 15.788%)
 iterations                     ...        0 min,  0.007 sec ( 41.239%)
 molecular gradient             ...        0 min,  0.006 sec ( 40.615%)
 printout                       ...        0 min,  0.000 sec (  0.650%)

         :::::::::::::::::::::::::::::::::::::::::::::::::::::
         ::                     SUMMARY                     ::
         :::::::::::::::::::::::::::::::::::::::::::::::::::::
         :: total energy             -36.128444721362 Eh    ::
         :: gradient norm              0.040041551075 Eh/a0 ::
         :: HOMO-LUMO gap             10.002986329170 eV    ::
         ::.................................................::
         :: SCC energy               -36.380486417215 Eh    ::
         :: -> isotropic ES            0.115810255049 Eh    ::
         :: -> anisotropic ES         -0.001825972957 Eh    ::
         :: -> anisotropic XC         -0.007047084446 Eh    ::
         :: -> dispersion             -0.014846252175 Eh    ::
         :: repulsion energy           0.252041695853 Eh    ::
         :: add. restraining           0.000000000000 Eh    ::
         :: total charge              -0.000000000000 e     ::
         :::::::::::::::::::::::::::::::::::::::::::::::::::::

metadynamics with 1 initial structures loaded
           -------------------------------------------------
          |           Optimal kpush determination           |
           -------------------------------------------------
      ----------------------------------------------------------- 
     |                   =====================                   |
     |                        A N C O P T                        |
     |                   =====================                   |
     |               Approximate Normal Coordinate               |
     |                Rational Function Optimizer                |
      ----------------------------------------------------------- 
target rmsd / Å         0.100000
unbiased initial rmsd   0.059060

iter. min.        max.        rmsd       kpush
final kpush: -0.000000
           -------------------------------------------------
          |            Biased Numerical Hessian             |
           -------------------------------------------------
kpush                :  -0.00000
alpha                :   1.00000
step length          :   0.00500
SCC accuracy         :   0.30000
Hessian scale factor :   1.00000
frozen atoms in %    :   0.00000    0
RMS gradient         :   0.00011
estimated CPU  time      0.02 min
estimated wall time      0.02 min

writing file <hessian>, containing the non-mass-weighted Hessian matrix in atomic units (Eₕ/Bohr²).

writing file <hessian_sph>.

 projected vibrational frequencies (cm⁻¹)
eigval :       -0.00    -0.00    -0.00     0.00     0.00     0.00
eigval :       95.06   104.70   188.01   218.64   225.90   248.88
eigval :      258.27   340.82   358.08   369.66   381.63   411.40
eigval :      434.01   489.52   520.13   528.51   584.93   745.40
eigval :      897.18   903.51   969.53  1017.07  1042.61  1061.41
eigval :     1086.67  1093.40  1108.25  1114.74  1140.40  1159.12
eigval :     1190.33  1204.99  1224.76  1229.21  1243.39  1280.98
eigval :     1292.54  1298.88  1314.90  1320.70  1334.50  1346.80
eigval :     1353.98  1457.02  2870.38  2883.30  2886.38  2897.88
eigval :     2937.41  3002.15  3495.42  3520.53  3549.00  3552.61
           -------------------------------------------------
          |                Property Printout                |
           -------------------------------------------------

    * Orbital Energies and Occupations

         #    Occupation            Energy/Eh            Energy/eV
      -------------------------------------------------------------
         1        2.0000           -0.7200178             -19.5927
       ...           ...                  ...                  ...
        18        2.0000           -0.5390396             -14.6680
        19        2.0000           -0.5353453             -14.5675
        20        2.0000           -0.5193832             -14.1331
        21        2.0000           -0.5127782             -13.9534
        22        2.0000           -0.5008120             -13.6278
        23        2.0000           -0.4918912             -13.3850
        24        2.0000           -0.4745375             -12.9128
        25        2.0000           -0.4674202             -12.7192
        26        2.0000           -0.4613281             -12.5534
        27        2.0000           -0.4351327             -11.8406
        28        2.0000           -0.4274809             -11.6323
        29        2.0000           -0.4203368             -11.4379
        30        2.0000           -0.4120054             -11.2112 (HOMO)
        31                         -0.0265361              -0.7221 (LUMO)
        32                          0.0136604               0.3717
        33                          0.0198381               0.5398
        34                          0.0492793               1.3410
        35                          0.0589476               1.6040
        36                          0.0651915               1.7740
        37                          0.0803270               2.1858
        38                          0.0953777               2.5954
        39                          0.1087149               2.9583
        40                          0.1310768               3.5668
        41                          0.1402035               3.8151
       ...                                ...                  ...
        50                          0.2888200               7.8592
      -------------------------------------------------------------
                  HL-Gap            0.3854694 Eh           10.4892 eV
             Fermi-level           -0.2192708 Eh           -5.9667 eV

     #   Z          covCN         q      C6AA      α(0)
     1   6          3.710     0.063    19.651     6.335
     2   6          3.726     0.093    19.146     6.248
     3   1          0.923     0.030     2.591     2.517
     4   6          3.730     0.094    19.122     6.242
     5   1          0.923     0.040     2.444     2.445
     6   6          3.727     0.088    19.214     6.258
     7   1          0.923     0.032     2.564     2.504
     8   6          3.635     0.237    17.252     5.977
     9   1          0.923     0.044     2.392     2.419
    10   8          1.702    -0.307    19.116     5.903
    11   8          1.656    -0.447    21.778     6.300
    12   8          1.656    -0.448    21.802     6.303
    13   8          1.655    -0.456    21.960     6.326
    14   8          1.656    -0.443    21.705     6.289
    15   1          0.925     0.075     2.032     2.229
    16   1          0.924     0.066     2.136     2.285
    17   1          0.805     0.322     0.658     1.274
    18   1          0.805     0.318     0.670     1.286
    19   1          0.805     0.299     0.723     1.336
    20   1          0.805     0.300     0.720     1.333

 Mol. C6AA /au·bohr⁶  :       3267.042648
 Mol. C8AA /au·bohr⁸  :      69361.419984
 Mol. α(0) /au        :         81.809710


Wiberg/Mayer (AO) data.
largest (>0.10) Wiberg bond orders for each atom

 ---------------------------------------------------------------------------
     #   Z sym  total        # sym  WBO       # sym  WBO       # sym  WBO
 ---------------------------------------------------------------------------
     1   6      3.943 --     2      0.979    10      0.976    15      0.968
                            16      0.966
     2   6      3.957 --    14      0.993     1      0.979     3      0.963
                             4      0.963
     3   1      0.999 --     2      0.963
     4   6      3.954 --    13      0.984     6      0.973     2      0.963
                             5      0.958
     5   1      0.998 --     4      0.958
     6   6      3.960 --    12      0.998     4      0.973     7      0.959
                             8      0.950
     7   1      0.999 --     6      0.959
     8   6      3.940 --    10      1.000    11      0.994     6      0.950
                             9      0.948
     9   1      0.998 --     8      0.948
    10   8      2.103 --     8      1.000     1      0.976
    11   8      1.964 --     8      0.994    17      0.872
    12   8      1.961 --     6      0.998    18      0.880
    13   8      1.955 --     4      0.984    19      0.894
    14   8      1.961 --     2      0.993    20      0.896
    15   1      0.994 --     1      0.968
    16   1      0.996 --     1      0.966
    17   1      0.896 --    11      0.872
    18   1      0.899 --    12      0.880
    19   1      0.910 --    13      0.894
    20   1      0.910 --    14      0.896
 ---------------------------------------------------------------------------

Topologies differ in total number of bonds
Writing topology from bond orders to xtbtopo.mol

molecular dipole:
                 x           y           z       tot (Debye)
 q only:        0.722      -0.804      -0.010
   full:        1.034      -1.252      -0.101       4.136
molecular quadrupole (traceless):
                xx          xy          yy          xz          yz          zz
 q only:        2.999      -0.222      -1.776      -0.882      -2.692      -1.223
  q+dip:        2.694      -1.722      -3.490      -1.600      -3.564       0.797
   full:        3.418      -1.595      -3.043      -1.349      -3.618      -0.375

           -------------------------------------------------
          |                Geometry Summary                 |
           -------------------------------------------------

      molecular mass/u    :      150.1301116
   center of mass at/Å    :       -0.0001346      -0.0000269       0.0000292
  moments of inertia/u·Å² :        0.2935486E+03   0.3760819E+03   0.5812357E+03
rotational constants/cm⁻¹ :        0.5742705E-01   0.4482437E-01   0.2900309E-01

 * 19 selected distances

     #   Z          #   Z                                           value/Å
     1   6          2   6                                         1.5325195
     2   6          3   1                                         1.0994660
     2   6          4   6                                         1.5383244 (max)
     4   6          5   1                                         1.1002882
     4   6          6   6                                         1.5311255
     6   6          7   1                                         1.0995502
     8   6          9   1                                         1.1016912
     1   6         10   8                                         1.4139276
     8   6         10   8                                         1.3895141
     8   6         11   8                                         1.3988505
     6   6         12   8                                         1.4063207
     4   6         13   8                                         1.4159972
     2   6         14   8                                         1.4111896
     1   6         15   1                                         1.0898545
     1   6         16   1                                         1.0952858
    11   8         17   1                                         0.9667599
    12   8         18   1                                         0.9655423
    13   8         19   1                                         0.9634047
    14   8         20   1                                         0.9630986 (min)

 * 4 distinct bonds (by element types)

   Z      Z             #   av. dist./Å        max./Å        min./Å
   1 H    6 C           6     1.0976893     1.1016912     1.0898545
   6 C    6 C           3     1.5339898     1.5383244     1.5311255
   1 H    8 O           4     0.9647014     0.9667599     0.9630986
   6 C    8 O           6     1.4059666     1.4159972     1.3895141

           -------------------------------------------------
          |               Frequency Printout                |
           -------------------------------------------------
 projected vibrational frequencies (cm⁻¹)
eigval :       -0.00    -0.00    -0.00     0.00     0.00     0.00
eigval :       95.06   104.70   188.01   218.64   225.90   248.88
eigval :      258.27   340.82   358.08   369.66   381.63   411.40
eigval :      434.01   489.52   520.13   528.51   584.93   745.40
eigval :      897.18   903.51   969.53  1017.07  1042.61  1061.41
eigval :     1086.67  1093.40  1108.25  1114.74  1140.40  1159.12
eigval :     1190.33  1204.99  1224.76  1229.21  1243.39  1280.98
eigval :     1292.54  1298.88  1314.90  1320.70  1334.50  1346.80
eigval :     1353.98  1457.02  2870.38  2883.30  2886.38  2897.88
eigval :     2937.41  3002.15  3495.42  3520.53  3549.00  3552.61
 reduced masses (amu)
    1:      7.21    2:      7.49    3:      7.48    4:      6.09    5:      6.51    6:      5.91
    7:      6.20    8:      4.75    9:      1.32   10:      3.40   11:      4.10   12:      4.24
   13:      3.22   14:      3.20   15:      1.18   16:      1.18   17:      3.69   18:      4.08
   19:      1.31   20:      3.95   21:      4.43   22:      4.56   23:      4.97   24:      4.10
   25:      2.95   26:      2.13   27:      2.74   28:      2.27   29:      2.46   30:      2.65
   31:      4.68   32:      3.50   33:      3.66   34:      4.30   35:      4.13   36:      1.46
   37:      1.23   38:      1.20   39:      1.28   40:      1.37   41:      1.27   42:      1.27
   43:      1.31   44:      1.27   45:      1.42   46:      1.37   47:      1.52   48:      1.36
   49:      1.42   50:      1.09   51:      1.07   52:      1.07   53:      1.07   54:      1.08
   55:      1.07   56:      1.07   57:      1.07   58:      1.07   59:      1.07   60:      1.07
 IR intensities (km·mol⁻¹)
    1:      0.71    2:      0.32    3:      0.02    4:      0.93    5:      1.06    6:      0.42
    7:      1.06    8:      3.10    9:    205.08   10:     78.54   11:      3.22   12:     13.10
   13:      6.20   14:     12.70   15:     20.97   16:     88.47   17:     23.41   18:      7.56
   19:    225.66   20:      9.27   21:     19.13   22:     25.00   23:      3.93   24:     37.34
   25:      7.54   26:     15.54   27:     52.19   28:      8.32   29:     45.57   30:     21.14
   31:    281.90   32:     41.51   33:     48.27   34:     85.62   35:     80.01   36:     65.69
   37:      5.38   38:     38.67   39:     12.40   40:    141.31   41:     29.35   42:     44.51
   43:     31.60   44:     24.18   45:     34.23   46:     41.75   47:     41.35   48:     13.41
   49:     17.76   50:      3.12   51:     46.21   52:      4.61   53:      0.88   54:    140.60
   55:     40.73   56:     15.81   57:     50.76   58:     31.32   59:     15.07   60:     15.89
 Raman intensities (Ä⁴*amu⁻¹)
    1:      0.00    2:      0.00    3:      0.00    4:      0.00    5:      0.00    6:      0.00
Molecule has no symmetry elements
It seems to be the C1 point group
    7:      0.00    8:      0.00    9:      0.00   10:      0.00   11:      0.00   12:      0.00
   13:      0.00   14:      0.00   15:      0.00   16:      0.00   17:      0.00   18:      0.00
   19:      0.00   20:      0.00   21:      0.00   22:      0.00   23:      0.00   24:      0.00
   25:      0.00   26:      0.00   27:      0.00   28:      0.00   29:      0.00   30:      0.00
   31:      0.00   32:      0.00   33:      0.00   34:      0.00   35:      0.00   36:      0.00
   37:      0.00   38:      0.00   39:      0.00   40:      0.00   41:      0.00   42:      0.00
   43:      0.00   44:      0.00   45:      0.00   46:      0.00   47:      0.00   48:      0.00
   49:      0.00   50:      0.00   51:      0.00   52:      0.00   53:      0.00   54:      0.00
   55:      0.00   56:      0.00   57:      0.00   58:      0.00   59:      0.00   60:      0.00
 output can be read by thermo (or use thermo option).
 writing <g98.out> molden fake output.
 recommended (thermochemical) frequency scaling factor: 1.0
           -------------------------------------------------
          |             Thermodynamic Functions             |
           -------------------------------------------------

c1  symmetry found (for desy threshold:  0.10E+00) used in thermo

          ...................................................
          :                      SETUP                      :
          :.................................................:
          :  # frequencies                          54      :
          :  # imaginary freq.                       0      :
          :  linear?                             false      :
          :  only rotor calc.                    false      :
          :  symmetry                               c1      :
          :  rotational number                       1      :
          :  scaling factor                  1.0000000      :
          :  rotor cutoff                    0.0000000 cm⁻¹ :
          :  imag. cutoff                 -100.0000000 cm⁻¹ :
          :.................................................:

    mode    ω/cm⁻¹     T·S(HO)/kcal·mol⁻¹    T·S(FR)/kcal·mol⁻¹   T·S(vib)
   ------------------------------------------------------------------------
       1     95.06    -1.05937 (100.00%)    -0.86609 (  0.00%)    -1.05937
       2    104.70    -1.00323 (100.00%)    -0.83749 (  0.00%)    -1.00323
       3    188.01    -0.67005 (100.00%)    -0.66412 (  0.00%)    -0.67005
       4    218.64    -0.58745 (100.00%)    -0.61942 (  0.00%)    -0.58745
       5    225.90    -0.56986 (100.00%)    -0.60975 (  0.00%)    -0.56986
       6    248.88    -0.51833 (100.00%)    -0.58105 (  0.00%)    -0.51833
       7    258.27    -0.49894 (100.00%)    -0.57008 (  0.00%)    -0.49894
   ------------------------------------------------------------------------

   temp. (K)  partition function   enthalpy   heat capacity  entropy
                                   cal/mol     cal/K/mol   cal/K/mol   J/K/mol
 298.15  VIB   242.                 4703.499     33.585     26.681
         ROT  0.612E+06              888.727      2.981     29.459
         INT  0.148E+09             5592.226     36.566     56.140
         TR   0.563E+26             1481.212      4.968     40.929
         TOT                        7073.4384    41.5342    97.0695   406.1389

       T/K    H(0)-H(T)+PV         H(T)/Eh          T*S/Eh         G(T)/Eh
   ------------------------------------------------------------------------
    298.15    0.112722E-01    0.167977E+00    0.461209E-01    0.121856E+00
   ------------------------------------------------------------------------

         :::::::::::::::::::::::::::::::::::::::::::::::::::::
         ::                  THERMODYNAMIC                  ::
         :::::::::::::::::::::::::::::::::::::::::::::::::::::
         :: total free energy         -36.008925830308 Eh   ::
         ::.................................................::
         :: total energy              -36.130781989574 Eh   ::
         :: zero point energy           0.156704782264 Eh   ::
         :: G(RRHO) w/o ZPVE           -0.034848622998 Eh   ::
         :: G(RRHO) contrib.            0.121856159266 Eh   ::
         :::::::::::::::::::::::::::::::::::::::::::::::::::::

optimized geometry written to: xtbopt.coord


           -------------------------------------------------
          | TOTAL ENERGY              -36.130781989574 Eh   |
          | TOTAL ENTHALPY            -35.962804965703 Eh   |
          | TOTAL FREE ENERGY         -36.008925830308 Eh   |
          | GRADIENT NORM               0.000112745014 Eh/α |
          | HOMO-LUMO GAP              10.489155005723 eV   |
           -------------------------------------------------

------------------------------------------------------------------------
 * finished run on 2025/04/09 at 02:30:17.133     
------------------------------------------------------------------------
 total:
 * wall-time:     0 d,  0 h,  0 min,  1.749 sec
 *  cpu-time:     0 d,  0 h,  0 min,  1.721 sec
 * ratio c/w:     0.984 speedup
 SCF:
 * wall-time:     0 d,  0 h,  0 min,  0.016 sec
 *  cpu-time:     0 d,  0 h,  0 min,  0.016 sec
 * ratio c/w:     0.974 speedup
 analytical hessian:
 * wall-time:     0 d,  0 h,  0 min,  1.499 sec
 *  cpu-time:     0 d,  0 h,  0 min,  1.477 sec
 * ratio c/w:     0.985 speedup

