
                                 *****************
                                 * O   R   C   A *
                                 *****************

                                            #,                                       
                                            ###                                      
                                            ####                                     
                                            #####                                    
                                            ######                                   
                                           ########,                                 
                                     ,,################,,,,,                         
                               ,,#################################,,                 
                          ,,##########################################,,             
                       ,#########################################, ''#####,          
                    ,#############################################,,   '####,        
                  ,##################################################,,,,####,       
                ,###########''''           ''''###############################       
              ,#####''   ,,,,##########,,,,          '''####'''          '####       
            ,##' ,,,,###########################,,,                        '##       
           ' ,,###''''                  '''############,,,                           
         ,,##''                                '''############,,,,        ,,,,,,###''
      ,#''                                            '''#######################'''  
     '                                                          ''''####''''         
             ,#######,   #######,   ,#######,      ##                                
            ,#'     '#,  ##    ##  ,#'     '#,    #''#        ,####,   ,####,        
            ##       ##  ##   ,#'  ##            #'  '#       #'       #'  '#        
            ##       ##  #######   ##           ,######,      #####,   #    #        
            '#,     ,#'  ##    ##  '#,     ,#' ,#      #,     #,   #   #,  ,#        
             '#######'   ##     ##  '#######'  #'      '#     '####' # '####'        



                #########################################################
                #                        -***-                          #
                #          Department of theory and spectroscopy        #
                #                                                       #
                #                      Frank Neese                      #
                #                                                       #
                #     Directorship, Architecture, Infrastructure        #
                #                    SHARK, DRIVERS                     #
                #        Core code/Algorithms in most modules           #
                #                                                       #
                #        Max Planck Institute fuer Kohlenforschung      #
                #                Kaiser Wilhelm Platz 1                 #
                #                 D-45470 Muelheim/Ruhr                 #
                #                      Germany                          #
                #                                                       #
                #                  All rights reserved                  #
                #                        -***-                          #
                #########################################################


                         Program Version 6.0.1  -  RELEASE   -


 With contributions from (in alphabetic order):
[Max-Planck-Institut fuer Kohlenforschung]                               
  Daniel Aravena         : Magnetic Suceptibility                        
  Michael Atanasov       : Ab Initio Ligand Field Theory (pilot matlab implementation)
  Alexander A. Auer      : GIAO ZORA, VPT2 properties, NMR spectrum      
  Ute Becker             : All parallelization in ORCA, NUMFREQ, NUMCALC 
  Giovanni Bistoni       : ED, misc. LED, open-shell LED, HFLD           
  Martin Brehm           : Molecular dynamics                            
  Dmytro Bykov           : pre 5.0 version of the SCF Hessian            
  Marcos Casanova-Páez   : Triplet and SCS-CIS(D). UHF-(DLPNO)-IP/EA/STEOM-CCSD. UHF-CVS-IP/STEOM-CCSD   
  Vijay G. Chilkuri      : MRCI spin determinant printing, contributions to CSF-ICE 
  Pauline Colinet        : FMM embedding                                 
  Dipayan Datta          : RHF DLPNO-CCSD density                        
  Achintya Kumar Dutta   : EOM-CC, STEOM-CC                              
  Nicolas Foglia         : Exact transition moments, OPA infrastructure, MCD improvements    
  Dmitry Ganyushin       : Spin-Orbit,Spin-Spin,Magnetic field MRCI      
  Miquel Garcia-Rates    : C-PCM and meta-GGA Hessian, CCSD/C-PCM, Gaussian charge scheme 
  Tiago L. C. Gouveia    : GS-ROHF, GS-ROCIS                             
  Yang Guo               : DLPNO-NEVPT2, F12-NEVPT2, CIM, IAO-localization        
  Andreas Hansen         : Spin unrestricted coupled pair/coupled cluster methods 
  Ingolf Harden          : AUTO-CI MPn and infrastructure                
  Benjamin Helmich-Paris : MC-RPA, TRAH-(SCF,CASSCF), AVAS, COSX integrals, SCF dyn. polar. 
  Lee Huntington         : MR-EOM, pCC                                   
  Robert Izsak           : Overlap fitted RIJCOSX, COSX-SCS-MP3, EOM     
  Riya Kayal             : Wick's Theorem for AUTO-CI, AUTO-CI UHF-CCSDT 
  Emily Kempfer          : AUTO-CI, RHF CISDT and CCSDT                  
  Christian Kollmar      : KDIIS, OOCD, Brueckner-CCSD(T), CCSD density, CASPT2, CASPT2-K, improved NEVPT2 
  Axel Koslowski         : Symmetry handling                             
  Simone Kossmann        : meta-GGA functionals, TD-DFT gradient, OOMP2, (MP2 Hessian; deprecated post 5.0) 
  Lucas Lang             : DCDCAS                                        
  Marvin Lechner         : AUTO-CI (C++ implementation), FIC-MRCC        
  Spencer Leger          : CASSCF response                               
  Dagmar Lenk            : GEPOL surface, SMD, ORCA-2-JSON               
  Dimitrios Liakos       : Extrapolation schemes; Compound Job, initial MDCI parallelization 
  Dimitrios Manganas     : Further ROCIS development; embedding schemes. LFT, Crystal Embedding 
  Dimitrios Pantazis     : SARC Basis sets                               
  Anastasios Papadopoulos: AUTO-CI, single reference methods and gradients 
  Taras Petrenko         : pre 6.0 DFT Hessian and TD-DFT gradient, (ASA, deprecated), ECA, 1-Electron XAS/XES, NRVS 
  Peter Pinski           : DLPNO-MP2, DLPNO-MP2 Gradient                 
  Christoph Reimann      : Effective Core Potentials                     
  Marius Retegan         : Local ZFS, SOC                                
  Christoph Riplinger    : Optimizer, TS searches, QM/MM, DLPNO-CCSD(T), (RO)-DLPNO pert. Triples 
  Michael Roemelt        : Original ROCIS implementation                 
  Masaaki Saitow         : Open-shell DLPNO-CCSD energy and density      
  Barbara Sandhoefer     : DKH picture change effects                    
  Kantharuban Sivalingam : CASSCF convergence/infrastructure, NEVPT2 and variants, FIC-MRCI 
  Bernardo de Souza      : ESD, SOC TD-DFT                               
  Georgi L. Stoychev     : AutoAux, RI-MP2 NMR, DLPNO-MP2 response, X2C  
  Van Anh Tran           : RI-MP2 g-tensors                              
  Willem Van den Heuvel  : Paramagnetic NMR                              
  Zikuan Wang            : NOTCH, Electric field optimization            
  Frank Wennmohs         : Technical directorship and infrastructure     
  Hang Xu                : AUTO-CI-Response properties                   
                                                                         
[FACCTs GmbH]                                                            
  Markus Bursch, Miquel Garcia-Rates, Christoph Riplinger, Bernardo de Souza, Georgi L. Stoychev 
                                                                 
  APM, Basis sets (HGBS, AHGBS, def-TZVP (Ac-Lr), def2-XVPD (La-Lu)), CI-OPT, improved COSX, DLPNO-Multilevel,           
  DOCKER, DRACO, updates on ESD, GOAT, IRC, LR-CPCM, MBIS, meta-GGA TD-DFT gradient, ML-optimized integration grids, 
  MM, NACMEs, nearIR, NEB, NEB-TS, NL-DFT gradient (VV10), 2- and 3-layer-ONIOM, interface openCOSMO-RS, QMMM,   
  Crystal-QMMM, SF, symmetry and pop. for TD-DFT, r2SCAN hybrids, SOLVATOR                                   
                                                                         
[Other institutions]                                                     
  V. Asgeirsson          : NEB                                           
  Christoph Bannwarth    : sTDA-DFT, sTD-DFT, PBEh-3c, B97-3c, D3        
  Sebastian Ehlert       : rSCAN, r2SCAN, r2SCAN-3c, D4, dhf basis sets  
  Marvin Friede          : D4 for Fr, Ra, Ac-Lr                          
  Lars Goerigk           : TD-DFT with DH, B97 family of functionals     
  Stefan Grimme          : VdW corrections, initial TS optimization, DFT functionals, gCP, sTDA/sTD-DF 
  Waldemar Hujo          : DFT-NL                                        
  H. Jonsson             : NEB                                           
  Holger Kruse           : gCP                                           
  Marcel Mueller         : wB97X-3c, vDZP basis set                      
  Hagen Neugebauer       : wr2SCAN                                       
  Tobias Risthaus        : range-separated hybrid DFT                    
  Lukas Wittmann         : regularized MP2, r2SCAN double-hybrids, wr2SCAN        
                                                                         
We gratefully acknowledge several colleagues who have allowed us to      
interface, adapt or use parts of their codes:                            
  Ed Valeev, F. Pavosevic, A. Kumar             : LibInt (2-el integral package), F12 methods 
  Garnet Chan, S. Sharma, J. Yang, R. Olivares  : DMRG                   
  Ulf Ekstrom                                   : XCFun DFT Library      
  Mihaly Kallay                                 : mrcc  (arbitrary order and MRCC methods)
  Frank Weinhold                                : gennbo (NPA and NBO analysis)           
  Simon Mueller                                 : openCOSMO-RS                            
  Christopher J. Cramer and Donald G. Truhlar   : smd solvation model                     
  S Lehtola, MJT Oliveira, MAL Marques          : LibXC Library                           
  Liviu Ungur et al                             : ANISO software                          


 Your calculation uses the libint2 library for the computation of 2-el integrals
 For citations please refer to: http://libint.valeyev.net

 Your ORCA version has been built with support for libXC version: 6.2.2
 For citations please refer to: https://libxc.gitlab.io

 This ORCA versions uses:
   CBLAS   interface :  Fast vector & matrix operations
   LAPACKE interface :  Fast linear algebra routines
   SCALAPACK package :  Parallel linear algebra routines
   Shared memory     :  Shared parallel matrices
   BLAS/LAPACK       :  OpenBLAS 0.3.27  USE64BITINT DYNAMIC_ARCH NO_AFFINITY Zen SINGLE_THREADED
        Core in use  :  Zen
   Copyright (c) 2011-2014, The OpenBLAS Project


Your calculation utilizes the geometrical counterpoise correction gCP
Please cite in your paper:
H.Kruse, S. Grimme J.Chem.Phys., 136, (2012), 154101 
   

Your calculation utilizes the DFT-NL dispersion correction.
Cite in your paper:
Vydrov, O. A.; Van Voorhis, T. J. Chem. Phys. 2010, 133, 244103
Hujo, W.; Grimme, S. J. Chem. Theory Comput. 2011, 7, 3866 
   

================================================================================

----- Orbital basis set information -----
Your calculation utilizes the basis: def2-TZVP
   F. Weigend and R. Ahlrichs, Phys. Chem. Chem. Phys. 7, 3297 (2005).

----- AuxJ basis set information -----
Your calculation utilizes the auxiliary basis: def2/J
   F. Weigend, Phys. Chem. Chem. Phys. 8, 1057 (2006).

================================================================================
                                        WARNINGS
                       Please study these warnings very carefully!
================================================================================

WARNING: Old DensityContainer found on disk!
         Will remove this file - 
         If you want to keep old densities, please start your calculation with a different basename. 


================================================================================
                                       INPUT FILE
================================================================================
NAME = sp.inp
|  1> ! wb97x-v def2-tzvp def2/J RIJCOSX DEFGRID2 scfconv7 GCP(DFT/TZ) printgap
|  2> %output
|  3>     printlevel normal
|  4> end
|  5> * xyz 0 1
|  6> C -2.9367495036217557 0.0001292998865435079 -0.001859891424879618
|  7> C -1.4317196940998518 -0.009175922044592047 0.001376498671234595
|  8> C -0.7081588207198463 -1.2006132177755469 0.0011993263532676804
|  9> C 0.6846996329558365 -1.2056646874744628 0.00015473994866804084
| 10> C 1.3800595749296583 0.0005656275347524444 -0.0006008687212888616
| 11> C 0.6776683101328529 1.2051347355724182 -6.108951241388564e-05
| 12> C -0.7094452164484978 1.1893497425845359 0.0010909691436003848
| 13> O 2.7484937190289056 0.06922741162570091 -0.0011673758542050862
| 14> H -3.3389723825846955 -1.0152789896843157 0.03777637955465896
| 15> H -3.332442699103519 0.5520346430826494 0.8576846760836774
| 16> H -3.328826613361563 0.48092283711980216 -0.9050338043088334
| 17> H -1.2381123980805036 -2.149163521625639 0.0020505496373191116
| 18> H 1.226170940420853 -2.1489487135380796 0.0005258177140241768
| 19> H 1.2305801429978673 2.1383308212259657 5.985408920173399e-05
| 20> H -1.2471489643385072 2.1341369685721583 0.001867606212633038
| 21> H 3.1062562501623927 -0.8254698533010579 -0.0013251659055426891
| 22> *
| 23> 
| 24>                          ****END OF INPUT****
================================================================================

                       ****************************
                       * Single Point Calculation *
                       ****************************

---------------------------------
CARTESIAN COORDINATES (ANGSTROEM)
---------------------------------
  C     -2.936750    0.000129   -0.001860
  C     -1.431720   -0.009176    0.001376
  C     -0.708159   -1.200613    0.001199
  C      0.684700   -1.205665    0.000155
  C      1.380060    0.000566   -0.000601
  C      0.677668    1.205135   -0.000061
  C     -0.709445    1.189350    0.001091
  O      2.748494    0.069227   -0.001167
  H     -3.338972   -1.015279    0.037776
  H     -3.332443    0.552035    0.857685
  H     -3.328827    0.480923   -0.905034
  H     -1.238112   -2.149164    0.002051
  H      1.226171   -2.148949    0.000526
  H      1.230580    2.138331    0.000060
  H     -1.247149    2.134137    0.001868
  H      3.106256   -0.825470   -0.001325

----------------------------
CARTESIAN COORDINATES (A.U.)
----------------------------
  NO LB      ZA    FRAG     MASS         X           Y           Z
   0 C     6.0000    0    12.011   -5.549652    0.000244   -0.003515
   1 C     6.0000    0    12.011   -2.705558   -0.017340    0.002601
   2 C     6.0000    0    12.011   -1.338226   -2.268830    0.002266
   3 C     6.0000    0    12.011    1.293895   -2.278376    0.000292
   4 C     6.0000    0    12.011    2.607935    0.001069   -0.001135
   5 C     6.0000    0    12.011    1.280608    2.277375   -0.000115
   6 C     6.0000    0    12.011   -1.340657    2.247545    0.002062
   7 O     8.0000    0    15.999    5.193900    0.130821   -0.002206
   8 H     1.0000    0     1.008   -6.309743   -1.918599    0.071387
   9 H     1.0000    0     1.008   -6.297404    1.043194    1.620789
  10 H     1.0000    0     1.008   -6.290571    0.908812   -1.710266
  11 H     1.0000    0     1.008   -2.339693   -4.061330    0.003875
  12 H     1.0000    0     1.008    2.317127   -4.060925    0.000994
  13 H     1.0000    0     1.008    2.325459    4.040860    0.000113
  14 H     1.0000    0     1.008   -2.356770    4.032934    0.003529
  15 H     1.0000    0     1.008    5.869974   -1.559912   -0.002504

--------------------------------
INTERNAL COORDINATES (ANGSTROEM)
--------------------------------
 C      0   0   0     0.000000000000     0.00000000     0.00000000
 C      1   0   0     1.505062054842     0.00000000     0.00000000
 C      2   1   0     1.393938018183   121.62448578     0.00000000
 C      3   2   1     1.392868005406   121.47813463   179.80489907
 C      4   3   2     1.392306572811   119.75453351     0.00000000
 C      5   4   3     1.394396111678   119.79095442     0.00000000
 C      6   5   4     1.387203816628   119.59473497     0.00000000
 O      5   4   3     1.370155745987   122.83475266   179.97640886
 H      1   2   3     1.092889872250   111.23572928     2.36224895
 H      1   2   3     1.095440311625   111.26231255   122.64655428
 H      1   2   3     1.095723506338   111.24166985   242.15441583
 H      3   2   1     1.086553817200   119.53761380   359.79510572
 H      4   3   2     1.087647032972   120.06478952   179.97031017
 H      6   5   4     1.084696475438   119.10685955   179.95650920
 H      7   6   5     1.087082713527   118.99340175   179.97805217
 H      8   5   4     0.963575243273   108.92255474     0.02351690

---------------------------
INTERNAL COORDINATES (A.U.)
---------------------------
 C      0   0   0     0.000000000000     0.00000000     0.00000000
 C      1   0   0     2.844155098208     0.00000000     0.00000000
 C      2   1   0     2.634161102026   121.62448578     0.00000000
 C      3   2   1     2.632139070918   121.47813463   179.80489907
 C      4   3   2     2.631078117072   119.75453351     0.00000000
 C      5   4   3     2.635026773276   119.79095442     0.00000000
 C      6   5   4     2.621435305358   119.59473497     0.00000000
 O      5   4   3     2.589219120734   122.83475266   179.97640886
 H      1   2   3     2.065262553090   111.23572928     2.36224895
 H      1   2   3     2.070082185028   111.26231255   122.64655428
 H      1   2   3     2.070617345478   111.24166985   242.15441583
 H      3   2   1     2.053289144275   119.53761380   359.79510572
 H      4   3   2     2.055355022690   120.06478952   179.97031017
 H      6   5   4     2.049779277008   119.10685955   179.95650920
 H      7   6   5     2.054288613486   118.99340175   179.97805217
 H      8   5   4     1.820893319212   108.92255474     0.02351690

---------------------
BASIS SET INFORMATION
---------------------
There are 3 groups of distinct atoms

 Group   1 Type C   : 11s6p2d1f contracted to 5s3p2d1f pattern {62111/411/11/1}
 Group   2 Type O   : 11s6p2d1f contracted to 5s3p2d1f pattern {62111/411/11/1}
 Group   3 Type H   : 5s1p contracted to 3s1p pattern {311/1}

Atom   0C    basis set group =>   1
Atom   1C    basis set group =>   1
Atom   2C    basis set group =>   1
Atom   3C    basis set group =>   1
Atom   4C    basis set group =>   1
Atom   5C    basis set group =>   1
Atom   6C    basis set group =>   1
Atom   7O    basis set group =>   2
Atom   8H    basis set group =>   3
Atom   9H    basis set group =>   3
Atom  10H    basis set group =>   3
Atom  11H    basis set group =>   3
Atom  12H    basis set group =>   3
Atom  13H    basis set group =>   3
Atom  14H    basis set group =>   3
Atom  15H    basis set group =>   3
---------------------------------
AUXILIARY/J BASIS SET INFORMATION
---------------------------------
There are 3 groups of distinct atoms

 Group   1 Type C   : 12s5p4d2f1g contracted to 6s4p3d1f1g pattern {711111/2111/211/2/1}
 Group   2 Type O   : 12s5p4d2f1g contracted to 6s4p3d1f1g pattern {711111/2111/211/2/1}
 Group   3 Type H   : 5s2p1d contracted to 3s1p1d pattern {311/2/1}

Atom   0C    basis set group =>   1
Atom   1C    basis set group =>   1
Atom   2C    basis set group =>   1
Atom   3C    basis set group =>   1
Atom   4C    basis set group =>   1
Atom   5C    basis set group =>   1
Atom   6C    basis set group =>   1
Atom   7O    basis set group =>   2
Atom   8H    basis set group =>   3
Atom   9H    basis set group =>   3
Atom  10H    basis set group =>   3
Atom  11H    basis set group =>   3
Atom  12H    basis set group =>   3
Atom  13H    basis set group =>   3
Atom  14H    basis set group =>   3
Atom  15H    basis set group =>   3

Checking for AutoStart:
The File: sp.gbw exists
Trying to determine its content:
     ... Fine, the file contains calculation information
     ... Fine, the calculation information was read
     ... Fine, the file contains a basis set
     ... Fine, the basis set was read
     ... Fine, the file contains a geometry
     ... Fine, the geometry was read
     ... Fine, the file contains a set of orbitals
     ... Fine, the orbitals can be read
     => possible old guess file was deleted
     => GBW file was renamed to GES file
     => GES file is set as startup file
     => Guess is set to MORead
     ... now leaving AutoStart

------------------------------------------------------------------------------
                             ORCA STARTUP CALCULATIONS
                           -- RI-GTO INTEGRALS CHOSEN --
------------------------------------------------------------------------------
------------------------------------------------------------------------------
                   ___                                                        
                  /   \      - P O W E R E D   B Y -                         
                 /     \                                                     
                 |  |  |   _    _      __       _____    __    __             
                 |  |  |  | |  | |    /  \     |  _  \  |  |  /  |          
                  \  \/   | |  | |   /    \    | | | |  |  | /  /          
                 / \  \   | |__| |  /  /\  \   | |_| |  |  |/  /          
                |  |  |   |  __  | /  /__\  \  |    /   |      \           
                |  |  |   | |  | | |   __   |  |    \   |  |\   \          
                \     /   | |  | | |  |  |  |  | |\  \  |  | \   \       
                 \___/    |_|  |_| |__|  |__|  |_| \__\ |__|  \__/        
                                                                              
                      - O R C A' S   B I G   F R I E N D -                    
                                      &                                       
                       - I N T E G R A L  F E E D E R -                       
                                                                              
 v1 FN, 2020, v2 2021, v3 2022-2024                                           
------------------------------------------------------------------------------


----------------------
SHARK INTEGRAL PACKAGE
----------------------

Number of atoms                             ...     16
Number of basis functions                   ...    296
Number of shells                            ...    120
Maximum angular momentum                    ...      3
Integral batch strategy                     ... SHARK/LIBINT Hybrid
RI-J (if used) integral strategy            ... SPLIT-RIJ (Revised 2003 algorithm where possible)
Printlevel                                  ...      1
Contraction scheme used                     ... SEGMENTED contraction
Prescreening option                         ... SCHWARTZ
   Thresh                                   ... 3.000e-11
   Tcut                                     ... 1.000e-12
   Tpresel                                  ... 1.000e-12 
Coulomb Range Separation                    ... NOT USED
Exchange Range Separation                   ... Long Range
   Mu parameter                             ... 3.000e-01
   Scaling (regular/separated)              ... 1.670e-01 8.330e-01
Multipole approximations                    ... NOT USED
Finite Nucleus Model                        ... NOT USED
CABS basis                                  ... NOT available
Auxiliary Coulomb fitting basis             ... AVAILABLE
   # of basis functions in Aux-J            ...    480
   # of shells in Aux-J                     ...    160
   Maximum angular momentum in Aux-J        ...      4
Auxiliary J/K fitting basis                 ... NOT available
Auxiliary Correlation fitting basis         ... NOT available
Auxiliary 'external' fitting basis          ... NOT available

Checking pre-screening integrals            ... done (  0.0 sec) Dimension = 120
Check shell pair data                       ... done (  0.0 sec)
Shell pair information
Shell pair cut-off parameter TPreSel        ...   1.0e-12
Total number of shell pairs                 ...      7260
Shell pairs after pre-screening             ...      6658
Total number of primitive shell pairs       ...     21936
Primitive shell pairs kept                  ...     15291
          la=0 lb=0:   1830 shell pairs
          la=1 lb=0:   1880 shell pairs
          la=1 lb=1:    500 shell pairs
          la=2 lb=0:    956 shell pairs
          la=2 lb=1:    488 shell pairs
          la=2 lb=2:    130 shell pairs
          la=3 lb=0:    468 shell pairs
          la=3 lb=1:    247 shell pairs
          la=3 lb=2:    124 shell pairs
          la=3 lb=3:     35 shell pairs

Calculating one electron integrals          ... done (  0.0 sec)
Calculating RI/J V-Matrix + Cholesky decomp.... done (  0.0 sec)
Calculating Nuclear repulsion               ... done (  0.0 sec) ENN=    342.602871937887 Eh

Diagonalization of the overlap matrix:
Smallest eigenvalue                        ... 8.821e-06
Time for diagonalization                   ...    0.006 sec
Threshold for overlap eigenvalues          ... 1.000e-07
Number of eigenvalues below threshold      ... 0
Time for construction of square roots      ...    0.002 sec
Total time needed                          ...    0.009 sec

-------------------
DFT GRID GENERATION
-------------------

General Integration Accuracy     IntAcc      ... 4.388
Radial Grid Type                 RadialGrid  ... OptM3 with GC (2021)
Angular Grid (max. ang.)         AngularGrid ... 4 (Lebedev-302)
Angular grid pruning method      GridPruning ... 4 (adaptive)
Weight generation scheme         WeightScheme... mBecke (2022)
Basis function cutoff            BFCut       ... 1.0000e-11
Integration weight cutoff        WCut        ... 1.0000e-14
Partially contracted basis set               ... off
Rotationally invariant grid construction     ... off
Angular grids for H and He will be reduced by one unit

Total number of grid points                  ...    73891
Total number of batches                      ...     1162
Average number of points per batch           ...       63
Average number of grid points per atom       ...     4618

--------------------
COSX GRID GENERATION
--------------------

GRIDX 1
-------
General Integration Accuracy     IntAcc      ... 3.816
Radial Grid Type                 RadialGrid  ... OptM3 with GC (2021)
Angular Grid (max. ang.)         AngularGrid ... 1 (Lebedev-50)
Angular grid pruning method      GridPruning ... 4 (adaptive)
Weight generation scheme         WeightScheme... mBecke (2022)
Basis function cutoff            BFCut       ... 1.0000e-11
Integration weight cutoff        WCut        ... 1.0000e-14
Partially contracted basis set               ... on
Rotationally invariant grid construction     ... off
Angular grids for H and He will be reduced by one unit

Total number of grid points                  ...     9487
Total number of batches                      ...       82
Average number of points per batch           ...      115
Average number of grid points per atom       ...      593
UseSFitting                                  ... on

GRIDX 2
-------
General Integration Accuracy     IntAcc      ... 4.020
Radial Grid Type                 RadialGrid  ... OptM3 with GC (2021)
Angular Grid (max. ang.)         AngularGrid ... 2 (Lebedev-110)
Angular grid pruning method      GridPruning ... 4 (adaptive)
Weight generation scheme         WeightScheme... mBecke (2022)
Basis function cutoff            BFCut       ... 1.0000e-11
Integration weight cutoff        WCut        ... 1.0000e-14
Partially contracted basis set               ... on
Rotationally invariant grid construction     ... off
Angular grids for H and He will be reduced by one unit

Total number of grid points                  ...    20489
Total number of batches                      ...      169
Average number of points per batch           ...      121
Average number of grid points per atom       ...     1281
UseSFitting                                  ... on

GRIDX 3
-------
General Integration Accuracy     IntAcc      ... 4.338
Radial Grid Type                 RadialGrid  ... OptM3 with GC (2021)
Angular Grid (max. ang.)         AngularGrid ... 3 (Lebedev-194)
Angular grid pruning method      GridPruning ... 4 (adaptive)
Weight generation scheme         WeightScheme... mBecke (2022)
Basis function cutoff            BFCut       ... 1.0000e-11
Integration weight cutoff        WCut        ... 1.0000e-14
Partially contracted basis set               ... on
Rotationally invariant grid construction     ... off
Angular grids for H and He will be reduced by one unit

Total number of grid points                  ...    44997
Total number of batches                      ...      358
Average number of points per batch           ...      125
Average number of grid points per atom       ...     2812
UseSFitting                                  ... on
Initializing property integral containers    ... done (  0.0 sec)

SHARK setup successfully completed in   1.1 seconds

Maximum memory used throughout the entire STARTUP-calculation: 44.4 MB
-------------------------------------------------------------------------------
                                 ORCA GUESS
                   Start orbitals & Density for SCF / CASSCF
-------------------------------------------------------------------------------

------------
SCF SETTINGS
------------
Hamiltonian:
 Density Functional     Method          .... DFT(GTOs)
 Exchange Functional    Exchange        .... WB97X-V
 Correlation Functional Correlation     .... WB97X-V
 Gradients option       PostSCFGGA      .... off
 Hybrid DFT is turned on
   Fraction HF Exchange ScalHFX         ....  0.167000
   Scaling of DF-GGA-X  ScalDFX         ....  0.000000
   Scaling of DF-GGA-C  ScalDFC         ....  1.000000
   Scaling of DF-LDA-C  ScalLDAC        ....  1.000000
   Perturbative correction              ....  0.000000
 Long-range corrected/Screened/Range-Separated Hybrid DFT is turned on
   Amount of maximum screened exact exchange              ....  0.833000
   Range separation parameter mu (erf(mu*r12)/r12)        ....  0.300000
   NL short-range parameter             ....  6.000000
   NL long-range parameter              ....  0.010000
 RI-approximation to the Coulomb term is turned on
   Number of AuxJ basis functions       .... 480
   RIJ-COSX (HFX calculated with COS-X)).... on


General Settings:
 Integral files         IntName         .... sp
 Hartree-Fock type      HFTyp           .... RHF
 Total Charge           Charge          ....    0
 Multiplicity           Mult            ....    1
 Number of Electrons    NEL             ....   58
 Basis Dimension        Dim             ....  296
 Nuclear Repulsion      ENuc            ....    342.6028719379 Eh

Convergence Acceleration:
 AO-DIIS                CNVDIIS         .... on
   Start iteration      DIISMaxIt       ....    12
   Startup error        DIISStart       ....  0.200000
   # of expansion vecs  DIISMaxEq       ....     5
   Bias factor          DIISBfac        ....   1.050
   Max. coefficient     DIISMaxC        ....  10.000
 MO-DIIS                CNVKDIIS        .... off
 Trust-Rad. Augm. Hess. CNVTRAH         .... auto
   Auto Start mean grad. ratio tolernc. ....  1.125000
   Auto Start start iteration           ....     1
   Auto Start num. interpolation iter.  ....    10
   Max. Number of Micro iterations      ....    24
   Max. Number of Macro iterations      .... Maxiter - #DIIS iter
   Number of Davidson start vectors     ....     2
   Converg. threshold    (grad. norm)   ....   1.000e-04
   Grad. Scal. Fac. for Micro threshold ....   0.100
   Minimum threshold for Micro iter.    ....   1.000e-02
   NR start threshold (gradient norm)   ....   1.000e-04
   Initial trust radius                 ....   0.400
   Minimum AH scaling param. (alpha)    ....   1.000
   Maximum AH scaling param. (alpha)    .... 1000.000
   Quad. conv. algorithm                .... NR
   White noise on init. David. guess    .... on
   Maximum white noise                  ....   0.010
   Pseudo random numbers                .... off
   Inactive MOs                         .... canonical
   Orbital update algorithm             .... Taylor
   Preconditioner                       .... Diag
   Full preconditioner red. dimension   ....   250
 SOSCF                  CNVSOSCF        .... on
   Start iteration      SOSCFMaxIt      ....   150
   Startup grad/error   SOSCFStart      ....  0.003300
   Hessian update       SOSCFHessUp     .... L-BFGS
 Level Shifting         CNVShift        .... on
   Level shift para.    LevelShift      ....    0.2500
   Turn off err/grad.   ShiftErr        ....    0.0010
 Zerner damping         CNVZerner       .... off
 Static damping         CNVDamp         .... on
   Fraction old density DampFac         ....    0.7000
   Max. Damping (<1)    DampMax         ....    0.9800
   Min. Damping (>=0)   DampMin         ....    0.0000
   Turn off err/grad.   DampErr         ....    0.1000

SCF Procedure:
 Maximum # iterations   MaxIter         ....   125
 SCF integral mode      SCFMode         .... Direct
   Integral package                     .... SHARK and LIBINT hybrid scheme
 Reset frequency        DirectResetFreq ....    20
 Integral Threshold     Thresh          ....  3.000e-11 Eh
 Primitive CutOff       TCut            ....  1.000e-12 Eh

Convergence Tolerance:
 Convergence Check Mode ConvCheckMode   .... Total+1el-Energy
 Convergence forced     ConvForced      .... 0
 Energy Change          TolE            ....  1.000e-07 Eh
 1-El. energy change                    ....  1.000e-04 Eh
 Orbital Gradient       TolG            ....  1.000e-04
 Orbital Rotation angle TolX            ....  1.000e-04
 DIIS Error             TolErr          ....  1.000e-07

---------------------
INITIAL GUESS: MOREAD
---------------------
Guess MOs are being read from file: sp.ges
Input Geometry matches current geometry (good)
Atom 0: N(Shells)= 11 and 9 - projection required
Input basis set needs projection
NBasis(read)= 197
NBasis(calc)= 296
Basis set overlap was calculated
Using GuessMode=FMatrix for the initial guess
C*T matrix was formed
Effective Fockian was calculated
Effective Fockian was diagonalized
Initial density was built
                      ------------------
                      INITIAL GUESS DONE (   0.0 sec)
                      ------------------
             **** ENERGY FILE WAS UPDATED (sp.en.tmp) ****
Finished Guess after   0.1 sec
Maximum memory used throughout the entire GUESS-calculation: 27.4 MB

-------------------------------------------------------------------------------------------
                                      ORCA LEAN-SCF
                              memory conserving SCF solver
-------------------------------------------------------------------------------------------

----------------------------------------D-I-I-S--------------------------------------------
Iteration    Energy (Eh)           Delta-E    RMSDP     MaxDP     DIISErr   Damp  Time(sec)
-------------------------------------------------------------------------------------------
               ***  Starting incremental Fock matrix formation  ***
    1    -347.0140209056395406     0.00e+00  1.88e-03  9.63e-02  7.65e-02  0.700  10.0
    2    -347.0193747318486430    -5.35e-03  1.56e-03  7.40e-02  5.54e-02  0.700   4.7
                               ***Turning on AO-DIIS***
    3    -347.0233887020818884    -4.01e-03  1.25e-03  5.41e-02  3.96e-02  0.700   4.6
    4    -347.0263301247906611    -2.94e-03  3.09e-03  1.27e-01  2.78e-02  0.000   4.6
                              *** Initializing SOSCF ***
---------------------------------------S-O-S-C-F--------------------------------------
Iteration    Energy (Eh)           Delta-E    RMSDP     MaxDP     MaxGrad    Time(sec)
--------------------------------------------------------------------------------------
    5    -347.0337475831141774    -7.42e-03  1.52e-04  6.61e-03  1.43e-03     4.8
               *** Restarting incremental Fock matrix formation ***
    6    -347.0337712013578084    -2.36e-05  6.09e-05  3.00e-03  5.67e-04     9.9
    7    -347.0337756465411303    -4.45e-06  4.26e-05  2.87e-03  1.70e-04     7.6
    8    -347.0337761853187430    -5.39e-07  1.05e-05  6.29e-04  7.59e-05     7.3
    9    -347.0337763808851150    -1.96e-07  2.58e-06  9.35e-05  2.67e-05     6.6
   10    -347.0337763937826594    -1.29e-08  2.61e-06  1.28e-04  1.23e-05     6.1
                 **** Energy Check signals convergence ****

               *****************************************************
               *                     SUCCESS                       *
               *           SCF CONVERGED AFTER  10 CYCLES          *
               *****************************************************


------------------
NL GRID GENERATION
------------------

General Integration Accuracy     IntAcc      ... 4.004
Radial Grid Type                 RadialGrid  ... OptM3 with GC (2021)
Angular Grid (max. ang.)         AngularGrid ... 2 (Lebedev-110)
Angular grid pruning method      GridPruning ... 4 (adaptive)
Weight generation scheme         WeightScheme... mBecke (2022)
Basis function cutoff            BFCut       ... 1.0000e-10
Integration weight cutoff        WCut        ... 1.0000e-14
Partially contracted basis set               ... off
Rotationally invariant grid construction     ... off
Angular grids for H and He will be reduced by one unit

Total number of grid points                  ...    23227
Total number of batches                      ...      372
Average number of points per batch           ...       62
Average number of grid points per atom       ...     1452
Final grid set up in    0.1 sec

-------------------------------------------------------------------------------
                    post-SCF DFT-NL dispersion correction                      
-------------------------------------------------------------------------------

SCF Energy:     -347.033776394 
NL    Energy:      0.221639734 
SC+NL Energy:   -346.812136660 
NL done in  :              1.6 sec
-------------------------------------------------------------------------------
Recomputing exchange energy using gridx3       ... done (   19.130 sec)
Old exchange energy                            :    -15.468687408 Eh
New exchange energy                            :    -15.468684779 Eh
Exchange energy change after final integration :      0.000002629 Eh
Total energy after final integration           :   -346.812134031 Eh
             **** ENERGY FILE WAS UPDATED (sp.en.tmp) ****

----------------
TOTAL SCF ENERGY
----------------

Total Energy       :       -346.81213403117744 Eh           -9437.23795 eV

Components:
Nuclear Repulsion  :        342.60287193788724 Eh            9322.69810 eV
Electronic Energy  :       -689.63664833166990 Eh          -18765.96724 eV
One Electron Energy:      -1147.38016461273037 Eh          -31221.80156 eV
Two Electron Energy:        457.74351628106047 Eh           12455.83432 eV

Virial components:
Potential Energy   :       -692.27058017156173 Eh          -18837.64017 eV
Kinetic Energy     :        345.45844614038430 Eh            9400.40223 eV
Virial Ratio       :          2.00391852596432

DFT components:
N(Alpha)           :       29.000011776149 electrons
N(Beta)            :       29.000011776149 electrons
N(Total)           :       58.000023552299 electrons
E(X)               :      -31.896313384706 Eh       
E(C)               :       -2.396739037924 Eh       
NL Energy, E(C,NL) :        0.221639733587 Eh       
E(XC)              :      -34.071412689043 Eh       

---------------
SCF CONVERGENCE
---------------

  Last Energy change         ...    1.2898e-08  Tolerance :   1.0000e-07
  Last MAX-Density change    ...    1.2787e-04  Tolerance :   1.0000e-05
  Last RMS-Density change    ...    2.6062e-06  Tolerance :   1.0000e-06
  Last DIIS Error            ...    1.4290e-03  Tolerance :   1.0000e-07
  Last Orbital Gradient      ...    1.2333e-05  Tolerance :   1.0000e-04
  Last Orbital Rotation      ...    3.2279e-05  Tolerance :   1.0000e-04


----------------
ORBITAL ENERGIES
----------------

  NO   OCC          E(Eh)            E(eV) 
   0   2.0000     -19.243190      -523.6338 
   1   2.0000     -10.334541      -281.2172 
   2   2.0000     -10.276808      -279.6462 
   3   2.0000     -10.275616      -279.6137 
   4   2.0000     -10.274222      -279.5758 
   5   2.0000     -10.273943      -279.5682 
   6   2.0000     -10.269102      -279.4365 
   7   2.0000     -10.266375      -279.3623 
   8   2.0000      -1.192537       -32.4506 
   9   2.0000      -0.993520       -27.0351 
  10   2.0000      -0.901274       -24.5249 
  11   2.0000      -0.882683       -24.0190 
  12   2.0000      -0.811302       -22.0767 
  13   2.0000      -0.747530       -20.3413 
  14   2.0000      -0.712423       -19.3860 
  15   2.0000      -0.662169       -18.0185 
  16   2.0000      -0.602998       -16.4084 
  17   2.0000      -0.580330       -15.7916 
  18   2.0000      -0.547106       -14.8875 
  19   2.0000      -0.538768       -14.6606 
  20   2.0000      -0.532583       -14.4923 
  21   2.0000      -0.519095       -14.1253 
  22   2.0000      -0.513655       -13.9773 
  23   2.0000      -0.480968       -13.0878 
  24   2.0000      -0.459396       -12.5008 
  25   2.0000      -0.440542       -11.9878 
  26   2.0000      -0.440374       -11.9832 
  27   2.0000      -0.350465        -9.5366 
  28   2.0000      -0.310350        -8.4450 
  29   0.0000       0.065238         1.7752 
  30   0.0000       0.085659         2.3309 
  31   0.0000       0.110170         2.9979 
  32   0.0000       0.121883         3.3166 
  33   0.0000       0.145868         3.9693 
  34   0.0000       0.155430         4.2295 
  35   0.0000       0.185997         5.0612 
  36   0.0000       0.190473         5.1830 
  37   0.0000       0.199165         5.4196 
  38   0.0000       0.210434         5.7262 
  39   0.0000       0.231057         6.2874 
*Only the first 10 virtual orbitals were printed.

                    ********************************
                    * MULLIKEN POPULATION ANALYSIS *
                    ********************************

-----------------------
MULLIKEN ATOMIC CHARGES
-----------------------
   0 C :   -0.361119
   1 C :    0.146092
   2 C :   -0.207751
   3 C :   -0.188879
   4 C :    0.233153
   5 C :   -0.177720
   6 C :   -0.176168
   7 O :   -0.391576
   8 H :    0.113153
   9 H :    0.121399
  10 H :    0.121677
  11 H :    0.113500
  12 H :    0.107151
  13 H :    0.120531
  14 H :    0.115582
  15 H :    0.310975
Sum of atomic charges:    0.0000000

--------------------------------
MULLIKEN REDUCED ORBITAL CHARGES
--------------------------------
  0 C s       :     3.264215  s :     3.264215
      pz      :     1.057896  p :     3.037093
      px      :     0.903001
      py      :     1.076195
      dz2     :     0.005438  d :     0.056504
      dxz     :     0.021300
      dyz     :     0.005634
      dx2y2   :     0.007354
      dxy     :     0.016777
      f0      :     0.000322  f :     0.003307
      f+1     :     0.000362
      f-1     :     0.000652
      f+2     :     0.000453
      f-2     :    -0.000048
      f+3     :     0.000736
      f-3     :     0.000829

  1 C s       :     3.146188  s :     3.146188
      pz      :     0.942070  p :     2.559443
      px      :     0.784020
      py      :     0.833354
      dz2     :     0.005654  d :     0.138298
      dxz     :     0.023923
      dyz     :     0.022263
      dx2y2   :     0.041043
      dxy     :     0.045415
      f0      :     0.001728  f :     0.009979
      f+1     :     0.000852
      f-1     :     0.000597
      f+2     :     0.000897
      f-2     :     0.001110
      f+3     :     0.001348
      f-3     :     0.003447

  2 C s       :     3.190532  s :     3.190532
      pz      :     0.971645  p :     2.916165
      px      :     0.981235
      py      :     0.963285
      dz2     :     0.004289  d :     0.093389
      dxz     :     0.023125
      dyz     :     0.009264
      dx2y2   :     0.024957
      dxy     :     0.031754
      f0      :     0.001617  f :     0.007665
      f+1     :     0.000650
      f-1     :     0.000649
      f+2     :     0.000999
      f-2     :     0.000479
      f+3     :     0.001094
      f-3     :     0.002178

  3 C s       :     3.173794  s :     3.173794
      pz      :     1.054588  p :     2.930968
      px      :     0.952428
      py      :     0.923953
      dz2     :     0.006543  d :     0.076778
      dxz     :     0.017985
      dyz     :     0.008818
      dx2y2   :     0.018152
      dxy     :     0.025279
      f0      :     0.001645  f :     0.007339
      f+1     :     0.000641
      f-1     :     0.000704
      f+2     :     0.000925
      f-2     :     0.000379
      f+3     :     0.001113
      f-3     :     0.001934

  4 C s       :     3.034849  s :     3.034849
      pz      :     0.910614  p :     2.543439
      px      :     0.714530
      py      :     0.918296
      dz2     :     0.005362  d :     0.172955
      dxz     :     0.046698
      dyz     :     0.024969
      dx2y2   :     0.034754
      dxy     :     0.061172
      f0      :     0.002574  f :     0.015604
      f+1     :     0.001303
      f-1     :     0.000726
      f+2     :     0.002545
      f-2     :     0.001173
      f+3     :     0.001947
      f-3     :     0.005336

  5 C s       :     3.206308  s :     3.206308
      pz      :     1.015069  p :     2.884715
      px      :     0.921676
      py      :     0.947970
      dz2     :     0.004183  d :     0.079059
      dxz     :     0.018216
      dyz     :     0.009913
      dx2y2   :     0.019487
      dxy     :     0.027259
      f0      :     0.001670  f :     0.007638
      f+1     :     0.000693
      f-1     :     0.000724
      f+2     :     0.000908
      f-2     :     0.000471
      f+3     :     0.001062
      f-3     :     0.002110

  6 C s       :     3.200840  s :     3.200840
      pz      :     0.967296  p :     2.879082
      px      :     0.942828
      py      :     0.968958
      dz2     :     0.003991  d :     0.088714
      dxz     :     0.021235
      dyz     :     0.009437
      dx2y2   :     0.022835
      dxy     :     0.031216
      f0      :     0.001588  f :     0.007533
      f+1     :     0.000640
      f-1     :     0.000659
      f+2     :     0.000945
      f-2     :     0.000457
      f+3     :     0.001065
      f-3     :     0.002180

  7 O s       :     3.743116  s :     3.743116
      pz      :     1.841006  p :     4.614616
      px      :     1.328422
      py      :     1.445188
      dz2     :     0.004494  d :     0.032129
      dxz     :     0.005066
      dyz     :     0.001668
      dx2y2   :     0.013076
      dxy     :     0.007824
      f0      :     0.000233  f :     0.001716
      f+1     :     0.000364
      f-1     :     0.000321
      f+2     :     0.000112
      f-2     :     0.000021
      f+3     :     0.000446
      f-3     :     0.000218

  8 H s       :     0.865596  s :     0.865596
      pz      :     0.004279  p :     0.021251
      px      :     0.005584
      py      :     0.011389

  9 H s       :     0.857652  s :     0.857652
      pz      :     0.009306  p :     0.020949
      px      :     0.005416
      py      :     0.006227

 10 H s       :     0.857355  s :     0.857355
      pz      :     0.009836  p :     0.020968
      px      :     0.005391
      py      :     0.005741

 11 H s       :     0.864581  s :     0.864581
      pz      :     0.004523  p :     0.021920
      px      :     0.005993
      py      :     0.011404

 12 H s       :     0.870718  s :     0.870718
      pz      :     0.005047  p :     0.022131
      px      :     0.005683
      py      :     0.011400

 13 H s       :     0.857284  s :     0.857284
      pz      :     0.004752  p :     0.022185
      px      :     0.006231
      py      :     0.011202

 14 H s       :     0.862604  s :     0.862604
      pz      :     0.004441  p :     0.021813
      px      :     0.005966
      py      :     0.011406

 15 H s       :     0.642270  s :     0.642270
      pz      :     0.016263  p :     0.046756
      px      :     0.011742
      py      :     0.018750


------------------------
MULLIKEN OVERLAP CHARGES
------------------------
B(  0-C ,  1-C ) :   0.6236 B(  0-C ,  2-C ) :  -0.1498 B(  0-C ,  6-C ) :  -0.1581 
B(  0-C ,  8-H ) :   0.8581 B(  0-C ,  9-H ) :   0.8275 B(  0-C , 10-H ) :   0.8183 
B(  1-C ,  2-C ) :   0.9649 B(  1-C ,  3-C ) :   0.0835 B(  1-C ,  4-C ) :  -0.1691 
B(  1-C ,  6-C ) :   0.9420 B(  1-C ,  8-H ) :  -0.1236 B(  1-C ,  9-H ) :  -0.0805 
B(  1-C , 10-H ) :  -0.0737 B(  1-C , 11-H ) :  -0.0753 B(  1-C , 14-H ) :  -0.1125 
B(  2-C ,  3-C ) :   0.4484 B(  2-C ,  4-C ) :   0.1954 B(  2-C ,  5-C ) :  -0.1331 
B(  2-C , 11-H ) :   0.8094 B(  3-C ,  4-C ) :   0.7001 B(  3-C ,  6-C ) :  -0.1750 
B(  3-C ,  7-O ) :  -0.1968 B(  3-C , 11-H ) :  -0.0580 B(  3-C , 12-H ) :   0.8398 
B(  4-C ,  5-C ) :   0.9866 B(  4-C ,  7-O ) :   0.7707 B(  4-C , 12-H ) :  -0.1156 
B(  4-C , 13-H ) :  -0.0971 B(  4-C , 15-H ) :  -0.0682 B(  5-C ,  6-C ) :   0.9818 
B(  5-C ,  7-O ) :  -0.0892 B(  5-C , 13-H ) :   0.8560 B(  5-C , 14-H ) :  -0.1083 
B(  6-C , 13-H ) :  -0.1072 B(  6-C , 14-H ) :   0.8744 B(  7-O , 15-H ) :   0.6156 
B(  9-H , 10-H ) :  -0.0687 


                     *******************************
                     * LOEWDIN POPULATION ANALYSIS *
                     *******************************

----------------------
LOEWDIN ATOMIC CHARGES
----------------------
   0 C :   -0.255461
   1 C :   -0.183695
   2 C :   -0.117074
   3 C :   -0.147387
   4 C :   -0.270480
   5 C :   -0.120164
   6 C :   -0.108467
   7 O :    0.069910
   8 H :    0.123041
   9 H :    0.125404
  10 H :    0.125532
  11 H :    0.143715
  12 H :    0.139383
  13 H :    0.147326
  14 H :    0.145552
  15 H :    0.182865

-------------------------------
LOEWDIN REDUCED ORBITAL CHARGES
-------------------------------
  0 C s       :     2.814675  s :     2.814675
      pz      :     1.070339  p :     3.159790
      px      :     1.024948
      py      :     1.064503
      dz2     :     0.033897  d :     0.256299
      dxz     :     0.074019
      dyz     :     0.028579
      dx2y2   :     0.049682
      dxy     :     0.070121
      f0      :     0.002097  f :     0.024697
      f+1     :     0.003492
      f-1     :     0.003119
      f+2     :     0.003385
      f-2     :     0.002640
      f+3     :     0.004412
      f-3     :     0.005552

  1 C s       :     2.711392  s :     2.711392
      pz      :     0.855473  p :     2.894895
      px      :     0.989605
      py      :     1.049817
      dz2     :     0.032101  d :     0.519644
      dxz     :     0.072844
      dyz     :     0.074438
      dx2y2   :     0.178757
      dxy     :     0.161503
      f0      :     0.004148  f :     0.057764
      f+1     :     0.003958
      f-1     :     0.004262
      f+2     :     0.005942
      f-2     :     0.007549
      f+3     :     0.008864
      f-3     :     0.023040

  2 C s       :     2.756142  s :     2.756142
      pz      :     0.886067  p :     2.924978
      px      :     1.039511
      py      :     0.999400
      dz2     :     0.025598  d :     0.392949
      dxz     :     0.072983
      dyz     :     0.028138
      dx2y2   :     0.121395
      dxy     :     0.144836
      f0      :     0.003031  f :     0.043005
      f+1     :     0.003967
      f-1     :     0.003385
      f+2     :     0.006673
      f-2     :     0.003079
      f+3     :     0.007825
      f-3     :     0.015045

  3 C s       :     2.759011  s :     2.759011
      pz      :     0.943817  p :     2.975972
      px      :     1.043472
      py      :     0.988683
      dz2     :     0.026383  d :     0.369989
      dxz     :     0.062144
      dyz     :     0.026926
      dx2y2   :     0.107033
      dxy     :     0.147503
      f0      :     0.003108  f :     0.042415
      f+1     :     0.004116
      f-1     :     0.003656
      f+2     :     0.006332
      f-2     :     0.002951
      f+3     :     0.008004
      f-3     :     0.014248

  4 C s       :     2.717575  s :     2.717575
      pz      :     0.849832  p :     2.774551
      px      :     0.833815
      py      :     1.090904
      dz2     :     0.044252  d :     0.682085
      dxz     :     0.140967
      dyz     :     0.082656
      dx2y2   :     0.219985
      dxy     :     0.194226
      f0      :     0.007028  f :     0.096268
      f+1     :     0.008866
      f-1     :     0.004624
      f+2     :     0.017400
      f-2     :     0.007867
      f+3     :     0.015691
      f-3     :     0.034792

  5 C s       :     2.758168  s :     2.758168
      pz      :     0.916787  p :     2.954471
      px      :     1.043505
      py      :     0.994180
      dz2     :     0.025504  d :     0.365005
      dxz     :     0.060265
      dyz     :     0.027056
      dx2y2   :     0.106235
      dxy     :     0.145945
      f0      :     0.003167  f :     0.042520
      f+1     :     0.004105
      f-1     :     0.003569
      f+2     :     0.006189
      f-2     :     0.003005
      f+3     :     0.008180
      f-3     :     0.014305

  6 C s       :     2.755798  s :     2.755798
      pz      :     0.879809  p :     2.919501
      px      :     1.041467
      py      :     0.998226
      dz2     :     0.025465  d :     0.390239
      dxz     :     0.068879
      dyz     :     0.028703
      dx2y2   :     0.118940
      dxy     :     0.148251
      f0      :     0.002994  f :     0.042929
      f+1     :     0.003976
      f-1     :     0.003358
      f+2     :     0.006586
      f-2     :     0.003007
      f+3     :     0.007811
      f-3     :     0.015198

  7 O s       :     3.324799  s :     3.324799
      pz      :     1.725472  p :     4.529643
      px      :     1.365813
      py      :     1.438358
      dz2     :     0.008361  d :     0.070868
      dxz     :     0.013626
      dyz     :     0.000666
      dx2y2   :     0.024923
      dxy     :     0.023291
      f0      :     0.000398  f :     0.004780
      f+1     :     0.000695
      f-1     :     0.000445
      f+2     :     0.000563
      f-2     :     0.000015
      f+3     :     0.001291
      f-3     :     0.001373

  8 H s       :     0.817279  s :     0.817279
      pz      :     0.013280  p :     0.059680
      px      :     0.014388
      py      :     0.032011

  9 H s       :     0.814533  s :     0.814533
      pz      :     0.026794  p :     0.060063
      px      :     0.014576
      py      :     0.018693

 10 H s       :     0.814389  s :     0.814389
      pz      :     0.028160  p :     0.060080
      px      :     0.014550
      py      :     0.017370

 11 H s       :     0.798567  s :     0.798567
      pz      :     0.013290  p :     0.057718
      px      :     0.016007
      py      :     0.028422

 12 H s       :     0.802151  s :     0.802151
      pz      :     0.014759  p :     0.058466
      px      :     0.015570
      py      :     0.028137

 13 H s       :     0.793585  s :     0.793585
      pz      :     0.013908  p :     0.059089
      px      :     0.016723
      py      :     0.028459

 14 H s       :     0.796926  s :     0.796926
      pz      :     0.013015  p :     0.057521
      px      :     0.016110
      py      :     0.028397

 15 H s       :     0.665012  s :     0.665012
      pz      :     0.043362  p :     0.152123
      px      :     0.030790
      py      :     0.077970


---------------------------------
LOEWDIN BOND ORDERS (THRESH 0.050000)
---------------------------------
B(  0-C ,  1-C ) :   1.2136 B(  0-C ,  2-C ) :   0.1773 B(  0-C ,  6-C ) :   0.1739 
B(  0-C ,  8-H ) :   0.8964 B(  0-C ,  9-H ) :   0.8965 B(  0-C , 10-H ) :   0.8964 
B(  1-C ,  2-C ) :   1.5020 B(  1-C ,  3-C ) :   0.2327 B(  1-C ,  4-C ) :   0.0950 
B(  1-C ,  5-C ) :   0.2323 B(  1-C ,  6-C ) :   1.4692 B(  1-C ,  8-H ) :   0.0810 
B(  1-C ,  9-H ) :   0.0805 B(  1-C , 10-H ) :   0.0805 B(  1-C , 11-H ) :   0.0930 
B(  1-C , 14-H ) :   0.0921 B(  2-C ,  3-C ) :   1.5753 B(  2-C ,  4-C ) :   0.2434 
B(  2-C ,  5-C ) :   0.1084 B(  2-C ,  6-C ) :   0.2396 B(  2-C , 11-H ) :   0.8220 
B(  2-C , 12-H ) :   0.0951 B(  3-C ,  4-C ) :   1.5115 B(  3-C ,  5-C ) :   0.2295 
B(  3-C ,  6-C ) :   0.1091 B(  3-C ,  7-O ) :   0.1463 B(  3-C , 11-H ) :   0.0968 
B(  3-C , 12-H ) :   0.8259 B(  4-C ,  5-C ) :   1.4760 B(  4-C ,  6-C ) :   0.2454 
B(  4-C ,  7-O ) :   1.6348 B(  4-C , 12-H ) :   0.0967 B(  4-C , 13-H ) :   0.0970 
B(  4-C , 15-H ) :   0.1051 B(  5-C ,  6-C ) :   1.6054 B(  5-C ,  7-O ) :   0.1499 
B(  5-C , 13-H ) :   0.8240 B(  5-C , 14-H ) :   0.0975 B(  6-C , 13-H ) :   0.0961 
B(  6-C , 14-H ) :   0.8216 B(  7-O , 15-H ) :   0.9982 

------------------------------------------
LOEWDIN REDUCED ORBITAL POPULATIONS PER MO
-------------------------------------------
THRESHOLD FOR PRINTING IS 0.1%%
                      0         1         2         3         4         5   
                 -19.24319 -10.33454 -10.27681 -10.27562 -10.27422 -10.27394
                   2.00000   2.00000   2.00000   2.00000   2.00000   2.00000
                  --------  --------  --------  --------  --------  --------
 0 C  dx2y2           0.0       0.0       0.1       0.0       0.0       0.0
 1 C  s               0.0       0.0      93.0       4.7       0.1       0.9
 1 C  dxy             0.0       0.0       0.0       0.2       0.0       0.2
 2 C  s               0.0       0.0       4.9      90.2       3.8       0.0
 2 C  px              0.0       0.0       0.0       0.0       0.1       0.0
 2 C  dx2y2           0.0       0.0       0.0       0.0       0.2       0.0
 2 C  dxy             0.0       0.0       0.2       0.0       0.0       0.0
 3 C  s               0.0       0.0       0.0       3.7      94.9       0.1
 3 C  px              0.0       0.0       0.0       0.1       0.0       0.0
 3 C  py              0.0       0.1       0.0       0.0       0.0       0.0
 3 C  dx2y2           0.0       0.1       0.0       0.2       0.0       0.0
 3 C  dxy             0.0       0.2       0.0       0.0       0.0       0.0
 4 C  s               0.0      98.7       0.0       0.0       0.0       0.0
 4 C  dxy             0.0       0.0       0.0       0.0       0.2       0.0
 5 C  s               0.0       0.0       0.0       0.0       0.0       0.4
 5 C  px              0.0       0.0       0.0       0.0       0.0       0.1
 5 C  dx2y2           0.0       0.1       0.0       0.0       0.0       0.2
 5 C  dxy             0.0       0.2       0.0       0.0       0.0       0.0
 6 C  s               0.0       0.0       0.7       0.2       0.1      97.5
 6 C  dxy             0.0       0.0       0.2       0.0       0.0       0.0
 7 O  s              99.8       0.0       0.0       0.0       0.0       0.0
 7 O  px              0.0       0.1       0.0       0.0       0.0       0.0

                      6         7         8         9        10        11   
                 -10.26910 -10.26638  -1.19254  -0.99352  -0.90127  -0.88268
                   2.00000   2.00000   2.00000   2.00000   2.00000   2.00000
                  --------  --------  --------  --------  --------  --------
 0 C  s               0.0      99.4       0.0       2.7      15.5       0.0
 0 C  px              0.0       0.0       0.0       1.8       1.6       0.0
 0 C  py              0.0       0.0       0.0       0.0       0.0       0.3
 0 C  dz2             0.0       0.0       0.0       0.1       0.1       0.0
 0 C  dx2y2           0.0       0.0       0.0       0.2       0.3       0.0
 1 C  s               0.0       0.0       0.0      13.8      12.3       0.0
 1 C  px              0.0       0.1       0.0       1.7       4.2       0.0
 1 C  py              0.0       0.0       0.0       0.0       0.0       8.4
 1 C  dz2             0.0       0.0       0.0       0.8       0.3       0.0
 1 C  dx2y2           0.0       0.1       0.0       0.0       0.0       0.0
 1 C  dxy             0.0       0.0       0.0       0.0       0.0       1.7
 1 C  f+3             0.0       0.0       0.0       0.1       0.1       0.0
 2 C  s               0.0       0.0       0.1      11.8       0.8      11.6
 2 C  px              0.0       0.0       0.1       0.3       6.2       2.2
 2 C  py              0.0       0.0       0.0       2.5       0.9       0.8
 2 C  dz2             0.0       0.0       0.0       0.6       0.0       0.2
 2 C  dx2y2           0.0       0.0       0.0       0.0       0.3       0.8
 2 C  dxy             0.0       0.0       0.0       0.1       0.7       0.0
 2 C  f+3             0.0       0.0       0.0       0.1       0.0       0.1
 3 C  s               0.0       0.0       1.0       9.2       4.4      13.5
 3 C  px              0.0       0.0       1.0       1.5       1.0       1.4
 3 C  py              0.0       0.0       0.8       1.5       1.2       0.7
 3 C  dz2             0.0       0.0       0.1       0.4       0.1       0.2
 3 C  dx2y2           0.0       0.0       0.0       0.0       0.5       0.7
 3 C  dxy             0.0       0.0       0.4       0.0       0.2       0.0
 3 C  f+3             0.0       0.0       0.0       0.1       0.0       0.1
 4 C  s               0.0       0.0      10.0       5.9       8.0       0.0
 4 C  px              0.0       0.0       8.9       6.0       2.6       0.0
 4 C  py              0.1       0.0       0.0       0.0       0.0      11.2
 4 C  dz2             0.1       0.0       1.3       0.2       0.1       0.0
 4 C  dx2y2           0.1       0.0       2.8       0.3       0.9       0.0
 4 C  dxy             0.2       0.0       0.0       0.0       0.0       1.7
 4 C  f+1             0.0       0.0       0.2       0.1       0.0       0.0
 4 C  f+3             0.1       0.0       0.5       0.0       0.0       0.0
 5 C  s              98.4       0.0       0.9       8.9       5.3      12.3
 5 C  px              0.0       0.0       1.0       1.4       1.0       1.3
 5 C  py              0.0       0.0       0.8       1.6       1.2       0.6
 5 C  dz2             0.0       0.0       0.1       0.4       0.1       0.2
 5 C  dx2y2           0.0       0.0       0.0       0.0       0.4       0.8
 5 C  dxy             0.0       0.0       0.3       0.0       0.3       0.0
 5 C  f+3             0.0       0.0       0.0       0.1       0.1       0.1
 6 C  s               0.4       0.0       0.1      11.6       0.5      11.6
 6 C  px              0.1       0.0       0.1       0.3       6.5       1.6
 6 C  py              0.0       0.0       0.0       2.5       1.0       0.6
 6 C  dz2             0.1       0.0       0.0       0.6       0.0       0.2
 6 C  dx2y2           0.2       0.0       0.0       0.0       0.4       0.7
 6 C  dxy             0.0       0.0       0.0       0.1       0.7       0.0
 6 C  f+3             0.1       0.0       0.0       0.1       0.0       0.1
 7 O  s               0.0       0.0      52.4       1.4       1.8       0.0
 7 O  px              0.0       0.0       1.2       0.8       2.8       0.0
 7 O  py              0.0       0.0       1.1       0.1       0.4       0.5
 7 O  dz2             0.0       0.0       0.1       0.0       0.0       0.0
 7 O  dx2y2           0.0       0.0       0.0       0.0       0.1       0.0
 8 H  s               0.0       0.1       0.0       0.5       3.4       0.0
 8 H  py              0.0       0.0       0.0       0.0       0.3       0.0
 9 H  s               0.0       0.1       0.0       0.5       3.3       0.0
 9 H  pz              0.0       0.0       0.0       0.0       0.2       0.0
10 H  s               0.0       0.1       0.0       0.5       3.3       0.0
10 H  pz              0.0       0.0       0.0       0.0       0.2       0.0
11 H  s               0.0       0.0       0.0       1.6       0.3       2.8
11 H  px              0.0       0.0       0.0       0.0       0.0       0.1
11 H  py              0.0       0.0       0.0       0.1       0.0       0.2
12 H  s               0.0       0.0       0.2       1.1       0.8       3.4
12 H  px              0.0       0.0       0.0       0.0       0.0       0.1
12 H  py              0.0       0.0       0.0       0.1       0.1       0.2
13 H  s               0.0       0.0       0.2       1.1       0.9       2.9
13 H  px              0.0       0.0       0.0       0.0       0.0       0.1
13 H  py              0.0       0.0       0.0       0.0       0.1       0.2
14 H  s               0.0       0.0       0.0       1.6       0.2       2.8
14 H  px              0.0       0.0       0.0       0.0       0.0       0.1
14 H  py              0.0       0.0       0.0       0.1       0.0       0.2
15 H  s               0.0       0.0      11.1       0.5       1.2       0.1
15 H  px              0.0       0.0       0.5       0.0       0.0       0.0
15 H  py              0.0       0.0       2.3       0.1       0.2       0.0

                     12        13        14        15        16        17   
                  -0.81130  -0.74753  -0.71242  -0.66217  -0.60300  -0.58033
                   2.00000   2.00000   2.00000   2.00000   2.00000   2.00000
                  --------  --------  --------  --------  --------  --------
 0 C  s              19.0       0.5       2.4       0.1       0.3       0.2
 0 C  px              1.4       0.3       3.9       0.2       5.1       9.4
 0 C  py              0.0       1.2       0.2       0.4       4.1       2.0
 0 C  dz2             0.0       0.0       0.1       0.0       0.2       0.0
 0 C  dx2y2           0.1       0.0       0.4       0.0       0.1       0.6
 0 C  dxy             0.0       0.3       0.0       0.0       0.1       0.0
 1 C  s               0.7       0.4       5.3       0.2       0.9       3.0
 1 C  px             11.7       0.2       0.7       0.5       2.3       2.4
 1 C  py              0.0      12.1       1.6       1.8       7.0       2.3
 1 C  dz2             0.0       0.0       0.1       0.0       0.0       0.1
 1 C  dx2y2           2.0       0.1       0.2       0.9       0.3       0.2
 1 C  dxy             0.0       0.5       0.0       0.0       0.2       0.1
 2 C  s               3.2       6.3       1.9       0.6       0.1       1.0
 2 C  px              0.0       6.1       1.3       0.3      16.6       0.9
 2 C  py              0.2       0.1       6.9       7.0       0.1       0.2
 2 C  dx2y2           0.5       0.3       0.4       0.0       0.1       0.1
 2 C  dxy             0.0       0.0       0.0       0.1       0.1       1.5
 3 C  s               0.4       6.4       0.7       0.7       0.1       1.1
 3 C  px              3.7       6.1       3.3       0.1      15.6       0.6
 3 C  py              1.0       0.2       4.5       9.8       0.1       7.8
 3 C  dx2y2           0.6       0.2       0.1       0.3       0.1       0.4
 3 C  dxy             0.3       0.0       0.0       0.1       0.0       1.1
 4 C  s               6.6       0.1       3.4       0.1       0.3       0.5
 4 C  px              0.1       0.8       1.0      11.6       0.5       0.6
 4 C  py              0.1      15.6       1.0       0.1       5.7       3.2
 4 C  dz2             0.0       0.0       0.1       0.0       0.0       0.1
 4 C  dx2y2           0.8       0.1       0.1       0.1       1.4       2.3
 4 C  dxy             0.0       0.0       0.3       0.8       0.9       0.0
 4 C  f-3             0.0       0.0       0.0       0.1       0.0       0.0
 5 C  s               0.3       1.9       6.4       0.5       0.6       1.3
 5 C  px              5.6       6.7       0.6       0.0       0.1      13.0
 5 C  py              1.2       0.2       5.6       4.2       5.6       1.2
 5 C  dx2y2           0.7       0.0       0.0       0.9       0.1       0.4
 5 C  dxy             0.4       0.0       0.1       0.3       0.0       1.0
 6 C  s               5.0       5.2       0.0       2.4       0.1       1.5
 6 C  px              0.0       1.5       8.6       3.5       1.2       3.2
 6 C  py              0.1       0.8       6.2       5.3       2.8       3.9
 6 C  dx2y2           0.5       0.0       0.8       0.0       0.0       0.2
 6 C  dxy             0.0       0.0       0.0       0.0       0.3       1.4
 7 O  s               1.2       0.2       0.4       0.1       2.3       0.1
 7 O  px              6.1       1.8      10.7      15.7       2.2       5.2
 7 O  py              1.0       6.0       1.2       9.0      10.2       0.2
 7 O  dx2y2           0.2       0.1       0.3       0.3       0.0       0.1
 7 O  dxy             0.0       0.1       0.1       0.1       0.0       0.1
 8 H  s               6.1       0.0       2.2       0.2       0.1       3.6
 8 H  py              0.5       0.0       0.2       0.0       0.0       0.2
 9 H  s               6.0       0.5       1.3       0.0       2.1       0.3
 9 H  pz              0.4       0.0       0.1       0.0       0.1       0.0
 9 H  py              0.2       0.0       0.0       0.0       0.0       0.0
10 H  s               6.0       0.5       1.3       0.0       1.9       0.4
10 H  pz              0.4       0.0       0.1       0.0       0.1       0.0
10 H  py              0.1       0.0       0.0       0.0       0.0       0.0
11 H  s               0.6       3.6       2.8       2.7       1.3       1.7
11 H  px              0.0       0.0       0.1       0.1       0.1       0.0
11 H  py              0.1       0.3       0.1       0.1       0.1       0.1
12 H  s               0.1       4.4       1.0       3.6       1.3       7.5
12 H  px              0.0       0.0       0.1       0.1       0.1       0.1
12 H  py              0.0       0.4       0.0       0.1       0.1       0.1
13 H  s               0.1       1.5       5.1       0.5       2.7       7.3
13 H  px              0.0       0.0       0.2       0.0       0.1       0.0
13 H  py              0.0       0.2       0.2       0.0       0.0       0.4
14 H  s               1.1       3.4       0.2       6.7       0.2       2.1
14 H  px              0.0       0.1       0.1       0.1       0.0       0.2
14 H  py              0.1       0.2       0.0       0.3       0.0       0.0
15 H  s               2.1       1.8       3.0       6.6       0.7       0.6
15 H  px              0.0       0.0       0.0       0.0       0.1       0.1
15 H  py              0.3       0.1       0.3       0.3       0.0       0.0

                     18        19        20        21        22        23   
                  -0.54711  -0.53877  -0.53258  -0.51909  -0.51365  -0.48097
                   2.00000   2.00000   2.00000   2.00000   2.00000   2.00000
                  --------  --------  --------  --------  --------  --------
 0 C  pz              0.0      23.6       0.0      22.9       0.0       0.0
 0 C  px              3.2       0.0       0.0       0.0       2.8       2.7
 0 C  py              2.9       0.0       0.9       0.0      17.9      20.8
 0 C  dz2             0.0       0.0       0.0       0.0       0.5       0.4
 0 C  dxz             0.0       0.0       0.0       0.2       0.0       0.0
 0 C  dyz             0.0       0.4       0.0       0.5       0.0       0.0
 0 C  dx2y2           0.1       0.0       0.0       0.0       0.0       0.3
 0 C  dxy             0.0       0.0       0.1       0.0       0.3       1.7
 1 C  s               0.2       0.0       0.0       0.0       0.0       0.0
 1 C  pz              0.0      11.1       0.0       2.0       0.0       0.0
 1 C  px              5.2       0.0       0.0       0.0       2.8       2.3
 1 C  py              1.7       0.0       2.1       0.0       1.2       2.7
 1 C  dxz             0.0       0.2       0.0       1.1       0.0       0.0
 1 C  dx2y2           0.9       0.0       0.0       0.0       0.0       0.2
 1 C  dxy             0.2       0.0       2.2       0.0       0.5       0.9
 1 C  f0              0.0       0.1       0.0       0.0       0.0       0.0
 1 C  f-3             0.0       0.0       0.3       0.0       0.2       0.4
 2 C  s               0.5       0.0       0.4       0.0       0.4       0.0
 2 C  pz              0.0       5.6       0.0       0.0       0.0       0.0
 2 C  px              0.8       0.0       3.6       0.0       0.0       3.0
 2 C  py             11.7       0.0       9.6       0.0       0.4       0.0
 2 C  dz2             0.0       0.0       0.1       0.0       0.0       0.0
 2 C  dxz             0.0       0.0       0.0       0.3       0.0       0.0
 2 C  dyz             0.0       0.2       0.0       0.0       0.0       0.0
 2 C  dx2y2           0.0       0.0       0.7       0.0       0.8       0.0
 2 C  dxy             1.6       0.0       0.0       0.0       0.1       0.0
 2 C  f-3             0.1       0.0       0.1       0.0       0.1       0.1
 3 C  s               0.5       0.0       0.3       0.0       0.6       0.1
 3 C  pz              0.0       5.9       0.0       3.7       0.0       0.0
 3 C  px              0.5       0.0       3.6       0.0       0.4       2.7
 3 C  py              3.6       0.0      10.0       0.0       0.2       1.0
 3 C  dz2             0.0       0.0       0.1       0.0       0.1       0.0
 3 C  dxz             0.0       0.0       0.0       0.2       0.0       0.0
 3 C  dyz             0.0       0.3       0.0       0.4       0.0       0.0
 3 C  dx2y2           0.1       0.0       0.9       0.0       0.6       0.1
 3 C  dxy             2.0       0.0       0.0       0.0       0.1       0.0
 3 C  f-3             0.3       0.0       0.2       0.0       0.0       0.0
 4 C  s               1.9       0.0       0.0       0.0       0.1       0.0
 4 C  pz              0.0      11.2       0.0      15.4       0.0       0.0
 4 C  px              4.3       0.0       0.1       0.0       3.4       0.5
 4 C  py              0.9       0.0       3.6       0.0       0.0       3.0
 4 C  dz2             0.2       0.0       0.0       0.0       0.0       0.0
 4 C  dxz             0.0       0.1       0.0       0.8       0.0       0.0
 4 C  dx2y2           0.2       0.0       0.0       0.0       0.1       0.1
 4 C  dxy             0.2       0.0       1.9       0.0       1.5       0.6
 4 C  f0              0.0       0.2       0.0       0.2       0.0       0.0
 4 C  f+2             0.0       0.0       0.0       0.1       0.0       0.0
 4 C  f-3             0.2       0.0       0.5       0.0       0.3       0.5
 5 C  s               0.1       0.0       0.2       0.0       0.2       0.0
 5 C  pz              0.0       5.7       0.0       3.4       0.0       0.0
 5 C  px              4.9       0.0       3.6       0.0       0.0       6.8
 5 C  py              4.4       0.0      14.3       0.0       1.3       0.1
 5 C  dxz             0.0       0.0       0.0       0.2       0.0       0.0
 5 C  dyz             0.0       0.3       0.0       0.4       0.0       0.0
 5 C  dx2y2           0.5       0.0       0.7       0.0       0.0       0.0
 5 C  dxy             0.9       0.0       0.1       0.0       0.6       0.0
 5 C  f-3             0.2       0.0       0.1       0.0       0.1       0.0
 6 C  s               0.1       0.0       0.5       0.0       0.1       0.1
 6 C  pz              0.0       5.8       0.0       0.0       0.0       0.0
 6 C  px              8.9       0.0       2.6       0.0       0.4       7.4
 6 C  py              3.8       0.0       7.7       0.0       4.9       0.8
 6 C  dz2             0.0       0.0       0.1       0.0       0.0       0.0
 6 C  dxz             0.0       0.0       0.0       0.3       0.0       0.0
 6 C  dyz             0.0       0.2       0.0       0.0       0.0       0.0
 6 C  dx2y2           0.1       0.0       0.6       0.0       0.0       0.4
 6 C  dxy             0.9       0.0       0.0       0.0       0.7       0.1
 6 C  f-3             0.2       0.0       0.2       0.0       0.0       0.0
 7 O  s               0.4       0.0       0.0       0.0       3.3       2.0
 7 O  pz              0.0      12.9       0.0      30.4       0.0       0.0
 7 O  px              2.1       0.0       0.0       0.0      11.1       2.7
 7 O  py              3.8       0.0       0.0       0.0      19.7      12.6
 7 O  dxz             0.0       0.1       0.0       0.1       0.0       0.0
 7 O  dxy             0.1       0.0       0.0       0.0       0.0       0.2
 8 H  s               2.4       0.0       0.5       0.0       5.7      14.3
 8 H  pz              0.0       0.3       0.0       0.3       0.0       0.0
 8 H  px              0.0       0.0       0.0       0.0       0.2       0.0
 8 H  py              0.1       0.0       0.0       0.0       0.0       0.2
 9 H  s               0.0       6.7       0.1       7.2       4.2       2.0
 9 H  pz              0.0       0.0       0.0       0.0       0.2       0.1
 9 H  px              0.0       0.1       0.0       0.1       0.0       0.1
 9 H  py              0.0       0.2       0.0       0.2       0.0       0.1
10 H  s               0.0       7.4       0.1       8.0       3.2       1.4
10 H  pz              0.0       0.0       0.0       0.0       0.2       0.1
10 H  px              0.0       0.1       0.0       0.1       0.0       0.1
10 H  py              0.0       0.1       0.0       0.1       0.1       0.2
11 H  s               8.6       0.0       6.0       0.0       0.8       0.4
11 H  px              0.1       0.0       0.0       0.0       0.0       0.0
11 H  py              0.1       0.0       0.1       0.0       0.0       0.0
12 H  s               3.9       0.0       6.6       0.0       0.2       0.0
13 H  s               0.5       0.0       9.2       0.0       1.3       0.6
13 H  px              0.1       0.0       0.1       0.0       0.0       0.0
13 H  py              0.0       0.0       0.1       0.0       0.0       0.1
14 H  s               5.9       0.0       4.1       0.0       3.7       0.5
14 H  py              0.2       0.0       0.0       0.0       0.1       0.1
15 H  s               1.8       0.0       0.0       0.0       1.1       1.7
15 H  pz              0.0       0.3       0.0       0.7       0.0       0.0
15 H  px              0.0       0.0       0.0       0.0       0.4       0.1
15 H  py              0.0       0.0       0.0       0.0       0.1       0.0

                     24        25        26        27        28        29   
                  -0.45940  -0.44054  -0.44037  -0.35046  -0.31035   0.06524
                   2.00000   2.00000   2.00000   2.00000   2.00000   0.00000
                  --------  --------  --------  --------  --------  --------
 0 C  s               0.5       0.0       0.0       0.0       0.0       0.0
 0 C  pz              0.0       5.8       0.0       0.0       1.2       0.3
 0 C  px             18.7       0.0       0.2       0.0       0.0       0.0
 0 C  py              1.0       0.0       1.6       0.0       0.0       0.0
 0 C  dxz             0.0       1.2       0.0       0.0       2.2       0.0
 0 C  dyz             0.0       0.3       0.0       0.0       0.2       0.6
 0 C  dx2y2           0.2       0.0       0.0       0.0       0.0       0.0
[...]
15 H  py              0.0       0.0       0.0       0.0       0.6       0.2

                    282       283       284       285       286       287   
                   6.50056   6.52423   6.81450   6.90600   7.08630   7.37730
                   0.00000   0.00000   0.00000   0.00000   0.00000   0.00000
                  --------  --------  --------  --------  --------  --------
 1 C  s               0.1       0.0       0.0       0.0       0.0       0.0
 1 C  f-3             0.1       0.0       0.0       0.0       0.0       0.0
 3 C  s               0.2       0.0       0.0       0.1       0.3       0.5
 3 C  px              0.0       0.0       0.0       0.2       0.0       0.3
 3 C  py              0.5       0.0       0.0       0.1       0.0       0.2
 3 C  dx2y2           0.4       0.0       0.0       0.2       0.0       0.1
 3 C  dxy             0.0       0.0       0.0       0.0       0.0       0.1
 3 C  f+3             0.0       0.0       0.0       0.0       0.1       0.1
 3 C  f-3             0.2       0.0       0.0       0.0       0.0       0.1
 4 C  s               0.9       0.0       0.0       0.7       1.1       0.7
 4 C  pz              0.0       0.0       0.6       0.0       0.0       0.0
 4 C  px              0.6       0.0       0.0       0.5       1.4       0.0
 4 C  py              0.0       0.0       0.0       0.4       0.1       0.1
 4 C  dz2             0.4       0.0       0.0       0.1       0.1       0.1
 4 C  dxz             0.0       0.0       1.5       0.0       0.0       0.0
 4 C  dyz             0.0       0.5       0.0       0.0       0.0       0.0
 4 C  dx2y2           1.1       0.0       0.0       1.2       0.7       0.5
 4 C  dxy             0.2       0.0       0.0       1.2       0.3       1.3
 4 C  f0              0.0       0.0       0.3       0.0       0.0       0.0
 4 C  f+1             0.0       0.0       0.0       0.0       0.2       0.0
 4 C  f+2             0.0       0.0       0.6       0.0       0.0       0.0
 4 C  f+3             0.1       0.0       0.0       0.1       1.0       0.1
 4 C  f-3             5.0       0.0       0.0       0.1       0.0       2.1
 5 C  s               0.0       0.0       0.0       0.1       0.4       0.0
 5 C  pz              0.0       0.1       0.0       0.0       0.0       0.0
 5 C  px              0.9       0.0       0.0       0.1       0.1       0.1
 5 C  py              0.2       0.0       0.0       0.0       0.1       0.0
 5 C  dx2y2           0.5       0.0       0.0       0.1       0.0       0.1
 5 C  f+1             0.1       0.0       0.0       0.0       0.0       0.0
 5 C  f+3             0.0       0.0       0.0       0.0       0.1       0.0
 5 C  f-3             1.7       0.0       0.0       0.0       0.0       0.1
 6 C  s               0.1       0.0       0.0       0.0       0.1       0.0
 6 C  px              0.2       0.0       0.0       0.1       0.0       0.0
 6 C  dxy             0.2       0.0       0.0       0.0       0.0       0.0
 6 C  f-3             0.3       0.0       0.0       0.0       0.0       0.0
 7 O  s               4.0       0.0       0.0       1.9       1.0       2.6
 7 O  pz              0.0       0.1       0.9       0.0       0.0       0.0
 7 O  px              0.1       0.0       0.0       0.1       2.2       0.3
 7 O  py              1.3       0.0       0.0       3.6       0.4       0.5
 7 O  dz2            25.8       0.0       0.0      46.1       8.8       5.4
 7 O  dxz             0.0       0.1      82.4       0.0       0.0       0.0
 7 O  dyz             0.0      95.7       0.1       0.0       0.0       0.0
 7 O  dx2y2           3.9       0.0       0.0       2.7      69.3       7.3
 7 O  dxy            14.9       0.0       0.0      26.9       5.0      43.7
 7 O  f0              0.0       1.8       3.7       0.0       0.0       0.0
 7 O  f+1             0.3       0.0       0.0       1.2       2.7       0.4
 7 O  f-1             1.4       0.0       0.0       5.4       0.7       2.7
 7 O  f+2             0.0       0.8       9.4       0.0       0.0       0.0
 7 O  f-2             0.0       0.0       0.2       0.0       0.0       0.0
 7 O  f+3            21.8       0.0       0.0       4.2       2.9      10.0
 7 O  f-3             6.6       0.0       0.0       0.3       0.1      13.6
15 H  s               3.2       0.0       0.0       2.0       0.2       6.0
15 H  pz              0.0       0.4       0.0       0.0       0.0       0.0
15 H  px              0.3       0.0       0.0       0.1       0.0       0.0
15 H  py              1.2       0.0       0.0       0.1       0.0       0.3

                    288       289       290       291       292       293   
                  22.12878  22.51317  22.77956  22.79591  22.82846  23.02080
                   0.00000   0.00000   0.00000   0.00000   0.00000   0.00000
                  --------  --------  --------  --------  --------  --------
 0 C  s               0.4      91.7       0.0       3.8       2.2       0.1
 1 C  s              11.3       0.8       0.2      12.5       2.3      37.7
 1 C  px              0.1       0.3       0.0       0.0       0.0       0.1
 1 C  py              0.0       0.0       0.3       0.0       0.4       0.0
 1 C  dx2y2           0.0       0.2       0.0       0.0       0.0       0.0
 1 C  dxy             0.0       0.0       0.1       0.0       0.3       0.0
 2 C  s              20.7       0.9       7.7      33.5      21.5       4.4
 2 C  px              0.0       0.0       0.1       0.3       0.1       0.1
 3 C  s              19.3       0.7      37.3      29.4       0.1       4.6
 3 C  px              0.1       0.0       0.1       0.3       0.0       0.0
 4 C  s               9.4       0.7       1.0      14.0       2.9      40.1
 4 C  px              0.2       0.0       0.0       0.0       0.0       0.0
 4 C  py              0.0       0.0       0.7       0.0       0.0       0.0
 4 C  dxy             0.0       0.0       0.3       0.0       0.0       0.0
 5 C  s              18.8       0.4      48.2       3.6      10.6       7.5
 5 C  px              0.1       0.0       0.0       0.1       0.2       0.0
 6 C  s              18.5       3.3       3.2       0.9      58.6       4.4
 6 C  px              0.0       0.0       0.2       0.2       0.1       0.1
 7 O  s               0.2       0.0       0.0       0.0       0.0       0.1
 7 O  px              0.1       0.0       0.0       0.0       0.0       0.1
 8 H  s               0.0       0.1       0.0       0.0       0.0       0.0
 9 H  s               0.0       0.2       0.0       0.0       0.0       0.0
10 H  s               0.0       0.2       0.0       0.0       0.0       0.0
14 H  s               0.1       0.0       0.0       0.0       0.1       0.0

                    294       295   
                  23.40053  43.99409
                   0.00000   0.00000
                  --------  --------
 0 C  s               0.1       0.0
 1 C  s              33.8       0.0
 2 C  s               9.5       0.0
 3 C  s               6.9       0.0
 4 C  s              29.7       0.0
 5 C  s               9.1       0.0
 6 C  s               9.2       0.0
 7 O  s               0.1      99.8
 7 O  px              0.1       0.0


                      *****************************
                      * MAYER POPULATION ANALYSIS *
                      *****************************

  NA   - Mulliken gross atomic population
  ZA   - Total nuclear charge
  QA   - Mulliken gross atomic charge
  VA   - Mayer's total valence
  BVA  - Mayer's bonded valence
  FA   - Mayer's free valence

  ATOM       NA         ZA         QA         VA         BVA        FA
  0 C      6.3611     6.0000    -0.3611     3.8801     3.8801     0.0000
  1 C      5.8539     6.0000     0.1461     3.7277     3.7277     0.0000
  2 C      6.2078     6.0000    -0.2078     4.0171     4.0171    -0.0000
  3 C      6.1889     6.0000    -0.1889     3.8667     3.8667     0.0000
  4 C      5.7668     6.0000     0.2332     4.0478     4.0478     0.0000
  5 C      6.1777     6.0000    -0.1777     3.9500     3.9500     0.0000
  6 C      6.1762     6.0000    -0.1762     3.9428     3.9428    -0.0000
  7 O      8.3916     8.0000    -0.3916     2.0895     2.0895     0.0000
  8 H      0.8868     1.0000     0.1132     0.9779     0.9779     0.0000
  9 H      0.8786     1.0000     0.1214     0.9651     0.9651     0.0000
 10 H      0.8783     1.0000     0.1217     0.9642     0.9642     0.0000
 11 H      0.8865     1.0000     0.1135     0.9734     0.9734     0.0000
 12 H      0.8928     1.0000     0.1072     0.9767     0.9767     0.0000
 13 H      0.8795     1.0000     0.1205     0.9843     0.9843     0.0000
 14 H      0.8844     1.0000     0.1156     0.9702     0.9702     0.0000
 15 H      0.6890     1.0000     0.3110     0.9180     0.9180     0.0000

  Mayer bond orders larger than 0.100000
B(  0-C ,  1-C ) :   0.9117 B(  0-C ,  8-H ) :   0.9969 B(  0-C ,  9-H ) :   0.9785 
B(  0-C , 10-H ) :   0.9753 B(  1-C ,  2-C ) :   1.4369 B(  1-C ,  6-C ) :   1.3641 
B(  2-C ,  3-C ) :   1.4210 B(  2-C , 11-H ) :   0.9564 B(  3-C ,  4-C ) :   1.3770 
B(  3-C , 12-H ) :   0.9602 B(  4-C ,  5-C ) :   1.3970 B(  4-C ,  7-O ) :   1.1446 
B(  5-C ,  6-C ) :   1.4646 B(  5-C , 13-H ) :   0.9765 B(  6-C , 14-H ) :   0.9793 
B(  7-O , 15-H ) :   0.8922 

-------
TIMINGS
-------

Total SCF time: 0 days 0 hours 1 min 27 sec 

Total time                  ....      87.031 sec
Sum of individual times     ....      85.418 sec  ( 98.1%)

SCF preparation             ....       0.053 sec  (  0.1%)
Fock matrix formation       ....      84.940 sec  ( 97.6%)
  Startup                   ....       0.003 sec  (  0.0% of F)
  Split-RI-J                ....       3.207 sec  (  3.8% of F)
  Chain of spheres X        ....      75.454 sec  ( 88.8% of F)
  XC integration            ....       7.839 sec  (  9.2% of F)
    Basis function eval.    ....       1.929 sec  ( 24.6% of XC)
    Density eval.           ....       1.736 sec  ( 22.1% of XC)
    XC-Functional eval.     ....       1.901 sec  ( 24.3% of XC)
    XC-Potential eval.      ....       2.177 sec  ( 27.8% of XC)
Diagonalization             ....       0.000 sec  (  0.0%)
Density matrix formation    ....       0.014 sec  (  0.0%)
Total Energy calculation    ....       0.003 sec  (  0.0%)
Population analysis         ....       0.158 sec  (  0.2%)
Orbital Transformation      ....       0.025 sec  (  0.0%)
Orbital Orthonormalization  ....       0.000 sec  (  0.0%)
DIIS solution               ....       0.077 sec  (  0.1%)
  MO trafo                  ....       0.000 sec  (  0.0 % of DIIS)
  Orb grad                  ....       0.000 sec  (  0.0 % of DIIS)
  Energy W gradient         ....       0.000 sec  (  0.0 % of DIIS)
  DIIS error                ....       0.010 sec  ( 12.9 % of DIIS)
  DIIS work                 ....       0.053 sec  ( 69.1 % of DIIS)
  Form Q                    ....       0.000 sec  (  0.0 % of DIIS)
  Form QpQm                 ....       0.000 sec  (  0.0 % of DIIS)
  Exp/Cayley                ....       0.000 sec  (  0.0 % of DIIS)
  Orb update                ....       0.000 sec  (  0.0 % of DIIS)
  Wake-sleep                ....       0.001 sec  (  0.7 % of DIIS)
SOSCF solution              ....       0.045 sec  (  0.1%)
  MO trafo                  ....       0.025 sec  ( 55.8 % of SOSCF)
  Orb grad                  ....       0.000 sec  (  0.7 % of SOSCF)
  Rot update                ....       0.001 sec  (  2.5 % of SOSCF)
  Step                      ....       0.018 sec  ( 40.9 % of SOSCF)
Grid generation             ....       0.104 sec  (  0.1%)
Finished LeanSCF after  87.0 sec

Maximum memory used throughout the entire LEANSCF-calculation: 39.5 MB
------------------   -----------------
gCP correction             0.008835877
------------------   -----------------

-------------------------   --------------------
FINAL SINGLE POINT ENERGY      -346.803298154377
-------------------------   --------------------


------------------------------------------------------------------------------
                              ORCA PROPERTY CALCULATIONS
------------------------------------------------------------------------------

GBWName                                 ... sp.gbw
Number of atoms                         ...     16
Number of basis functions               ...    296
Max core memory                         ...   1024 MB

Electric properties:
Dipole moment                           ... YES
Quadrupole moment                       ...  NO
Static polarizability (Dipole/Dipole)   ...  NO
Static polarizability (Dipole/Quad.)    ...  NO
Static polarizability (Quad./Quad.)     ...  NO
Static polarizability (Velocity)        ...  NO

Atomic electric properties:
Dipole moment                           ...  NO
Quadrupole moment                       ...  NO
Static polarizability                   ...  NO

Choice of electric origin               ... Center of mass
Position of electric origin             ...     0.007655     0.000419    -0.000166

General magnetic properties:
Magnetizability                         ...  NO

EPR properties:
g-Tensor (aka g-matrix)                 ...  NO
Zero-Field splitting spin-orbit         ...  NO
Zero-field splitting spin-spin          ...  NO
Hyperfine couplings                     ...  NO (   0 nuclei)
Quadrupole couplings                    ...  NO (   0 nuclei)
Contact density                         ...  NO (   0 nuclei)

NMR properties:
Chemical shifts                         ...  NO (   0 nuclei)
Spin-rotation constants                 ...  NO (   0 nuclei)
Spin-spin couplings                     ...  NO (   0 nuclei,    0 pairs)

Choice of magnetic origin               ... GIAO
Position of magnetic origin             ...     0.000000     0.000000     0.000000

Properties with geometric perturbations:
SCF Hessian                             ...  NO
IR spectrum                             ...  NO
VCD spectrum                            ...  NO
X-ray spectroscopy properties:
SCF XES/XAS/RIXS spectra                ...  NO


-------------
DIPOLE MOMENT
-------------

Method             : SCF
Type of density    : Electron Density
Multiplicity       :   1
Irrep              :   0
Energy             :  -346.8121340311774361 Eh
Relativity type    : 
Basis              : AO
                                X                 Y                 Z
Electronic contribution:      6.331917257       0.278469157       0.003979839
Nuclear contribution   :     -6.484336287      -0.782551509      -0.005354598
                        -----------------------------------------
Total Dipole Moment    :     -0.152419030      -0.504082352      -0.001374760
                        -----------------------------------------
Magnitude (a.u.)       :      0.526623649
Magnitude (Debye)      :      1.338570938



--------------------
Rotational spectrum 
--------------------
 
Rotational constants in cm-1:             0.183976             0.048692             0.038780 
Rotational constants in MHz :          5515.456728          1459.743720          1162.584763 

Dipole components along the rotational axes: 
x,y,z [a.u.] :    -0.153484     0.503759    -0.001421 
x,y,z [Debye]:    -0.390125     1.280454    -0.003612 

 

Dipole moment calculation done in   0.0 sec 

Maximum memory used throughout the entire PROP-calculation: 25.1 MB

--------------------------------
SUGGESTED CITATIONS FOR THIS RUN
--------------------------------

Below you find a list of papers that are relevant to this ORCA run
We neither can nor want to force you to cite these papers, but we appreciate if you do
You receive ORCA, which is the product of decades of hard work by many enthusiastic individuals, for free
The only thing we kindly ask in return is that you cite our papers,
We deeply appreciate it, if you show your appreciation for ORCA by not just citing the generic ORCA reference.

Please note that relegating all ORCA citations to the supporting information does *not* help us.
SI sections are not indexed - citations you put there will not count into any citation statistics
But we need these citations in order to attract the funding resources that allow us to do what we are doing

Therefore, if you are a happy ORCA user, please consider citing a few of the papers listed below in the main body of your paper

In addition to the list printed below, the program has created the file sp.bibtex that contains the list in bibtex format
You can import this file easily into all common literature databanks and citation aid programs


List of essential papers. We consider these as the minimum necessary citations

  1. Neese,F.
     Software update: the ORCA program system, version 5.0
     WIRES Comput. Molec. Sci., 2022 12(1)e1606
     doi.org/10.1002/wcms.1606

List of papers to cite with high priority. The work reported in these papers was absolutely
necessary for this run to complete.
Our perspective: the developers of density functionals and basis sets usually get cited in chemistry papers
Good! But without the algorithms to do something with them, the functionals or basis sets would not do anything.
Hence, in our opinion, the algorithm design and method developments papers are equally worthy of getting cited

  1. Neese,F.
     An improvement of the resolution of the identity approximation for the formation of the Coulomb matrix
     J. Comp. Chem., 2003 24(14)1740-1747
     doi.org/10.1002/jcc.10318
  2. Neese,F.; Wennmohs,F.; Hansen,A.; Becker,U.
     Efficient, approximate and parallel Hartree-Fock and hybrid DFT calculations. A 'chain-of-spheres' algorithm for the Hartree-Fock exchange
     Chem. Phys., 2009 356(1-3)98-109
     doi.org/10.1016/j.chemphys.2008.10.036
  3. Helmich-Paris,B.; de Souza,B.; Neese,F.; Izsák,R.
     An improved chain of spheres for exchange algorithm
     J. Chem. Phys., 2021 155 104109
     doi.org/doi: 10.1063/5.0058766.
  4. Neese,F.
     The SHARK Integral Generation and Digestion System
     J. Comp. Chem., 2022  1-16
     doi.org/10.1002/jcc.26942

List of suggested additional citations. These are papers that are important in the 'surrounding' of 
of this run, or papers that preceded the highly important papers. If you like your results we are grateful for a citation.

  1. Izsak,R.; Neese,F.
     An overlap fitted chain of spheres exchange method
     J. Chem. Phys., 2011 135 144105
     doi.org/10.1063/1.3646921
  2. Izsak,R.; Hansen,A.; Neese,F.
     The resolution of identity and chain of spheres approximations for the LPNO-CCSD singles Fock term
     Molec. Phys., 2012 110 2413-2417
     doi.org/10.1080/00268976.2012.687466
  3. Neese,F.
     The ORCA program system
     WIRES Comput. Molec. Sci., 2012 2(1)73-78
     doi.org/10.1002/wcms.81
  4. Izsak,R.; Neese,F.; Klopper,W.
     Robust fitting techniques in the chain of spheres approximation to the Fock exchange: The role of the complementary space
     J. Chem. Phys., 2013 139 
     doi.org/10.1063/1.4819264
  5. Neese,F.
     Software update: the ORCA program system, version 4.0
     WIRES Comput. Molec. Sci., 2018 8(1)1-6
     doi.org/10.1002/wcms.1327
  6. Neese,F.; Wennmohs,F.; Becker,U.; Riplinger,C.
     The ORCA quantum chemistry program package
     J. Chem. Phys., 2020 152 Art. No. L224108
     doi.org/10.1063/5.0004608

List of optional additional citations

  1. Neese,F.
     Approximate second-order SCF convergence for spin unrestricted wavefunctions
     Chem. Phys. Lett., 2000 325(1-3)93-98
     doi.org/10.1016/s0009-2614(00)00662-x

Timings for individual modules:

Sum of individual times          ...       88.289 sec (=   1.471 min)
Startup calculation              ...        1.121 sec (=   0.019 min)   1.3 %
SCF iterations                   ...       87.125 sec (=   1.452 min)  98.7 %
Property calculations            ...        0.043 sec (=   0.001 min)   0.0 %
                             ****ORCA TERMINATED NORMALLY****
TOTAL RUN TIME: 0 days 0 hours 1 minutes 28 seconds 337 msec
