12
 energy: -517.254335019192 gnorm: 0.017725337904 xtb: 6.7.1 (41059b4)
C           -2.17630944906438        0.26960716631947       -0.12754079345652
C           -0.91712864400640       -0.39317349037423        0.39484580327497
S            0.56519269955045        0.37333788526544       -0.35874805425897
C            1.83173355531169       -0.63127280407973        0.46412541160567
H           -2.17245758186267        1.33008935318940        0.11244744704983
H           -2.23936538619232        0.16283278297216       -1.20780012823521
H           -3.05353576845310       -0.18997547728418        0.32339489134330
H           -0.89826012079804       -1.45481775624467        0.14294875616334
H           -0.83030601496793       -0.27515702542193        1.47624515725416
H            1.69412167205071       -1.67711957544318        0.20232850558966
H            1.76343869348143       -0.49405983931893        1.54012685848247
H            2.79386550223804       -0.28187960752491        0.10527014224665
12
 energy: -517.254952203573 gnorm: 0.003501128885 xtb: 6.7.1 (41059b4)
C           -2.17581328546498        0.27250233221153       -0.13003192594033
C           -0.91389665375901       -0.39356769062394        0.39498205410573
S            0.56252818470290        0.38603580106803       -0.37001709151674
C            1.83109938164299       -0.62693404601868        0.46033471173675
H           -2.18325566110694        1.33814683489801        0.11036927783649
H           -2.25052616922383        0.16632595033931       -1.21474697409678
H           -3.05820291755343       -0.18739287149954        0.32144849566286
H           -0.90922487808407       -1.46162309421565        0.15309282265887
H           -0.84171757765803       -0.28559357632931        1.48237299944879
H            1.71292883249838       -1.68327392157001        0.20699899041342
H            1.78209657868476       -0.50042390824781        1.54457272988785
H            2.80497341543459       -0.28578977661461        0.10826803895118
12
 energy: -517.255017992103 gnorm: 0.002297621244 xtb: 6.7.1 (41059b4)
C           -2.18422438946449        0.27552709833299       -0.13223914083064
C           -0.92174536455669       -0.39234748558971        0.39426787418707
S            0.56411993240733        0.37845968955935       -0.36352906591145
C            1.84612041250529       -0.62777496758054        0.46030597708376
H           -2.19423396616120        1.34298904671318        0.10836654428010
H           -2.26175261842738        0.16937033035378       -1.21859681982733
H           -3.06957062195344       -0.18351606879219        0.31874901993382
H           -0.91955974706605       -1.46239244242281        0.15502583629430
H           -0.85204204720376       -0.28713553447419        1.48345077300673
H            1.73153938417668       -1.68677175959433        0.20761449651685
H            1.80051483741648       -0.50246841674942        1.54687189581078
H            2.82182369394259       -0.28552680588785        0.10735704986687
12
 energy: -517.255028757946 gnorm: 0.000888997491 xtb: 6.7.1 (41059b4)
C           -2.18288732912850        0.27616593880603       -0.13285769553692
C           -0.92235047586978       -0.39405551810208        0.39576351115969
S            0.56315128239838        0.37734856689930       -0.36261507182281
C            1.84574701008023       -0.62866813130242        0.46112533683844
H           -2.19261965517859        1.34341223307037        0.10767183414202
H           -2.26023987882651        0.16998897648074       -1.21899654248229
H           -3.06868432578103       -0.18230358154630        0.31775765058020
H           -0.92189081104406       -1.46377160381362        0.15563029607794
H           -0.85420489738827       -0.28782130895394        1.48481270316077
H            1.73390785813091       -1.68747054302028        0.20742349805945
H            1.80272570575846       -0.50252973960925        1.54745754932920
H            2.81833504543215       -0.28188251010487        0.10447131650614
12
 energy: -517.255032476096 gnorm: 0.000659484830 xtb: 6.7.1 (41059b4)
C           -2.18274786853010        0.27729457459983       -0.13379350100752
C           -0.92541377470008       -0.39683110955658        0.39822522398887
S            0.56112543981277        0.37368945853770       -0.35967346878132
C            1.84808520491140       -0.62970376809520        0.46194489097220
H           -2.18999074113093        1.34427679801816        0.10651232345727
H           -2.25792413576694        0.17100170015088       -1.21974548721643
H           -3.07068036612665       -0.17869333294770        0.31503842859951
H           -0.92824907386231       -1.46604455874450        0.15719399217605
H           -0.86022335757840       -0.28944504346889        1.48704531313280
H            1.74133103679452       -1.68828060362638        0.20727450749610
H            1.80958688550509       -0.50297002885557        1.54786745335889
H            2.81609036926522       -0.27588100880802        0.09975465636735
12
 energy: -517.255032476096 gnorm: 0.000659484830 xtb: 6.7.1 (41059b4)
C           -2.18274786853010        0.27729457459983       -0.13379350100752
C           -0.92541377470008       -0.39683110955658        0.39822522398887
S            0.56112543981277        0.37368945853770       -0.35967346878132
C            1.84808520491140       -0.62970376809520        0.46194489097220
H           -2.18999074113093        1.34427679801816        0.10651232345727
H           -2.25792413576694        0.17100170015088       -1.21974548721643
H           -3.07068036612665       -0.17869333294770        0.31503842859951
H           -0.92824907386231       -1.46604455874450        0.15719399217605
H           -0.86022335757840       -0.28944504346889        1.48704531313280
H            1.74133103679452       -1.68828060362638        0.20727450749610
H            1.80958688550509       -0.50297002885557        1.54786745335889
H            2.81609036926522       -0.27588100880802        0.09975465636735
