 Entering Gaussian System
 *********************************************
 Gaussian 98:
 frequency output generated by the xtb code
 *********************************************
                         Standard orientation:
 --------------------------------------------------------------------
  Center     Atomic     Atomic              Coordinates (Angstroms)
  Number     Number      Type              X           Y           Z
 --------------------------------------------------------------------
    1          6             0        2.393510    0.000068    0.041454
    2          7             0        0.985410    0.000033   -0.285100
    3          6             0        0.316227    1.186066    0.217913
    4          6             0       -1.138051    1.188255   -0.243185
    5          7             0       -1.790439   -0.000058    0.273683
    6          6             0       -1.137982   -1.188314   -0.243231
    7          6             0        0.316296   -1.186057    0.217867
    8          1             0        2.858975   -0.884849   -0.390738
    9          1             0        2.580339    0.000054    1.127582
   10          1             0        2.858924    0.885029   -0.390705
   11          1             0        0.341040    1.224580    1.321592
   12          1             0        0.827910    2.068101   -0.174731
   13          1             0       -1.649394    2.070242    0.149013
   14          1             0       -1.155133    1.227001   -1.346331
   15          1             0       -2.773455   -0.000082    0.018593
   16          1             0       -1.649273   -2.070346    0.148933
   17          1             0       -1.155061   -1.227019   -1.346379
   18          1             0        0.341111   -1.224612    1.321545
   19          1             0        0.828031   -2.068047   -0.174810
 --------------------------------------------------------------------
     1 basis functions        1 primitive gaussians
     1 alpha electrons        1 beta electrons

 Harmonic frequencies (cm**-1), IR intensities (km*mol⁻¹),
 Raman scattering activities (A**4/amu), Raman depolarization ratios,
 reduced masses (AMU), force constants (mDyne/A) and normal coordinates:
                      1                      2                      3
                        a                      a                      a 
 Frequencies --   150.7039               207.6616               237.8542
 Red. masses --     2.6191                 1.3259                 1.3682
 Frc consts  --     0.0000                 0.0000                 0.0000
 IR Inten    --     3.3537                 0.7080                 0.7678
 Raman Activ --     0.0000                 0.0000                 0.0000
 Depolar     --     0.0000                 0.0000                 0.0000
 Atom AN      X      Y      Z        X      Y      Z        X      Y      Z
   1   6     0.06   0.00  -0.46    -0.00   0.03   0.00    -0.00   0.19   0.00
   2   7    -0.09  -0.00   0.21     0.00  -0.12  -0.00    -0.00   0.01   0.00
   3   6    -0.03  -0.05   0.35     0.07   0.01  -0.18    -0.04  -0.13   0.25
   4   6     0.08   0.04  -0.00    -0.08   0.05   0.27     0.11  -0.02  -0.16
   5   7    -0.12   0.00  -0.35     0.00  -0.12  -0.00    -0.00   0.13   0.00
   6   6     0.08  -0.04  -0.00     0.08   0.05  -0.27    -0.11  -0.02   0.16
   7   6    -0.03   0.05   0.35    -0.07   0.01   0.18     0.04  -0.13  -0.25
   8   1    -0.04   0.00  -0.20    -0.05  -0.18   0.34    -0.03  -0.12   0.33
   9   1     0.18   0.00  -0.16    -0.00   0.41   0.00    -0.00   0.45   0.00
  10   1    -0.04  -0.00  -0.20     0.05  -0.18  -0.34     0.03  -0.12  -0.33
  11   1    -0.07  -0.08   0.10     0.12   0.08  -0.05    -0.10  -0.15   0.08
  12   1     0.02   0.00   0.18    -0.00  -0.03  -0.15     0.03  -0.01   0.21
  13   1    -0.01  -0.00  -0.01     0.01  -0.02   0.21     0.02   0.03  -0.15
  14   1     0.11   0.05  -0.00    -0.12   0.13   0.08     0.12  -0.08  -0.05
  15   1    -0.00   0.00  -0.22     0.00  -0.02  -0.00    -0.00   0.04   0.00
  16   1    -0.01   0.00  -0.01    -0.01  -0.02  -0.21    -0.02   0.03   0.15
  17   1     0.11  -0.05  -0.00     0.12   0.13  -0.08    -0.12  -0.08   0.05
  18   1    -0.07   0.08   0.10    -0.12   0.08   0.05     0.10  -0.15  -0.08
  19   1     0.02  -0.00   0.18     0.00  -0.03   0.15    -0.03  -0.01  -0.21
                      4                      5                      6
                        a                      a                      a 
 Frequencies --   323.9075               358.1544               403.2048
 Red. masses --     2.0201                 2.3773                 2.2005
 Frc consts  --     0.0000                 0.0000                 0.0000
 IR Inten    --     4.4595                 0.4557                 1.4106
 Raman Activ --     0.0000                 0.0000                 0.0000
 Depolar     --     0.0000                 0.0000                 0.0000
 Atom AN      X      Y      Z        X      Y      Z        X      Y      Z
   1   6     0.04   0.00  -0.12    -0.00   0.47   0.00    -0.11  -0.00  -0.03
   2   7    -0.05  -0.00   0.37     0.00  -0.38  -0.00    -0.17  -0.00   0.42
   3   6    -0.09   0.09   0.04     0.05  -0.30  -0.10     0.03   0.30  -0.09
   4   6     0.00  -0.16  -0.26     0.07   0.10   0.02     0.00   0.21   0.06
   5   7     0.21  -0.00   0.34    -0.00   0.16   0.00     0.19   0.00  -0.21
   6   6     0.00   0.16  -0.26    -0.07   0.10  -0.02     0.00  -0.21   0.06
   7   6    -0.09  -0.09   0.04    -0.05  -0.30   0.10     0.03  -0.30  -0.09
   8   1    -0.04   0.00  -0.09     0.21   0.29  -0.09    -0.07   0.00  -0.06
   9   1     0.14   0.00  -0.06    -0.00   0.08   0.00     0.08   0.00  -0.03
  10   1    -0.04  -0.00  -0.09    -0.21   0.29   0.09    -0.07  -0.00  -0.06
  11   1    -0.10   0.10   0.01     0.03  -0.08  -0.03     0.08   0.30  -0.04
  12   1    -0.01  -0.00  -0.02     0.06  -0.11  -0.03     0.03  -0.01  -0.22
  13   1    -0.04   0.01  -0.27     0.09   0.04   0.06    -0.03  -0.01   0.12
  14   1     0.06  -0.26  -0.09    -0.03   0.07   0.01    -0.05   0.17   0.02
  15   1     0.01  -0.00   0.27    -0.00   0.05   0.00     0.05   0.00  -0.04
  16   1    -0.04  -0.01  -0.27    -0.09   0.04  -0.06    -0.03   0.01   0.12
  17   1     0.06   0.26  -0.09     0.03   0.07  -0.01    -0.05  -0.17   0.02
  18   1    -0.10  -0.10   0.01    -0.03  -0.08   0.03     0.08  -0.30  -0.04
  19   1    -0.01   0.00  -0.02    -0.06  -0.11   0.03     0.03   0.01  -0.22
                      7                      8                      9
                        a                      a                      a 
 Frequencies --   430.5200               454.6120               570.3230
 Red. masses --     3.6453                 2.9033                 1.7708
 Frc consts  --     0.0000                 0.0000                 0.0000
 IR Inten    --     7.4394                 0.4279                18.6962
 Raman Activ --     0.0000                 0.0000                 0.0000
 Depolar     --     0.0000                 0.0000                 0.0000
 Atom AN      X      Y      Z        X      Y      Z        X      Y      Z
   1   6     0.45   0.00  -0.01    -0.00   0.19   0.00    -0.32  -0.00  -0.02
   2   7     0.35   0.00   0.26    -0.00   0.09   0.00    -0.20  -0.00  -0.10
   3   6     0.00  -0.03  -0.11     0.31   0.16   0.07     0.15   0.08   0.05
   4   6    -0.15  -0.14   0.06     0.34  -0.25   0.12     0.20  -0.18   0.11
   5   7    -0.52  -0.00  -0.00     0.00  -0.17  -0.00    -0.29  -0.00   0.06
   6   6    -0.15   0.14   0.06    -0.34  -0.25  -0.12     0.20   0.18   0.11
   7   6     0.00   0.03  -0.11    -0.31   0.16  -0.07     0.15  -0.08   0.05
   8   1     0.09   0.00  -0.05     0.06   0.09  -0.01    -0.07  -0.00   0.02
   9   1     0.23   0.00  -0.02    -0.00   0.07   0.00    -0.15  -0.00   0.01
  10   1     0.09  -0.00  -0.05    -0.06   0.09   0.01    -0.07   0.00   0.02
  11   1     0.04   0.12  -0.04     0.20   0.13   0.02     0.20   0.13   0.00
  12   1    -0.08  -0.01  -0.14     0.03   0.03  -0.09    -0.01  -0.02  -0.15
  13   1     0.02  -0.00   0.01     0.05  -0.06  -0.06     0.02   0.01  -0.16
  14   1    -0.06  -0.05   0.02     0.18  -0.14   0.03     0.19  -0.21   0.02
  15   1    -0.10   0.00  -0.17    -0.00   0.09   0.00     0.01   0.00  -0.35
  16   1     0.02   0.00   0.01    -0.05  -0.06   0.06     0.02  -0.01  -0.16
  17   1    -0.06   0.05   0.02    -0.18  -0.14  -0.03     0.19   0.21   0.02
  18   1     0.04  -0.12  -0.04    -0.20   0.12  -0.02     0.20  -0.13   0.00
  19   1    -0.08   0.01  -0.14    -0.03   0.03   0.09    -0.01   0.02  -0.15
                     10                     11                     12
                        a                      a                      a 
 Frequencies --   830.2201               846.0482               859.9370
 Red. masses --     2.9392                 1.4507                 1.4511
 Frc consts  --     0.0000                 0.0000                 0.0000
 IR Inten    --     8.5945                71.9131                 0.1380
 Raman Activ --     0.0000                 0.0000                 0.0000
 Depolar     --     0.0000                 0.0000                 0.0000
 Atom AN      X      Y      Z        X      Y      Z        X      Y      Z
   1   6     0.32   0.00   0.00    -0.00   0.00  -0.02    -0.00   0.03   0.00
   2   7     0.03   0.00  -0.35     0.01   0.00  -0.07    -0.00   0.16   0.00
   3   6    -0.01   0.38   0.16     0.03  -0.10   0.13     0.14   0.09  -0.19
   4   6    -0.16   0.22   0.03    -0.07  -0.19   0.07     0.20  -0.13  -0.16
   5   7    -0.05  -0.00   0.01     0.02   0.00  -0.42     0.00  -0.13  -0.00
   6   6    -0.16  -0.22   0.03    -0.07   0.19   0.07    -0.20  -0.13   0.16
   7   6    -0.01  -0.38   0.16     0.03   0.10   0.13    -0.14   0.08   0.19
   8   1     0.14   0.00   0.06     0.01  -0.00   0.02    -0.03  -0.00  -0.01
   9   1    -0.04  -0.00   0.02    -0.05  -0.00   0.00     0.00  -0.01  -0.00
  10   1     0.14  -0.00   0.06     0.01   0.00   0.02     0.03  -0.00   0.01
  11   1     0.07   0.03   0.03     0.20   0.08   0.02    -0.22  -0.17  -0.03
  12   1    -0.01   0.11   0.06    -0.11  -0.03  -0.14     0.10   0.11   0.23
  13   1    -0.21   0.04  -0.17    -0.04  -0.05  -0.00     0.14  -0.12   0.26
  14   1     0.11  -0.07  -0.00     0.15   0.03   0.01    -0.21   0.17  -0.02
  15   1    -0.02  -0.00   0.02    -0.17  -0.00   0.65    -0.00   0.07   0.00
  16   1    -0.21  -0.04  -0.17    -0.04   0.05  -0.00    -0.14  -0.12  -0.26
  17   1     0.11   0.07  -0.00     0.15  -0.03   0.01     0.21   0.17   0.02
  18   1     0.07  -0.03   0.03     0.20  -0.08   0.02     0.22  -0.17   0.03
  19   1    -0.01  -0.11   0.06    -0.11   0.03  -0.14    -0.10   0.11  -0.23
                     13                     14                     15
                        a                      a                      a 
 Frequencies --   940.6475               958.1161              1029.8776
 Red. masses --     2.3947                 2.0526                 2.3798
 Frc consts  --     0.0000                 0.0000                 0.0000
 IR Inten    --     1.3358                 2.7209                16.6323
 Raman Activ --     0.0000                 0.0000                 0.0000
 Depolar     --     0.0000                 0.0000                 0.0000
 Atom AN      X      Y      Z        X      Y      Z        X      Y      Z
   1   6     0.18   0.00   0.01    -0.00   0.11   0.00     0.15   0.00   0.07
   2   7    -0.02   0.00  -0.12    -0.00   0.27   0.00    -0.09  -0.00  -0.00
   3   6    -0.30   0.01   0.02    -0.29  -0.21  -0.03    -0.18  -0.35  -0.01
   4   6     0.04  -0.27   0.13     0.21  -0.16   0.06     0.01   0.36   0.05
   5   7     0.45   0.00  -0.10    -0.00   0.26   0.00     0.10   0.00   0.08
   6   6     0.04   0.27   0.13    -0.21  -0.16  -0.06     0.01  -0.36   0.05
   7   6    -0.30  -0.01   0.02     0.29  -0.21   0.03    -0.18   0.35  -0.01
   8   1     0.05  -0.00   0.01    -0.21  -0.07  -0.03    -0.00   0.00  -0.03
   9   1     0.02   0.00   0.00     0.00  -0.08  -0.00     0.10   0.00   0.00
  10   1     0.05   0.00   0.01     0.21  -0.07   0.03    -0.00  -0.00  -0.03
  11   1    -0.02   0.05  -0.00    -0.02   0.10  -0.01     0.13   0.03  -0.01
  12   1    -0.23   0.05  -0.07    -0.23  -0.03  -0.16    -0.06  -0.16  -0.19
  13   1    -0.10  -0.16   0.08     0.21   0.01   0.10     0.00   0.17  -0.17
  14   1     0.02  -0.02   0.03     0.03   0.06   0.01     0.18  -0.04   0.01
  15   1     0.19   0.00  -0.34    -0.00   0.19   0.00     0.05   0.00  -0.08
  16   1    -0.10   0.16   0.08    -0.21   0.01  -0.10     0.00  -0.17  -0.17
  17   1     0.02   0.02   0.03    -0.03   0.06  -0.01     0.18   0.04   0.01
  18   1    -0.02  -0.05  -0.00     0.02   0.10   0.01     0.13  -0.03  -0.01
  19   1    -0.23  -0.05  -0.07     0.23  -0.03   0.16    -0.06   0.16  -0.19
                     16                     17                     18
                        a                      a                      a 
 Frequencies --  1052.3360              1061.7403              1075.7166
 Red. masses --     1.6368                 1.6154                 1.4966
 Frc consts  --     0.0000                 0.0000                 0.0000
 IR Inten    --     0.0191                 6.9504                 8.5509
 Raman Activ --     0.0000                 0.0000                 0.0000
 Depolar     --     0.0000                 0.0000                 0.0000
 Atom AN      X      Y      Z        X      Y      Z        X      Y      Z
   1   6     0.00  -0.14  -0.00     0.00  -0.33  -0.00    -0.24  -0.00   0.26
   2   7     0.00  -0.04  -0.00     0.00  -0.19  -0.00     0.23   0.00   0.01
   3   6     0.01   0.02   0.32    -0.21   0.18  -0.07     0.06   0.03  -0.17
   4   6    -0.01  -0.07  -0.31     0.09  -0.10   0.14    -0.11   0.00   0.18
   5   7    -0.00   0.07   0.00    -0.00   0.16   0.00     0.10   0.00  -0.15
   6   6     0.01  -0.07   0.31    -0.09  -0.10  -0.14    -0.11  -0.00   0.18
   7   6    -0.01   0.02  -0.32     0.21   0.18   0.07     0.06  -0.03  -0.17
   8   1     0.19   0.05   0.03     0.40   0.10   0.07    -0.25   0.03  -0.20
   9   1    -0.00   0.08   0.00    -0.00   0.14   0.00     0.42   0.00  -0.02
  10   1    -0.19   0.05  -0.03    -0.40   0.10  -0.07    -0.25  -0.03  -0.20
  11   1     0.05   0.25   0.06    -0.11  -0.04  -0.02     0.06  -0.19  -0.04
  12   1    -0.02  -0.08  -0.16    -0.21   0.16   0.06     0.02   0.07   0.11
  13   1    -0.02  -0.15   0.20     0.04   0.01  -0.00    -0.20  -0.03  -0.10
  14   1    -0.05   0.28  -0.06     0.03  -0.04   0.03     0.09  -0.11   0.03
  15   1     0.00  -0.08  -0.00    -0.00   0.19   0.00     0.02   0.00  -0.01
  16   1     0.02  -0.15  -0.20    -0.04   0.01   0.00    -0.20   0.03  -0.10
  17   1     0.05   0.28   0.06    -0.03  -0.04  -0.03     0.09   0.11   0.03
  18   1    -0.05   0.25  -0.06     0.11  -0.04   0.02     0.06   0.19  -0.04
  19   1     0.02  -0.08   0.16     0.21   0.16  -0.06     0.02  -0.07   0.11
                     19                     20                     21
                        a                      a                      a 
 Frequencies --  1095.6698              1150.3291              1157.8441
 Red. masses --     1.8486                 1.9936                 1.7503
 Frc consts  --     0.0000                 0.0000                 0.0000
 IR Inten    --     7.8645                 0.8430                18.8899
 Raman Activ --     0.0000                 0.0000                 0.0000
 Depolar     --     0.0000                 0.0000                 0.0000
 Atom AN      X      Y      Z        X      Y      Z        X      Y      Z
   1   6    -0.03   0.00  -0.10    -0.09  -0.00   0.22     0.00   0.00   0.00
   2   7     0.00  -0.00   0.10     0.10   0.00  -0.29     0.00  -0.13  -0.00
   3   6     0.25  -0.18   0.11     0.02   0.01   0.27    -0.22   0.08   0.04
   4   6    -0.32  -0.05  -0.09    -0.02  -0.01  -0.30     0.24   0.18   0.06
   5   7     0.20   0.00   0.02    -0.04  -0.00   0.23     0.00  -0.37  -0.00
   6   6    -0.32   0.05  -0.09    -0.02   0.01  -0.30    -0.24   0.18  -0.06
   7   6     0.25   0.18   0.11     0.02  -0.01   0.27     0.22   0.08  -0.04
   8   1     0.05  -0.01   0.06    -0.15   0.02  -0.14    -0.00  -0.00   0.00
   9   1    -0.17  -0.00   0.01     0.31   0.00  -0.01     0.00  -0.01  -0.00
  10   1     0.05   0.01   0.06    -0.15  -0.02  -0.14     0.00  -0.00  -0.00
  11   1     0.13   0.01   0.03     0.19   0.10   0.05    -0.32   0.23   0.00
  12   1     0.19  -0.15  -0.05    -0.14   0.02  -0.09     0.25  -0.20  -0.07
  13   1    -0.29  -0.14  -0.02     0.07  -0.04   0.11     0.03   0.04  -0.02
  14   1    -0.12  -0.04  -0.03    -0.09   0.17  -0.06    -0.01  -0.07   0.02
  15   1     0.10   0.00  -0.23     0.02   0.00  -0.09    -0.00   0.05   0.00
  16   1    -0.29   0.14  -0.02     0.07   0.04   0.11    -0.03   0.04   0.02
  17   1    -0.12   0.04  -0.03    -0.09  -0.17  -0.06     0.01  -0.07  -0.02
  18   1     0.13  -0.01   0.03     0.19  -0.10   0.05     0.32   0.23  -0.00
  19   1     0.19   0.15  -0.05    -0.14  -0.02  -0.09    -0.25  -0.20   0.07
                     22                     23                     24
                        a                      a                      a 
 Frequencies --  1166.0706              1169.8965              1187.8380
 Red. masses --     1.2301                 2.5757                 1.6348
 Frc consts  --     0.0000                 0.0000                 0.0000
 IR Inten    --     2.4846                24.9734                 4.9921
 Raman Activ --     0.0000                 0.0000                 0.0000
 Depolar     --     0.0000                 0.0000                 0.0000
 Atom AN      X      Y      Z        X      Y      Z        X      Y      Z
   1   6    -0.00   0.13   0.00     0.36   0.00   0.27    -0.00   0.05   0.00
   2   7     0.00  -0.27  -0.00    -0.61  -0.00  -0.18     0.00  -0.05  -0.00
   3   6    -0.15   0.10  -0.08     0.04   0.01  -0.03     0.08   0.04   0.09
   4   6     0.11  -0.01  -0.00     0.05  -0.12   0.02    -0.18  -0.24   0.12
   5   7    -0.00   0.08   0.00    -0.06  -0.00  -0.05    -0.00   0.41   0.00
   6   6    -0.11  -0.01   0.00     0.05   0.12   0.02     0.18  -0.24  -0.12
   7   6     0.15   0.10   0.08     0.04  -0.01  -0.03    -0.08   0.04  -0.09
   8   1    -0.15  -0.04  -0.02     0.00   0.03  -0.09    -0.04  -0.01  -0.00
   9   1     0.00  -0.08  -0.00     0.31   0.00  -0.00     0.00  -0.02  -0.00
  10   1     0.15  -0.04   0.02     0.00  -0.03  -0.09     0.04  -0.01   0.00
  11   1     0.05  -0.11  -0.03    -0.06  -0.00  -0.00    -0.14   0.10   0.02
  12   1     0.04  -0.00   0.03     0.28  -0.15  -0.00     0.21  -0.12  -0.01
  13   1    -0.39  -0.27   0.06    -0.01  -0.06   0.05    -0.11  -0.07  -0.01
  14   1     0.26   0.19  -0.00    -0.03  -0.02   0.01    -0.26  -0.16   0.02
  15   1    -0.00   0.22   0.00    -0.03  -0.00   0.05    -0.00   0.41   0.00
  16   1     0.39  -0.27  -0.06    -0.01   0.06   0.05     0.11  -0.07   0.01
  17   1    -0.26   0.19   0.00    -0.03   0.02   0.01     0.26  -0.16  -0.02
  18   1    -0.05  -0.11   0.03    -0.06   0.00  -0.00     0.14   0.10  -0.02
  19   1    -0.04  -0.00  -0.03     0.28   0.15  -0.00    -0.21  -0.12   0.01
                     25                     26                     27
                        a                      a                      a 
 Frequencies --  1268.4721              1273.3687              1288.0199
 Red. masses --     1.3235                 2.4530                 1.3875
 Frc consts  --     0.0000                 0.0000                 0.0000
 IR Inten    --    34.5663                15.4483                 6.1955
 Raman Activ --     0.0000                 0.0000                 0.0000
 Depolar     --     0.0000                 0.0000                 0.0000
 Atom AN      X      Y      Z        X      Y      Z        X      Y      Z
   1   6     0.06   0.00  -0.05    -0.00   0.23   0.00    -0.16  -0.00  -0.00
   2   7    -0.09  -0.00   0.18     0.00  -0.60  -0.00     0.36   0.00  -0.23
   3   6    -0.06   0.01  -0.15    -0.07   0.28   0.16    -0.10  -0.03   0.07
   4   6     0.10  -0.02  -0.12     0.01  -0.06  -0.06     0.12   0.02   0.05
   5   7    -0.17  -0.00   0.28    -0.00  -0.00   0.00    -0.11  -0.00   0.05
   6   6     0.10   0.02  -0.12    -0.01  -0.06   0.06     0.12  -0.02   0.05
   7   6    -0.06  -0.01  -0.15     0.07   0.28  -0.16    -0.10   0.03   0.07
   8   1     0.04  -0.01   0.04    -0.21  -0.07  -0.00    -0.03   0.02  -0.04
   9   1    -0.04  -0.00   0.00     0.00  -0.15  -0.00    -0.00   0.00  -0.01
  10   1     0.04   0.01   0.04     0.21  -0.07   0.00    -0.03  -0.02  -0.04
  11   1     0.15  -0.16  -0.03     0.08  -0.03   0.02    -0.34   0.26   0.00
  12   1    -0.01   0.03   0.04    -0.11   0.11   0.02     0.21  -0.19  -0.10
  13   1    -0.24  -0.21   0.10     0.22   0.10   0.02    -0.20  -0.13   0.02
  14   1     0.35   0.29  -0.02    -0.15  -0.02  -0.01     0.11   0.06   0.02
  15   1    -0.04  -0.00   0.03     0.00  -0.09  -0.00    -0.04  -0.00   0.07
  16   1    -0.24   0.21   0.10    -0.22   0.10  -0.02    -0.20   0.13   0.02
  17   1     0.35  -0.29  -0.02     0.15  -0.02   0.01     0.11  -0.06   0.02
  18   1     0.15   0.16  -0.03    -0.08  -0.03  -0.02    -0.34  -0.26   0.00
  19   1    -0.01  -0.03   0.04     0.11   0.11  -0.02     0.21   0.19  -0.10
                     28                     29                     30
                        a                      a                      a 
 Frequencies --  1308.1005              1332.2000              1348.0722
 Red. masses --     1.3500                 1.2835                 1.4895
 Frc consts  --     0.0000                 0.0000                 0.0000
 IR Inten    --    32.5858                 6.2149                26.0242
 Raman Activ --     0.0000                 0.0000                 0.0000
 Depolar     --     0.0000                 0.0000                 0.0000
 Atom AN      X      Y      Z        X      Y      Z        X      Y      Z
   1   6    -0.00   0.02   0.00    -0.00   0.09   0.00     0.10   0.00   0.05
   2   7     0.00  -0.04  -0.00     0.00  -0.15  -0.00    -0.22  -0.00  -0.00
   3   6     0.01   0.10  -0.07     0.27  -0.12   0.01     0.26  -0.16  -0.01
   4   6    -0.17  -0.22   0.11     0.04   0.07   0.06     0.17   0.14   0.00
   5   7    -0.00   0.25   0.00    -0.00   0.07   0.00    -0.10  -0.00  -0.00
   6   6     0.17  -0.22  -0.11    -0.04   0.07  -0.06     0.17  -0.14   0.00
   7   6    -0.01   0.10   0.07    -0.27  -0.12  -0.01     0.26   0.16  -0.01
   8   1    -0.01  -0.00  -0.00    -0.07  -0.03   0.01    -0.05  -0.02  -0.02
   9   1     0.00  -0.01  -0.00     0.00  -0.05  -0.00    -0.02  -0.00   0.01
  10   1     0.01  -0.00   0.00     0.07  -0.03  -0.01    -0.05   0.02  -0.02
  11   1    -0.19   0.05  -0.01    -0.39   0.20   0.01    -0.21   0.07   0.00
  12   1     0.20  -0.07   0.03    -0.32   0.18  -0.02    -0.34   0.18  -0.03
  13   1     0.18   0.07   0.02    -0.17  -0.07  -0.03    -0.27  -0.13  -0.04
  14   1     0.36   0.17   0.02     0.01  -0.02   0.01    -0.15  -0.06   0.00
  15   1     0.00  -0.41  -0.00     0.00  -0.18  -0.00    -0.04  -0.00   0.07
  16   1    -0.18   0.07  -0.02     0.17  -0.07   0.03    -0.27   0.13  -0.04
  17   1    -0.36   0.17  -0.02    -0.01  -0.02  -0.01    -0.15   0.06   0.00
  18   1     0.19   0.05   0.01     0.39   0.20  -0.01    -0.21  -0.07   0.00
  19   1    -0.20  -0.07  -0.03     0.32   0.18   0.02    -0.34  -0.18  -0.03
                     31                     32                     33
                        a                      a                      a 
 Frequencies --  1369.7911              1394.0246              1417.9220
 Red. masses --     1.5166                 1.3635                 1.1755
 Frc consts  --     0.0000                 0.0000                 0.0000
 IR Inten    --     0.4662                 0.9090                 1.2562
 Raman Activ --     0.0000                 0.0000                 0.0000
 Depolar     --     0.0000                 0.0000                 0.0000
 Atom AN      X      Y      Z        X      Y      Z        X      Y      Z
   1   6    -0.05  -0.00  -0.05    -0.00   0.03   0.00    -0.38  -0.00  -0.05
   2   7     0.10   0.00   0.06     0.00  -0.06  -0.00    -0.07  -0.00  -0.01
   3   6    -0.24   0.04   0.03     0.11  -0.03   0.01     0.05  -0.02   0.00
   4   6     0.31   0.09  -0.02    -0.25   0.01  -0.07    -0.01   0.00   0.01
   5   7    -0.12  -0.00  -0.07     0.00  -0.34  -0.00     0.01   0.00   0.01
   6   6     0.31  -0.09  -0.02     0.25   0.01   0.07    -0.01  -0.00   0.01
   7   6    -0.24  -0.04   0.03    -0.11  -0.03  -0.01     0.05   0.02   0.00
   8   1     0.05   0.01   0.04    -0.02  -0.01   0.00     0.46   0.17   0.18
   9   1     0.03   0.00  -0.00     0.00  -0.02  -0.00     0.53   0.00  -0.09
  10   1     0.05  -0.01   0.04     0.02  -0.01  -0.00     0.46  -0.17   0.18
  11   1     0.28  -0.11   0.00    -0.08   0.08   0.00    -0.06  -0.03  -0.00
  12   1     0.10  -0.08  -0.00    -0.07   0.06   0.03    -0.06   0.01  -0.04
  13   1    -0.17  -0.12  -0.01     0.15   0.13  -0.03    -0.01   0.01  -0.02
  14   1    -0.36  -0.15  -0.00     0.22   0.16  -0.02     0.01   0.02   0.00
  15   1    -0.05  -0.00   0.10    -0.00   0.66   0.00     0.00   0.00  -0.01
  16   1    -0.17   0.12  -0.01    -0.15   0.13   0.03    -0.01  -0.01  -0.02
  17   1    -0.36   0.15  -0.00    -0.22   0.16   0.02     0.01  -0.02   0.00
  18   1     0.28   0.11   0.00     0.08   0.08  -0.00    -0.06   0.03  -0.00
  19   1     0.10   0.08  -0.00     0.07   0.06  -0.03    -0.06  -0.01  -0.04
                     34                     35                     36
                        a                      a                      a 
 Frequencies --  1462.6298              1467.8023              1469.6295
 Red. masses --     1.0787                 1.0962                 1.0953
 Frc consts  --     0.0000                 0.0000                 0.0000
 IR Inten    --     0.0050                 5.2018                 1.6892
 Raman Activ --     0.0000                 0.0000                 0.0000
 Depolar     --     0.0000                 0.0000                 0.0000
 Atom AN      X      Y      Z        X      Y      Z        X      Y      Z
   1   6     0.00  -0.03  -0.00     0.00  -0.01  -0.00    -0.03  -0.00   0.01
   2   7    -0.00   0.06   0.00    -0.00   0.03   0.00    -0.02  -0.00  -0.02
   3   6     0.06   0.08   0.07     0.08   0.10   0.07    -0.03  -0.09  -0.06
   4   6     0.07  -0.09   0.07    -0.08   0.10  -0.07    -0.05   0.14  -0.09
   5   7     0.00  -0.06  -0.00    -0.00   0.00   0.00    -0.01   0.00  -0.02
   6   6    -0.07  -0.09  -0.07     0.08   0.10   0.07    -0.05  -0.14  -0.09
   7   6    -0.06   0.08  -0.07    -0.08   0.10  -0.07    -0.03   0.09  -0.06
   8   1    -0.01   0.01  -0.04    -0.01   0.01  -0.02     0.04   0.02  -0.00
   9   1    -0.00   0.07   0.00    -0.00   0.04   0.00     0.03   0.00  -0.01
  10   1     0.01   0.01   0.04     0.01   0.01   0.02     0.04  -0.02  -0.00
  11   1    -0.13  -0.30   0.01    -0.16  -0.31   0.01     0.10   0.25  -0.01
  12   1    -0.05  -0.10  -0.31    -0.07  -0.10  -0.32     0.02   0.09   0.25
  13   1    -0.06   0.11  -0.33     0.07  -0.09   0.31     0.05  -0.13   0.36
  14   1    -0.15   0.32   0.01     0.16  -0.29  -0.01     0.16  -0.36  -0.02
  15   1    -0.00   0.00   0.00    -0.00   0.05   0.00    -0.01  -0.00   0.01
  16   1     0.06   0.11   0.33    -0.07  -0.09  -0.31     0.05   0.13   0.36
  17   1     0.15   0.32  -0.01    -0.16  -0.29   0.01     0.16   0.36  -0.02
  18   1     0.13  -0.30  -0.01     0.16  -0.31  -0.01     0.11  -0.25  -0.01
  19   1     0.05  -0.10   0.31     0.07  -0.10   0.32     0.02  -0.09   0.25
                     37                     38                     39
                        a                      a                      a 
 Frequencies --  1474.1610              1491.6941              1493.1650
 Red. masses --     1.1006                 1.0539                 1.0597
 Frc consts  --     0.0000                 0.0000                 0.0000
 IR Inten    --     0.9283                 7.7113                 0.8262
 Raman Activ --     0.0000                 0.0000                 0.0000
 Depolar     --     0.0000                 0.0000                 0.0000
 Atom AN      X      Y      Z        X      Y      Z        X      Y      Z
   1   6    -0.01  -0.00   0.03    -0.04  -0.00   0.20    -0.00   0.21   0.00
   2   7    -0.03  -0.00  -0.03     0.01  -0.00   0.06    -0.00   0.09   0.00
   3   6    -0.05  -0.14  -0.09     0.00   0.02   0.00     0.01  -0.01  -0.00
   4   6     0.04  -0.10   0.06     0.00   0.01  -0.01     0.00  -0.00   0.01
   5   7     0.01  -0.00   0.02    -0.00   0.00  -0.00     0.00  -0.00  -0.00
   6   6     0.04   0.10   0.06     0.00  -0.01  -0.01    -0.00  -0.00  -0.01
   7   6    -0.05   0.14  -0.09     0.00  -0.02   0.00    -0.01  -0.01   0.00
   8   1     0.05   0.05  -0.04     0.25   0.36  -0.46     0.21  -0.08   0.41
   9   1    -0.00  -0.00   0.00    -0.36  -0.00   0.06     0.00  -0.70  -0.00
  10   1     0.05  -0.05  -0.04     0.25  -0.36  -0.46    -0.21  -0.08  -0.41
  11   1     0.15   0.36  -0.02    -0.00  -0.06   0.00    -0.01  -0.05  -0.00
  12   1     0.06   0.12   0.36    -0.03  -0.01  -0.05     0.01  -0.03  -0.05
  13   1    -0.05   0.08  -0.26     0.00  -0.01   0.02    -0.01   0.00  -0.01
  14   1    -0.11   0.25   0.01     0.00  -0.02  -0.00    -0.00   0.01   0.00
  15   1     0.01   0.00  -0.01    -0.00  -0.00   0.00    -0.00   0.00   0.00
  16   1    -0.05  -0.08  -0.26     0.00   0.01   0.02     0.01   0.00   0.01
  17   1    -0.10  -0.25   0.01     0.00   0.02  -0.00     0.00   0.01  -0.00
  18   1     0.15  -0.36  -0.02    -0.00   0.06   0.00     0.01  -0.05   0.00
  19   1     0.06  -0.12   0.36    -0.03   0.01  -0.05    -0.01  -0.03   0.05
                     40                     41                     42
                        a                      a                      a 
 Frequencies --  2804.3399              2808.3877              2818.1736
 Red. masses --     1.0693                 1.0655                 1.0757
 Frc consts  --     0.0000                 0.0000                 0.0000
 IR Inten    --    25.6816                 8.9516                 2.6230
 Raman Activ --     0.0000                 0.0000                 0.0000
 Depolar     --     0.0000                 0.0000                 0.0000
 Atom AN      X      Y      Z        X      Y      Z        X      Y      Z
   1   6    -0.00   0.00   0.00     0.00   0.00  -0.04    -0.00   0.00   0.00
   2   7     0.00  -0.02  -0.00    -0.02  -0.00   0.02     0.00  -0.01  -0.00
   3   6     0.00   0.02  -0.16     0.00  -0.01   0.14    -0.00   0.01  -0.09
   4   6    -0.00   0.01   0.08     0.00  -0.01  -0.09    -0.00  -0.02  -0.16
   5   7     0.00  -0.01  -0.00     0.01   0.00  -0.01    -0.00   0.02   0.00
   6   6     0.00   0.01  -0.08     0.00   0.01  -0.09     0.00  -0.02   0.16
   7   6    -0.00   0.02   0.16     0.00   0.01   0.14     0.00   0.01   0.09
   8   1     0.00  -0.01  -0.00    -0.00   0.01  -0.00     0.00  -0.00  -0.00
   9   1     0.00  -0.00  -0.00     0.02  -0.00   0.14     0.00  -0.00  -0.00
  10   1    -0.00  -0.01   0.00    -0.00  -0.01  -0.00    -0.00  -0.00   0.00
  11   1     0.01   0.01   0.61    -0.01  -0.02  -0.57     0.00   0.00   0.31
  12   1    -0.03  -0.04  -0.01     0.02   0.03   0.01    -0.01  -0.01  -0.01
  13   1     0.02  -0.02   0.00    -0.01   0.02  -0.01    -0.02   0.03  -0.01
  14   1    -0.01   0.01  -0.31     0.01  -0.01   0.36     0.01  -0.01   0.60
  15   1     0.00  -0.00  -0.00     0.00  -0.00   0.00    -0.00   0.00   0.00
  16   1    -0.02  -0.02  -0.00    -0.01  -0.02  -0.01     0.02   0.03   0.01
  17   1     0.01   0.01   0.31     0.01   0.01   0.36    -0.01  -0.01  -0.60
  18   1    -0.01   0.01  -0.61    -0.01   0.02  -0.57    -0.00   0.00  -0.31
  19   1     0.03  -0.04   0.01     0.02  -0.03   0.01     0.01  -0.01   0.01
                     43                     44                     45
                        a                      a                      a 
 Frequencies --  2826.6402              2842.5989              2964.3277
 Red. masses --     1.0725                 1.0689                 1.0696
 Frc consts  --     0.0000                 0.0000                 0.0000
 IR Inten    --   208.1655               221.0026                18.9791
 Raman Activ --     0.0000                 0.0000                 0.0000
 Depolar     --     0.0000                 0.0000                 0.0000
 Atom AN      X      Y      Z        X      Y      Z        X      Y      Z
   1   6    -0.00   0.00  -0.08    -0.01   0.00  -0.23    -0.00   0.02   0.00
   2   7    -0.01  -0.00   0.01    -0.02  -0.00  -0.02     0.00  -0.02  -0.00
   3   6     0.00  -0.00   0.09     0.00   0.00  -0.05    -0.08  -0.13   0.05
   4   6     0.00   0.01   0.15    -0.00  -0.00  -0.04    -0.04   0.06   0.03
   5   7    -0.01  -0.00   0.02     0.00   0.00  -0.00    -0.00   0.01   0.00
   6   6     0.00  -0.01   0.15    -0.00   0.00  -0.04     0.04   0.06  -0.03
   7   6     0.00   0.00   0.09     0.00  -0.00  -0.05     0.08  -0.13  -0.05
   8   1    -0.01   0.02  -0.01    -0.02   0.04  -0.03     0.02  -0.04  -0.02
   9   1     0.04  -0.00   0.30     0.14  -0.00   0.89    -0.00   0.00  -0.00
  10   1    -0.01  -0.02  -0.01    -0.02  -0.04  -0.03    -0.02  -0.04   0.02
  11   1    -0.00  -0.01  -0.32    -0.00   0.01   0.20    -0.01  -0.02   0.05
  12   1     0.00   0.00   0.01    -0.01  -0.01  -0.00     0.29   0.50  -0.23
  13   1     0.01  -0.02   0.02    -0.00  -0.00  -0.01     0.13  -0.23  -0.11
  14   1    -0.00   0.02  -0.57     0.00  -0.00   0.13    -0.01   0.01   0.01
  15   1     0.00   0.00  -0.00    -0.00  -0.00   0.00     0.00  -0.00   0.00
  16   1     0.01   0.02   0.02    -0.00   0.00  -0.01    -0.13  -0.23   0.11
  17   1    -0.00  -0.02  -0.57     0.00   0.00   0.13     0.01   0.01  -0.01
  18   1    -0.00   0.01  -0.32    -0.00  -0.01   0.20     0.01  -0.02  -0.05
  19   1     0.00  -0.00   0.01    -0.01   0.01  -0.00    -0.29   0.50   0.23
                     46                     47                     48
                        a                      a                      a 
 Frequencies --  2965.2411              2972.0882              2973.2548
 Red. masses --     1.0690                 1.0698                 1.0695
 Frc consts  --     0.0000                 0.0000                 0.0000
 IR Inten    --    35.4059                13.3347               149.1220
 Raman Activ --     0.0000                 0.0000                 0.0000
 Depolar     --     0.0000                 0.0000                 0.0000
 Atom AN      X      Y      Z        X      Y      Z        X      Y      Z
   1   6     0.00   0.00  -0.01     0.00   0.00  -0.00     0.00  -0.02  -0.00
   2   7    -0.00  -0.00   0.00    -0.00  -0.00   0.00    -0.00   0.00   0.00
   3   6    -0.08  -0.14   0.06    -0.02  -0.04   0.01     0.03   0.06  -0.02
   4   6    -0.03   0.04   0.02     0.08  -0.14  -0.06    -0.08   0.13   0.05
   5   7    -0.00   0.00  -0.00     0.00  -0.00  -0.00    -0.00   0.01   0.00
   6   6    -0.03  -0.04   0.02     0.08   0.14  -0.06     0.08   0.13  -0.05
   7   6    -0.08   0.14   0.06    -0.02   0.04   0.01    -0.03   0.06   0.02
   8   1    -0.00   0.01   0.00    -0.00   0.00   0.00    -0.02   0.03   0.02
   9   1     0.00  -0.00   0.01     0.00  -0.00   0.01     0.00  -0.00   0.00
  10   1    -0.00  -0.01   0.00    -0.00  -0.00   0.00     0.02   0.03  -0.02
  11   1    -0.01  -0.02   0.04    -0.00  -0.01   0.02     0.01   0.01  -0.03
  12   1     0.30   0.53  -0.24     0.09   0.15  -0.07    -0.13  -0.23   0.10
  13   1     0.09  -0.16  -0.07    -0.30   0.53   0.24     0.29  -0.50  -0.23
  14   1    -0.00   0.01   0.00     0.01  -0.02  -0.04    -0.01   0.02   0.06
  15   1    -0.00  -0.00  -0.00     0.00   0.00   0.00     0.00   0.00   0.00
  16   1     0.09   0.16  -0.07    -0.30  -0.53   0.24    -0.29  -0.50   0.23
  17   1    -0.00  -0.01   0.00     0.01   0.02  -0.04     0.01   0.02  -0.06
  18   1    -0.01   0.02   0.04    -0.00   0.01   0.02    -0.01   0.01   0.03
  19   1     0.30  -0.53  -0.24     0.09  -0.15  -0.07     0.13  -0.23  -0.10
                     49                     50                     51
                        a                      a                      a 
 Frequencies --  3010.8724              3012.5776              3356.4250
 Red. masses --     1.0919                 1.0438                 1.0710
 Frc consts  --     0.0000                 0.0000                 0.0000
 IR Inten    --    51.8925                41.0512                22.1457
 Raman Activ --     0.0000                 0.0000                 0.0000
 Depolar     --     0.0000                 0.0000                 0.0000
 Atom AN      X      Y      Z        X      Y      Z        X      Y      Z
   1   6    -0.00   0.29   0.00     0.14  -0.00  -0.13    -0.00  -0.00   0.00
   2   7     0.00   0.01   0.00     0.01   0.00  -0.00    -0.00  -0.00   0.00
   3   6     0.01   0.01  -0.00     0.00   0.00  -0.00    -0.00   0.00  -0.00
   4   6    -0.00   0.00   0.00    -0.00   0.00  -0.00     0.01  -0.00   0.01
   5   7     0.00  -0.00  -0.00     0.00   0.00   0.00     0.25   0.00   0.05
   6   6     0.00   0.00  -0.00    -0.00  -0.00  -0.00     0.01   0.00   0.01
   7   6    -0.01   0.01   0.00     0.00  -0.00  -0.00    -0.00  -0.00  -0.00
   8   1     0.29  -0.54  -0.28    -0.27   0.58   0.26     0.00  -0.00  -0.00
   9   1    -0.00   0.05  -0.00     0.01   0.00  -0.09     0.00  -0.00   0.00
  10   1    -0.29  -0.54   0.28    -0.27  -0.58   0.26     0.00   0.00  -0.00
  11   1     0.00   0.00  -0.01    -0.00   0.00   0.00    -0.00  -0.00  -0.00
  12   1    -0.03  -0.05   0.02    -0.00  -0.01   0.00     0.00  -0.00   0.00
  13   1     0.01  -0.01  -0.00     0.00  -0.00  -0.00    -0.00   0.00   0.00
  14   1    -0.00   0.00   0.00    -0.00   0.00   0.00    -0.00  -0.00  -0.00
  15   1    -0.00  -0.00  -0.00    -0.00  -0.00   0.00    -0.94  -0.00  -0.22
  16   1    -0.01  -0.01   0.00     0.00   0.00  -0.00    -0.00  -0.00   0.00
  17   1     0.00   0.00  -0.00    -0.00  -0.00   0.00    -0.00   0.00  -0.00
  18   1    -0.00   0.00   0.01    -0.00  -0.00   0.00    -0.00   0.00  -0.00
  19   1     0.03  -0.05  -0.02    -0.00   0.01   0.00     0.00   0.00   0.00
