      -----------------------------------------------------------      
     |                   =====================                   |     
     |                           x T B                           |     
     |                   =====================                   |     
     |                         S. Grimme                         |     
     |          Mulliken Center for Theoretical Chemistry        |     
     |                    University of Bonn                     |     
      -----------------------------------------------------------      

   * xtb version 6.7.1 (41059b4) compiled by 'michael@archlinux' on 2025-03-24

   xtb is free software: you can redistribute it and/or modify it under
   the terms of the GNU Lesser General Public License as published by
   the Free Software Foundation, either version 3 of the License, or
   (at your option) any later version.
   
   xtb is distributed in the hope that it will be useful,
   but WITHOUT ANY WARRANTY; without even the implied warranty of
   MERCHANTABILITY or FITNESS FOR A PARTICULAR PURPOSE.  See the
   GNU Lesser General Public License for more details.
   
   Cite this work as:
   * C. Bannwarth, E. Caldeweyher, S. Ehlert, A. Hansen, P. Pracht,
     J. Seibert, S. Spicher, S. Grimme, WIREs Comput. Mol. Sci., 2020, 11,
     e01493. DOI: 10.1002/wcms.1493
   
   for GFN2-xTB:
   * C. Bannwarth, S. Ehlert and S. Grimme., J. Chem. Theory Comput., 2019,
     15, 1652-1671. DOI: 10.1021/acs.jctc.8b01176
   for GFN1-xTB:
   * S. Grimme, C. Bannwarth, P. Shushkov, J. Chem. Theory Comput., 2017,
     13, 1989-2009. DOI: 10.1021/acs.jctc.7b00118
   for GFN0-xTB:
   * P. Pracht, E. Caldeweyher, S. Ehlert, S. Grimme, ChemRxiv, 2019, preprint.
     DOI: 10.26434/chemrxiv.8326202.v1
   for GFN-FF:
   * S. Spicher and S. Grimme, Angew. Chem. Int. Ed., 2020, 59, 15665-15673.
     DOI: 10.1002/anie.202004239
   
   for ALPB and GBSA implicit solvation:
   * S. Ehlert, M. Stahn, S. Spicher, S. Grimme, J. Chem. Theory Comput.,
     2021, 17, 4250-4261. DOI: 10.1021/acs.jctc.1c00471
   
   for ddCOSMO and CPCM-X implicit solvation:
   * M. Stahn, S. Ehlert, S. Grimme, J. Phys. Chem. A,
     2023, XX, XXXX-XXXX. DOI: 10.1021/acs.jpca.3c04382
   
   for DFT-D4:
   * E. Caldeweyher, C. Bannwarth and S. Grimme, J. Chem. Phys., 2017,
     147, 034112. DOI: 10.1063/1.4993215
   * E. Caldeweyher, S. Ehlert, A. Hansen, H. Neugebauer, S. Spicher,
     C. Bannwarth and S. Grimme, J. Chem. Phys., 2019, 150, 154122.
     DOI: 10.1063/1.5090222
   * E. Caldeweyher, J.-M. Mewes, S. Ehlert and S. Grimme, Phys. Chem. Chem. Phys.
     2020, 22, 8499-8512. DOI: 10.1039/D0CP00502A
   
   for sTDA-xTB:
   * S. Grimme and C. Bannwarth, J. Chem. Phys., 2016, 145, 054103.
     DOI: 10.1063/1.4959605
   
   in the mass-spec context:
   * V. Asgeirsson, C. Bauer and S. Grimme, Chem. Sci., 2017, 8, 4879.
     DOI: 10.1039/c7sc00601b
   * J. Koopman and S. Grimme, ACS Omega 2019, 4, 12, 15120-15133.
     DOI: 10.1021/acsomega.9b02011
   
   for metadynamics refer to:
   * S. Grimme, J. Chem. Theory Comput., 2019, 155, 2847-2862
     DOI: 10.1021/acs.jctc.9b00143
   
   for SPH calculations refer to:
   * S. Spicher and S. Grimme, J. Chem. Theory Comput., 2021, 17, 1701-1714
     DOI: 10.1021/acs.jctc.0c01306
   
   for ONIOM refer to:
   * C. Plett, A. Katbashev, S. Ehlert, S. Grimme, M. Bursch,
     Phys. Chem. Chem. Phys., 2023, 25, 17860-17868. DOI: 10.1039/D3CP02178E
   
   for DIPRO refer to:
   * J. Kohn, N. Gildemeister, S. Grimme, D. Fazzi, A. Hansen,
     J. Chem. Phys., 2023, just accepted.
   
   for PTB refer to:
   * S. Grimme, M. Mueller, A. Hansen, J. Chem. Phys., 2023, 158, 124111.
     DOI: 10.1063/5.0137838
   
   with help from (in alphabetical order)
   P. Atkinson, C. Bannwarth, F. Bohle, G. Brandenburg, E. Caldeweyher
   M. Checinski, S. Dohm, S. Ehlert, S. Ehrlich, I. Gerasimov, C. Hölzer
   A. Katbashev, J. Kohn, J. Koopman, C. Lavigne, S. Lehtola, F. März, M. Müller,
   F. Musil, H. Neugebauer, J. Pisarek, C. Plett, P. Pracht, F. Pultar,
   J. Seibert, P. Shushkov, S. Spicher, M. Stahn, M. Steiner, T. Strunk,
   J. Stückrath, T. Rose, and J. Unsleber
   
 * started run on 2025/04/09 at 05:31:24.121     
   ID    Z sym.   atoms
    1    6 C      1, 3, 4, 6, 7
    2    7 N      2, 5
    3    1 H      8-19

           -------------------------------------------------
          |                Calculation Setup                |
           -------------------------------------------------

          program call               : /usr/bin/xtb xtb_rrho.coord --gfn2 --ohess vtight --chrg 0 --enso --norestart -I rrho-xcontrol-inp --parallel 1
          coordinate file            : xtb_rrho.coord
          omp threads                :                     1


           -------------------------------------------------
          |                 G F N 2 - x T B                 |
           -------------------------------------------------

        Reference                      10.1021/acs.jctc.8b01176
      * Hamiltonian:
        H0-scaling (s, p, d)           1.850000    2.230000    2.230000
        zeta-weighting                 0.500000
      * Dispersion:
        s8                             2.700000
        a1                             0.520000
        a2                             5.000000
        s9                             5.000000
      * Repulsion:
        kExp                           1.500000    1.000000
        rExp                           1.000000
      * Coulomb:
        alpha                          2.000000
        third order                    shell-resolved
        anisotropic                    true
        a3                             3.000000
        a5                             4.000000
        cn-shift                       1.200000
        cn-exp                         4.000000
        max-rad                        5.000000


          ...................................................
          :                      SETUP                      :
          :.................................................:
          :  # basis functions                  40          :
          :  # atomic orbitals                  40          :
          :  # shells                           26          :
          :  # electrons                        42          :
          :  max. iterations                   250          :
          :  Hamiltonian                  GFN2-xTB          :
          :  restarted?                      false          :
          :  GBSA solvation                  false          :
          :  PC potential                    false          :
          :  electronic temp.          300.0000000     K    :
          :  accuracy                    1.0000000          :
          :  -> integral cutoff          0.2500000E+02      :
          :  -> integral neglect         0.1000000E-07      :
          :  -> SCF convergence          0.1000000E-05 Eh   :
          :  -> wf. convergence          0.1000000E-03 e    :
          :  Broyden damping             0.4000000          :
          :  net charge                          0          :
          :  unpaired electrons                  0          :
          ...................................................

 iter      E             dE          RMSdq      gap      omega  full diag
   1    -22.9010727 -0.229011E+02  0.288E+00   10.29       0.0  T
   2    -22.9336161 -0.325434E-01  0.174E+00   10.21       1.0  T
   3    -22.9344660 -0.849861E-03  0.715E-01   10.13       1.0  T
   4    -22.9345831 -0.117114E-03  0.747E-02   10.06       1.0  T
   5    -22.9345897 -0.667421E-05  0.393E-02   10.07       1.0  T
   6    -22.9345903 -0.550217E-06  0.478E-03   10.07       4.8  T
   7    -22.9345904 -0.627378E-07  0.174E-03   10.07      13.2  T
   8    -22.9345904 -0.377333E-08  0.508E-04   10.07      45.2  T
   9    -22.9345904 -0.463480E-09  0.124E-04   10.07     184.7  T

   *** convergence criteria satisfied after 9 iterations ***

         #    Occupation            Energy/Eh            Energy/eV
      -------------------------------------------------------------
         1        2.0000           -0.6432018             -17.5024
       ...           ...                  ...                  ...
        15        2.0000           -0.4607413             -12.5374
        16        2.0000           -0.4560304             -12.4092
        17        2.0000           -0.4434445             -12.0667
        18        2.0000           -0.4306697             -11.7191
        19        2.0000           -0.4267994             -11.6138
        20        2.0000           -0.3586256              -9.7587
        21        2.0000           -0.3489419              -9.4952 (HOMO)
        22                          0.0211890               0.5766 (LUMO)
        23                          0.0471087               1.2819
        24                          0.0665041               1.8097
        25                          0.0839609               2.2847
        26                          0.1010117               2.7487
       ...                                ...                  ...
        40                          0.2997982               8.1579
      -------------------------------------------------------------
                  HL-Gap            0.3701309 Eh           10.0718 eV
             Fermi-level           -0.1638764 Eh           -4.4593 eV

 SCC (total)                   0 d,  0 h,  0 min,  0.007 sec
 SCC setup                      ...        0 min,  0.000 sec (  1.057%)
 Dispersion                     ...        0 min,  0.000 sec (  1.938%)
 classical contributions        ...        0 min,  0.000 sec (  0.323%)
 integral evaluation            ...        0 min,  0.001 sec ( 14.126%)
 iterations                     ...        0 min,  0.003 sec ( 43.813%)
 molecular gradient             ...        0 min,  0.003 sec ( 37.651%)
 printout                       ...        0 min,  0.000 sec (  0.984%)

         :::::::::::::::::::::::::::::::::::::::::::::::::::::
         ::                     SUMMARY                     ::
         :::::::::::::::::::::::::::::::::::::::::::::::::::::
         :: total energy             -22.667025631089 Eh    ::
         :: gradient norm              0.020465215717 Eh/a0 ::
         :: HOMO-LUMO gap             10.071774568525 eV    ::
         ::.................................................::
         :: SCC energy               -22.934547366741 Eh    ::
         :: -> isotropic ES            0.013843038209 Eh    ::
         :: -> anisotropic ES          0.006567032093 Eh    ::
         :: -> anisotropic XC          0.019501936946 Eh    ::
         :: -> dispersion             -0.012870395209 Eh    ::
         :: repulsion energy           0.267521735652 Eh    ::
         :: add. restraining           0.000000000000 Eh    ::
         :: total charge              -0.000000000000 e     ::
         :::::::::::::::::::::::::::::::::::::::::::::::::::::

      ----------------------------------------------------------- 
     |                   =====================                   |
     |                        A N C O P T                        |
     |                   =====================                   |
     |               Approximate Normal Coordinate               |
     |                Rational Function Optimizer                |
      ----------------------------------------------------------- 

          ...................................................
          :                      SETUP                      :
          :.................................................:
          :   optimization level         verytight          :
          :   max. optcycles                   380          :
          :   ANC micro-cycles                  20          :
          :   degrees of freedom                51          :
          :.................................................:
          :   RF solver                   davidson          :
          :   write xtbopt.log                true          :
          :   linear?                        false          :
          :   energy convergence         0.1000000E-06 Eh   :
          :   grad. convergence          0.2000000E-03 Eh/α :
          :   maximum RF displ.          1.0000000          :
          :   Hlow (freq-cutoff)         0.1000000E-01      :
          :   Hmax (freq-cutoff)         5.0000000          :
          :   S6 in model hess.         20.0000000          :
          ...................................................

generating ANC from exact Hessian ...
Using Lindh-Hessian (1995)
 Shifting diagonal of input Hessian by    4.4677111678557225E-003
 Lowest  eigenvalues of input Hessian
    0.000000    0.000000    0.000000    0.000000    0.000000    0.000000
    0.010000    0.012426    0.015108    0.019291    0.020028    0.028060
    0.033806    0.034947    0.040741    0.058519    0.060147    0.062099
 Highest eigenvalues
    1.199590    1.218437    1.384066    1.393138    1.437258    1.458990


........................................................................
.............................. CYCLE    1 ..............................
........................................................................

 iter      E             dE          RMSdq      gap      omega  full diag
   1    -22.9345904 -0.229346E+02  0.641E-05   10.07       0.0  T
   2    -22.9345904 -0.139977E-11  0.387E-05   10.07     592.8  T
   3    -22.9345904 -0.174083E-12  0.523E-06   10.07    4388.2  T
     SCC iter.                  ...        0 min,  0.001 sec
     gradient                   ...        0 min,  0.003 sec
 * total energy  :   -22.6670256 Eh     change       -0.2546230E-10 Eh
   gradient norm :     0.0204655 Eh/α   predicted     0.0000000E+00 (-100.00%)
   displ. norm   :     0.1227587 α      lambda       -0.1353720E-02
   maximum displ.:     0.0575240 α      in ANC's #18, #1, #6, ...

........................................................................
.............................. CYCLE    2 ..............................
........................................................................

 iter      E             dE          RMSdq      gap      omega  full diag
   1    -22.9430117 -0.229430E+02  0.107E-01   10.25       0.0  T
   2    -22.9430183 -0.662030E-05  0.664E-02   10.25       1.0  T
   3    -22.9430186 -0.271208E-06  0.613E-03   10.25       3.7  T
   4    -22.9430187 -0.131191E-06  0.186E-03   10.25      12.3  T
   5    -22.9430187 -0.321183E-08  0.741E-04   10.25      31.0  T
   6    -22.9430187 -0.431303E-09  0.162E-04   10.25     141.8  T
     SCC iter.                  ...        0 min,  0.002 sec
     gradient                   ...        0 min,  0.003 sec
 * total energy  :   -22.6678461 Eh     change       -0.8204871E-03 Eh
   gradient norm :     0.0076799 Eh/α   predicted    -0.6870623E-03 ( -16.26%)
   displ. norm   :     0.0740623 α      lambda       -0.1792557E-03
   maximum displ.:     0.0552556 α      in ANC's #1, #5, #6, ...

........................................................................
.............................. CYCLE    3 ..............................
........................................................................

 iter      E             dE          RMSdq      gap      omega  full diag
   1    -22.9461279 -0.229461E+02  0.368E-02   10.31       0.0  T
   2    -22.9461289 -0.102445E-05  0.224E-02   10.32       1.0  T
   3    -22.9461290 -0.508262E-07  0.310E-03   10.32       7.4  T
   4    -22.9461290 -0.167056E-07  0.782E-04   10.32      29.3  T
   5    -22.9461290 -0.677336E-09  0.328E-04   10.32      69.9  T
     SCC iter.                  ...        0 min,  0.001 sec
     gradient                   ...        0 min,  0.003 sec
 * total energy  :   -22.6679567 Eh     change       -0.1105833E-03 Eh
   gradient norm :     0.0023592 Eh/α   predicted    -0.9012436E-04 ( -18.50%)
   displ. norm   :     0.0608652 α      lambda       -0.4422102E-04
   maximum displ.:     0.0500903 α      in ANC's #1, #5, #6, ...

........................................................................
.............................. CYCLE    4 ..............................
........................................................................

 iter      E             dE          RMSdq      gap      omega  full diag
   1    -22.9464760 -0.229465E+02  0.195E-02   10.33       0.0  T
   2    -22.9464761 -0.921469E-07  0.114E-02   10.33       2.0  T
   3    -22.9464761 -0.182042E-07  0.947E-04   10.33      24.2  T
   4    -22.9464761 -0.181378E-08  0.414E-04   10.33      55.5  T
     SCC iter.                  ...        0 min,  0.001 sec
     gradient                   ...        0 min,  0.003 sec
 * total energy  :   -22.6679886 Eh     change       -0.3191270E-04 Eh
   gradient norm :     0.0010644 Eh/α   predicted    -0.2219376E-04 ( -30.45%)
   displ. norm   :     0.0739614 α      lambda       -0.2000654E-04
   maximum displ.:     0.0618160 α      in ANC's #1, #5, #6, ...

........................................................................
.............................. CYCLE    5 ..............................
........................................................................

 iter      E             dE          RMSdq      gap      omega  full diag
   1    -22.9458558 -0.229459E+02  0.234E-02   10.32       0.0  T
   2    -22.9458559 -0.130903E-06  0.136E-02   10.32       1.7  T
   3    -22.9458559 -0.205559E-07  0.125E-03   10.32      18.4  T
   4    -22.9458559 -0.402945E-08  0.492E-04   10.32      46.6  T
   5    -22.9458559 -0.137053E-09  0.912E-05   10.32     251.6  T
     SCC iter.                  ...        0 min,  0.001 sec
     gradient                   ...        0 min,  0.003 sec
 * total energy  :   -22.6680031 Eh     change       -0.1449363E-04 Eh
   gradient norm :     0.0012388 Eh/α   predicted    -0.1004052E-04 ( -30.72%)
   displ. norm   :     0.0107989 α      lambda       -0.1922622E-05
   maximum displ.:     0.0095931 α      in ANC's #1, #5, #9, ...

........................................................................
.............................. CYCLE    6 ..............................
........................................................................

 iter      E             dE          RMSdq      gap      omega  full diag
   1    -22.9458987 -0.229459E+02  0.392E-03   10.32       0.0  T
   2    -22.9458987 -0.993066E-08  0.232E-03   10.32       9.9  T
   3    -22.9458987 -0.104304E-08  0.330E-04   10.32      69.5  T
   4    -22.9458987 -0.138453E-09  0.964E-05   10.32     237.9  T
     SCC iter.                  ...        0 min,  0.001 sec
     gradient                   ...        0 min,  0.003 sec
 * total energy  :   -22.6680055 Eh     change       -0.2358037E-05 Eh
   gradient norm :     0.0004313 Eh/α   predicted    -0.1057960E-05 ( -55.13%)
   displ. norm   :     0.0139054 α      lambda       -0.1205524E-05
   maximum displ.:     0.0127573 α      in ANC's #1, #5, #9, ...

........................................................................
.............................. CYCLE    7 ..............................
........................................................................

 iter      E             dE          RMSdq      gap      omega  full diag
   1    -22.9459824 -0.229460E+02  0.475E-03   10.32       0.0  T
   2    -22.9459824 -0.916580E-08  0.276E-03   10.32       8.3  T
   3    -22.9459824 -0.153211E-08  0.346E-04   10.32      66.4  T
   4    -22.9459824 -0.217174E-09  0.142E-04   10.32     161.6  T
     SCC iter.                  ...        0 min,  0.001 sec
     gradient                   ...        0 min,  0.003 sec
 * total energy  :   -22.6680066 Eh     change       -0.1149594E-05 Eh
   gradient norm :     0.0001877 Eh/α   predicted    -0.6034986E-06 ( -47.50%)
   displ. norm   :     0.0076382 α      lambda       -0.2106700E-06
   maximum displ.:     0.0074844 α      in ANC's #1, #5, #12, ...

........................................................................
.............................. CYCLE    8 ..............................
........................................................................

 iter      E             dE          RMSdq      gap      omega  full diag
   1    -22.9459723 -0.229460E+02  0.206E-03   10.32       0.0  T
   2    -22.9459723 -0.161296E-08  0.119E-03   10.32      19.2  T
   3    -22.9459723 -0.264063E-09  0.149E-04   10.32     154.5  T
   4    -22.9459723 -0.965095E-10  0.648E-05   10.32     353.9  T
     SCC iter.                  ...        0 min,  0.001 sec
     gradient                   ...        0 min,  0.003 sec
 * total energy  :   -22.6680069 Eh     change       -0.2985227E-06 Eh
   gradient norm :     0.0001743 Eh/α   predicted    -0.1314497E-06 ( -55.97%)
   displ. norm   :     0.0076382 α      lambda        0.0000000E+00
   maximum displ.:     0.0074844 α      in ANC's #1, #5, #12, ...

........................................................................
.............................. CYCLE    9 ..............................
........................................................................

 iter      E             dE          RMSdq      gap      omega  full diag
   1    -22.9459611 -0.229460E+02  0.207E-03   10.32       0.0  T
   2    -22.9459611 -0.158804E-08  0.120E-03   10.32      19.2  T
   3    -22.9459611 -0.275339E-09  0.146E-04   10.32     157.7  T
   4    -22.9459611 -0.890914E-10  0.648E-05   10.32     354.3  T
     SCC iter.                  ...        0 min,  0.001 sec
     gradient                   ...        0 min,  0.003 sec
 * total energy  :   -22.6680070 Eh     change       -0.1062563E-06 Eh
   gradient norm :     0.0002245 Eh/α   predicted     0.1874716E-08 (-101.76%)
   displ. norm   :     0.0020509 α      lambda       -0.9559318E-07
   maximum displ.:     0.0016866 α      in ANC's #1, #6, #8, ...

........................................................................
.............................. CYCLE   10 ..............................
........................................................................

 iter      E             dE          RMSdq      gap      omega  full diag
   1    -22.9459628 -0.229460E+02  0.158E-03   10.32       0.0  T
   2    -22.9459628 -0.196966E-09  0.926E-04   10.32      24.8  T
   3    -22.9459628 -0.675264E-10  0.455E-05   10.32     504.7  T
     SCC iter.                  ...        0 min,  0.001 sec
     gradient                   ...        0 min,  0.003 sec
 * total energy  :   -22.6680071 Eh     change       -0.9665641E-07 Eh
   gradient norm :     0.0000742 Eh/α   predicted    -0.5290202E-07 ( -45.27%)
   displ. norm   :     0.0020084 α      lambda        0.3553367E-07
   maximum displ.:     0.0016415 α      in ANC's #1, #6, #8, ...

   *** GEOMETRY OPTIMIZATION CONVERGED AFTER 10 ITERATIONS ***

------------------------------------------------------------------------
 total energy gain   :        -0.0009815 Eh       -0.6159 kcal/mol
 total RMSD          :         0.0723057 a0        0.0383 Å
 total power (kW/mol):        -0.2576891 (step)  -47.4389 (real)
------------------------------------------------------------------------

 ANCopt (total)                0 d,  0 h,  0 min,  0.054 sec
 optimizer setup                ...        0 min,  0.000 sec (  0.079%)
 model hessian                  ...        0 min,  0.004 sec (  8.083%)
 ANC generation                 ...        0 min,  0.000 sec (  0.490%)
 coordinate transformation      ...        0 min,  0.000 sec (  0.052%)
 single point calculation       ...        0 min,  0.049 sec ( 89.566%)
 optimization log               ...        0 min,  0.000 sec (  0.761%)
 hessian update                 ...        0 min,  0.000 sec (  0.073%)
 rational function              ...        0 min,  0.000 sec (  0.432%)

================
 final structure:
================
$coord
        4.52307768342957        0.00015255918742        0.07835291693826      C
        1.86215765026386        0.00007366897969       -0.53875358378073      N
        0.59756878986211        2.24134154384857        0.41180161849541      C
       -2.15061534613990        2.24546573875419       -0.45955683967637      C
       -3.38344122546016       -0.00012908759394        0.51717330373214      N
       -2.15046064652138       -2.24559804369088       -0.45965091910934      C
        0.59772317254496       -2.24132108280223        0.41170782336162      C
        5.40269123351638       -1.67209303933173       -0.73837096777362      H
        4.87612689994770        0.00012363473321        2.13083801113504      H
        5.40257647401178        1.67249116579146       -0.73830414312027      H
        0.64445130943930        2.31411874635841        2.49745266789452      H
        1.56450347493593        3.90815207920392       -0.33018092500577      H
       -3.11692381471119        3.91217377539044        0.28158948370846      H
       -2.18288730078059        2.31868924908172       -2.54420096578976      H
       -5.24106953122358       -0.00018298540186        0.03511827711657      H
       -3.11665435991223       -3.91240370187453        0.28142545382053      H
       -2.18272744071152       -2.31873636122151       -2.54429811267526      H
        0.64461062925844       -2.31418239722663        2.49735582208201      H
        1.56477261376070       -3.90803398271744       -0.33034449616380      H
$end

 Bond Distances (Angstroems)
 ---------------------------
C1-N2=1.4455         C1-H8=1.0893         C1-H9=1.1021         C1-H10=1.0893        N2-C1=1.4455         N2-C3=1.4517         
N2-C7=1.4517         C3-N2=1.4517         C3-C4=1.5256         C3-H11=1.1046        C3-H12=1.0927        C4-C3=1.5256         
C4-N5=1.4508         C4-H13=1.0923        C4-H14=1.1040        N5-C4=1.4508         N5-C6=1.4508         N5-H15=1.0156        
C6-N5=1.4508         C6-C7=1.5256         C6-H16=1.0923        C6-H17=1.1040        C7-N2=1.4517         C7-C6=1.5256         
C7-H18=1.1046        C7-H19=1.0927        H8-C1=1.0893         H9-C1=1.1021         H10-C1=1.0893        H11-C3=1.1046        
H12-C3=1.0927        H13-C4=1.0923        H14-C4=1.1040        H15-N5=1.0156        H16-C6=1.0923        H17-C6=1.1040        
H18-C7=1.1046        H19-C7=1.0927        
 C  H  Rav=1.0971 sigma=0.0063  Rmin=1.0893  Rmax=1.1046    11
 C  C  Rav=1.5256 sigma=0.0000  Rmin=1.5256  Rmax=1.5256     2
 N  H  Rav=1.0156 sigma=0.0000  Rmin=1.0156  Rmax=1.0156     1
 N  C  Rav=1.4501 sigma=0.0024  Rmin=1.4455  Rmax=1.4517     5

 selected bond angles (degree)
 --------------------
H8-C1-N2=109.06                H9-C1-N2=112.82                H9-C1-H8=108.58                H10-C1-N2=109.06               
H10-C1-H8=108.66               H10-C1-H9=108.58               C3-N2-C1=111.76                C7-N2-C1=111.76                
C7-N2-C3=109.57                C4-C3-N2=109.62                H11-C3-N2=111.37               H11-C3-C4=108.86               
H12-C3-N2=108.61               H12-C3-C4=109.67               H12-C3-H11=108.68              N5-C4-C3=108.65                
H13-C4-C3=109.81               H13-C4-N5=108.84               H14-C4-C3=108.47               H14-C4-N5=112.20               
H14-C4-H13=108.86              C6-N5-C4=109.98                H15-N5-C4=110.23               H15-N5-C6=110.23               
C7-C6-N5=108.65                H16-C6-N5=108.84               H16-C6-C7=109.81               H17-C6-N5=112.20               
H17-C6-C7=108.47               H17-C6-H16=108.86              C6-C7-N2=109.62                H18-C7-N2=111.37               
H18-C7-C6=108.86               H19-C7-N2=108.61               H19-C7-C6=109.67               H19-C7-H18=108.68              

 selected dihedral angles (degree)
 ---------------------------------
C3-N2-C1-H8=182.34            C3-N2-C1-H9= 61.61            C3-N2-C1-H10=300.87           C7-N2-C1-H8= 59.13            
C7-N2-C1-H9=298.39            C7-N2-C1-H10=177.66           C4-C3-N2-C1=175.72            C4-C3-N2-C7=300.17            
H11-C3-N2-C1=296.26           H11-C3-N2-C7= 60.70           H12-C3-N2-C1= 55.91           H12-C3-N2-C7=180.35           
N5-C4-C3-N2= 60.03            N5-C4-C3-H11=297.98           N5-C4-C3-H12=179.19           H13-C4-C3-N2=178.96           
H13-C4-C3-H11= 56.92          H13-C4-C3-H12=298.12          H14-C4-C3-N2=297.81           H14-C4-C3-H11=175.77          
H14-C4-C3-H12= 56.97          C6-N5-C4-C3=298.98            C6-N5-C4-H13=179.44           C6-N5-C4-H14= 58.90           
H15-N5-C4-C3=177.24           H15-N5-C4-H13= 57.70          H15-N5-C4-H14=297.16          C7-C6-N5-C4= 61.02            
C7-C6-N5-H15=182.76           H16-C6-N5-C4=180.56           H16-C6-N5-H15=302.30          H17-C6-N5-C4=301.10           
H17-C6-N5-H15= 62.84          C6-C7-N2-C1=184.28            C6-C7-N2-C3= 59.83            H18-C7-N2-C1= 63.74           
H18-C7-N2-C3=299.30           H19-C7-N2-C1=304.09           H19-C7-N2-C3=179.65           N2-C7-C6-N5=299.97            
N2-C7-C6-H16=181.04           N2-C7-C6-H17= 62.19           H18-C7-C6-N5= 62.02           H18-C7-C6-H16=303.08          
H18-C7-C6-H17=184.23          H19-C7-C6-N5=180.81           H19-C7-C6-H16= 61.88          H19-C7-C6-H17=303.03          
           -------------------------------------------------
          |                Final Singlepoint                |
           -------------------------------------------------

          ...................................................
          :                      SETUP                      :
          :.................................................:
          :  # basis functions                  40          :
          :  # atomic orbitals                  40          :
          :  # shells                           26          :
          :  # electrons                        42          :
          :  max. iterations                   250          :
          :  Hamiltonian                  GFN2-xTB          :
          :  restarted?                      false          :
          :  GBSA solvation                  false          :
          :  PC potential                    false          :
          :  electronic temp.          300.0000000     K    :
          :  accuracy                    1.0000000          :
          :  -> integral cutoff          0.2500000E+02      :
          :  -> integral neglect         0.1000000E-07      :
          :  -> SCF convergence          0.1000000E-05 Eh   :
          :  -> wf. convergence          0.1000000E-03 e    :
          :  Broyden damping             0.4000000          :
          :  net charge                          0          :
          :  unpaired electrons                  0          :
          ...................................................

 iter      E             dE          RMSdq      gap      omega  full diag
   1    -22.9459628 -0.229460E+02  0.199E-05   10.32       0.0  T
   2    -22.9459628 -0.589750E-12  0.107E-05   10.32    2145.2  T
   3    -22.9459628 -0.131450E-12  0.345E-06   10.32    6652.2  T

   *** convergence criteria satisfied after 3 iterations ***

         #    Occupation            Energy/Eh            Energy/eV
      -------------------------------------------------------------
         1        2.0000           -0.6453166             -17.5600
       ...           ...                  ...                  ...
        15        2.0000           -0.4629028             -12.5962
        16        2.0000           -0.4557763             -12.4023
        17        2.0000           -0.4433787             -12.0649
        18        2.0000           -0.4302745             -11.7084
        19        2.0000           -0.4261205             -11.5953
        20        2.0000           -0.3570316              -9.7153
        21        2.0000           -0.3466870              -9.4338 (HOMO)
        22                          0.0324874               0.8840 (LUMO)
        23                          0.0587040               1.5974
        24                          0.0780803               2.1247
        25                          0.0873330               2.3765
        26                          0.1099546               2.9920
       ...                                ...                  ...
        40                          0.3149430               8.5700
      -------------------------------------------------------------
                  HL-Gap            0.3791745 Eh           10.3179 eV
             Fermi-level           -0.1570998 Eh           -4.2749 eV

 SCC (total)                   0 d,  0 h,  0 min,  0.005 sec
 SCC setup                      ...        0 min,  0.000 sec (  0.998%)
 Dispersion                     ...        0 min,  0.000 sec (  0.749%)
 classical contributions        ...        0 min,  0.000 sec (  0.345%)
 integral evaluation            ...        0 min,  0.001 sec ( 19.811%)
 iterations                     ...        0 min,  0.001 sec ( 21.880%)
 molecular gradient             ...        0 min,  0.003 sec ( 55.344%)
 printout                       ...        0 min,  0.000 sec (  0.718%)

         :::::::::::::::::::::::::::::::::::::::::::::::::::::
         ::                     SUMMARY                     ::
         :::::::::::::::::::::::::::::::::::::::::::::::::::::
         :: total energy             -22.668007116946 Eh    ::
         :: gradient norm              0.000074389566 Eh/a0 ::
         :: HOMO-LUMO gap             10.317862305640 eV    ::
         ::.................................................::
         :: SCC energy               -22.945920931272 Eh    ::
         :: -> isotropic ES            0.013822090170 Eh    ::
         :: -> anisotropic ES          0.006100217837 Eh    ::
         :: -> anisotropic XC          0.019361935015 Eh    ::
         :: -> dispersion             -0.012930269354 Eh    ::
         :: repulsion energy           0.277913814326 Eh    ::
         :: add. restraining           0.000000000000 Eh    ::
         :: total charge               0.000000000000 e     ::
         :::::::::::::::::::::::::::::::::::::::::::::::::::::

           ------------------------------------------------- 
          |                Numerical Hessian                |
           ------------------------------------------------- 
step length          :   0.00500
SCC accuracy         :   0.30000
Hessian scale factor :   1.00000
frozen atoms in %    :   0.00000    0
RMS gradient         :   0.00007
estimated CPU  time      0.01 min
estimated wall time      0.01 min

writing file <hessian>, containing the non-mass-weighted Hessian matrix in atomic units (Eₕ/Bohr²).

 projected vibrational frequencies (cm⁻¹)
eigval :       -0.00     0.00     0.00     0.00     0.00     0.00
eigval :      150.70   207.66   237.85   323.91   358.15   403.20
eigval :      430.52   454.61   570.32   830.22   846.05   859.94
eigval :      940.65   958.12  1029.88  1052.34  1061.74  1075.72
eigval :     1095.67  1150.33  1157.84  1166.07  1169.90  1187.84
eigval :     1268.47  1273.37  1288.02  1308.10  1332.20  1348.07
eigval :     1369.79  1394.02  1417.92  1462.63  1467.80  1469.63
eigval :     1474.16  1491.69  1493.17  2804.34  2808.39  2818.17
eigval :     2826.64  2842.60  2964.33  2965.24  2972.09  2973.25
eigval :     3010.87  3012.58  3356.43
           -------------------------------------------------
          |                Property Printout                |
           -------------------------------------------------

    * Orbital Energies and Occupations

         #    Occupation            Energy/Eh            Energy/eV
      -------------------------------------------------------------
         1        2.0000           -0.6453166             -17.5600
       ...           ...                  ...                  ...
         9        2.0000           -0.5147363             -14.0067
        10        2.0000           -0.5095705             -13.8661
        11        2.0000           -0.5070646             -13.7979
        12        2.0000           -0.5047702             -13.7355
        13        2.0000           -0.4906245             -13.3506
        14        2.0000           -0.4744654             -12.9109
        15        2.0000           -0.4629028             -12.5962
        16        2.0000           -0.4557763             -12.4023
        17        2.0000           -0.4433787             -12.0649
        18        2.0000           -0.4302745             -11.7084
        19        2.0000           -0.4261205             -11.5953
        20        2.0000           -0.3570316              -9.7153
        21        2.0000           -0.3466870              -9.4338 (HOMO)
        22                          0.0324875               0.8840 (LUMO)
        23                          0.0587040               1.5974
        24                          0.0780803               2.1247
        25                          0.0873330               2.3765
        26                          0.1099546               2.9920
        27                          0.1166945               3.1754
        28                          0.1336905               3.6379
        29                          0.1582977               4.3075
        30                          0.1655548               4.5050
        31                          0.1769387               4.8147
        32                          0.1802666               4.9053
       ...                                ...                  ...
        40                          0.3149430               8.5700
      -------------------------------------------------------------
                  HL-Gap            0.3791745 Eh           10.3179 eV
             Fermi-level           -0.1570998 Eh           -4.2749 eV

     #   Z          covCN         q      C6AA      α(0)
     1   6          3.714    -0.031    21.253     6.587
     2   7          2.730    -0.176    24.812     7.398
     3   6          3.774     0.011    20.417     6.438
     4   6          3.755     0.017    20.344     6.431
     5   7          2.684    -0.255    26.618     7.663
     6   6          3.755     0.017    20.344     6.431
     7   6          3.774     0.011    20.417     6.438
     8   1          0.925     0.038     2.470     2.458
     9   1          0.923     0.011     2.873     2.651
    10   1          0.925     0.038     2.470     2.458
    11   1          0.923     0.017     2.775     2.605
    12   1          0.924     0.031     2.574     2.509
    13   1          0.924     0.031     2.569     2.507
    14   1          0.923     0.014     2.823     2.628
    15   1          0.860     0.130     1.542     1.945
    16   1          0.924     0.031     2.569     2.507
    17   1          0.923     0.014     2.823     2.628
    18   1          0.923     0.017     2.775     2.605
    19   1          0.924     0.031     2.574     2.509

 Mol. C6AA /au·bohr⁶  :       2695.067207
 Mol. C8AA /au·bohr⁸  :      55658.531346
 Mol. α(0) /au        :         77.393789


Wiberg/Mayer (AO) data.
largest (>0.10) Wiberg bond orders for each atom

 ---------------------------------------------------------------------------
     #   Z sym  total        # sym  WBO       # sym  WBO       # sym  WBO
 ---------------------------------------------------------------------------
     1   6      3.988 --     2      1.017     8      0.982    10      0.982
                             9      0.973
     2   7      3.119 --     1      1.017     3      1.004     7      1.004
     3   6      3.989 --     2      1.004     4      1.001    12      0.973
                            11      0.963
     4   6      3.989 --     5      1.015     3      1.001    13      0.975
                            14      0.966
     5   7      3.063 --     6      1.015     4      1.015    15      0.959
     6   6      3.989 --     5      1.015     7      1.001    16      0.975
                            17      0.966
     7   6      3.989 --     2      1.004     6      1.001    19      0.973
                            18      0.963
     8   1      0.998 --     1      0.982
     9   1      1.000 --     1      0.973
    10   1      0.998 --     1      0.982
    11   1      1.000 --     3      0.963
    12   1      0.999 --     3      0.973
    13   1      0.999 --     4      0.975
    14   1      1.000 --     4      0.966
    15   1      0.983 --     5      0.959
    16   1      0.999 --     6      0.975
    17   1      1.000 --     6      0.966
    18   1      1.000 --     7      0.963
    19   1      0.999 --     7      0.973
 ---------------------------------------------------------------------------

Topologies differ in total number of bonds
Writing topology from bond orders to xtbtopo.mol

molecular dipole:
                 x           y           z       tot (Debye)
 q only:       -0.016       0.000      -0.063
   full:       -0.064      -0.000      -0.082       0.265
molecular quadrupole (traceless):
                xx          xy          yy          xz          yz          zz
 q only:        1.442      -0.000       1.032       0.844       0.000      -2.475
  q+dip:        1.205      -0.000       0.661       3.123       0.000      -1.866
   full:        2.078      -0.000       1.163       3.202       0.000      -3.241

           -------------------------------------------------
          |                Geometry Summary                 |
           -------------------------------------------------

      molecular mass/u    :      100.1623749
   center of mass at/Å    :        0.0000416      -0.0000009      -0.0000452
  moments of inertia/u·Å² :        0.1062147E+03   0.2151941E+03   0.2941988E+03
rotational constants/cm⁻¹ :        0.1587128E+00   0.7833687E-01   0.5730014E-01

 * 19 selected distances

     #   Z          #   Z                                           value/Å
     1   6          2   7                                         1.4454693
     2   7          3   6                                         1.4517235
     3   6          4   6                                         1.5256281
     4   6          5   7                                         1.4508104
     5   7          6   6                                         1.4508104
     2   7          7   6                                         1.4517235
     6   6          7   6                                         1.5256281 (max)
     1   6          8   1                                         1.0892781
     1   6          9   1                                         1.1020793
     1   6         10   1                                         1.0892781
     3   6         11   1                                         1.1046295
     3   6         12   1                                         1.0926912
     4   6         13   1                                         1.0923333
     4   6         14   1                                         1.1039587
     5   7         15   1                                         1.0155737 (min)
     6   6         16   1                                         1.0923333
     6   6         17   1                                         1.1039587
     7   6         18   1                                         1.1046295
     7   6         19   1                                         1.0926912

 * 4 distinct bonds (by element types)

   Z      Z             #   av. dist./Å        max./Å        min./Å
   1 H    6 C          11     1.0970783     1.1046295     1.0892781
   6 C    6 C           2     1.5256281     1.5256281     1.5256281
   1 H    7 N           1     1.0155737     1.0155737     1.0155737
   6 C    7 N           5     1.4501074     1.4517235     1.4454693

           -------------------------------------------------
          |               Frequency Printout                |
           -------------------------------------------------
 projected vibrational frequencies (cm⁻¹)
eigval :       -0.00     0.00     0.00     0.00     0.00     0.00
eigval :      150.70   207.66   237.85   323.91   358.15   403.20
eigval :      430.52   454.61   570.32   830.22   846.05   859.94
eigval :      940.65   958.12  1029.88  1052.34  1061.74  1075.72
eigval :     1095.67  1150.33  1157.84  1166.07  1169.90  1187.84
eigval :     1268.47  1273.37  1288.02  1308.10  1332.20  1348.07
eigval :     1369.79  1394.02  1417.92  1462.63  1467.80  1469.63
eigval :     1474.16  1491.69  1493.17  2804.34  2808.39  2818.17
eigval :     2826.64  2842.60  2964.33  2965.24  2972.09  2973.25
eigval :     3010.87  3012.58  3356.43
 reduced masses (amu)
    1:      3.66    2:      4.86    3:      4.49    4:      5.22    5:      3.20    6:      3.24
    7:      2.62    8:      1.33    9:      1.37   10:      2.02   11:      2.38   12:      2.20
   13:      3.65   14:      2.90   15:      1.77   16:      2.94   17:      1.45   18:      1.45
   19:      2.39   20:      2.05   21:      2.38   22:      1.64   23:      1.62   24:      1.50
   25:      1.85   26:      1.99   27:      1.75   28:      1.23   29:      2.58   30:      1.63
   31:      1.32   32:      2.45   33:      1.39   34:      1.35   35:      1.28   36:      1.49
   37:      1.52   38:      1.36   39:      1.18   40:      1.08   41:      1.10   42:      1.10
   43:      1.10   44:      1.05   45:      1.06   46:      1.07   47:      1.07   48:      1.08
   49:      1.07   50:      1.07   51:      1.07   52:      1.07   53:      1.07   54:      1.07
   55:      1.09   56:      1.04   57:      1.07
 IR intensities (km·mol⁻¹)
    1:      0.01    2:      0.00    3:      0.00    4:      0.00    5:      0.01    6:      0.01
    7:      3.35    8:      0.71    9:      0.77   10:      4.46   11:      0.46   12:      1.41
   13:      7.44   14:      0.43   15:     18.70   16:      8.59   17:     71.91   18:      0.14
   19:      1.34   20:      2.72   21:     16.63   22:      0.02   23:      6.95   24:      8.55
   25:      7.86   26:      0.84   27:     18.89   28:      2.48   29:     24.97   30:      4.99
Molecule has the following symmetry elements: (sigma) 
It seems to be the Cs point group
   31:     34.57   32:     15.45   33:      6.20   34:     32.59   35:      6.21   36:     26.02
   37:      0.47   38:      0.91   39:      1.26   40:      0.00   41:      5.20   42:      1.69
   43:      0.93   44:      7.71   45:      0.83   46:     25.68   47:      8.95   48:      2.62
   49:    208.17   50:    221.00   51:     18.98   52:     35.41   53:     13.33   54:    149.12
   55:     51.89   56:     41.05   57:     22.15
 Raman intensities (Ä⁴*amu⁻¹)
    1:      0.00    2:      0.00    3:      0.00    4:      0.00    5:      0.00    6:      0.00
    7:      0.00    8:      0.00    9:      0.00   10:      0.00   11:      0.00   12:      0.00
   13:      0.00   14:      0.00   15:      0.00   16:      0.00   17:      0.00   18:      0.00
   19:      0.00   20:      0.00   21:      0.00   22:      0.00   23:      0.00   24:      0.00
   25:      0.00   26:      0.00   27:      0.00   28:      0.00   29:      0.00   30:      0.00
   31:      0.00   32:      0.00   33:      0.00   34:      0.00   35:      0.00   36:      0.00
   37:      0.00   38:      0.00   39:      0.00   40:      0.00   41:      0.00   42:      0.00
   43:      0.00   44:      0.00   45:      0.00   46:      0.00   47:      0.00   48:      0.00
   49:      0.00   50:      0.00   51:      0.00   52:      0.00   53:      0.00   54:      0.00
   55:      0.00   56:      0.00   57:      0.00
 output can be read by thermo (or use thermo option).
 writing <g98.out> molden fake output.
 recommended (thermochemical) frequency scaling factor: 1.0
           -------------------------------------------------
          |             Thermodynamic Functions             |
           -------------------------------------------------

cs  symmetry found (for desy threshold:  0.10E+00) used in thermo

          ...................................................
          :                      SETUP                      :
          :.................................................:
          :  # frequencies                          51      :
          :  # imaginary freq.                       0      :
          :  linear?                             false      :
          :  only rotor calc.                    false      :
          :  symmetry                               cs      :
          :  rotational number                       1      :
          :  scaling factor                  1.0000000      :
          :  rotor cutoff                    0.0000000 cm⁻¹ :
          :  imag. cutoff                 -100.0000000 cm⁻¹ :
          :.................................................:

    mode    ω/cm⁻¹     T·S(HO)/kcal·mol⁻¹    T·S(FR)/kcal·mol⁻¹   T·S(vib)
   ------------------------------------------------------------------------
       1    150.70    -0.79407 (100.00%)    -0.72955 (  0.00%)    -0.79407
       2    207.66    -0.61542 (100.00%)    -0.63462 (  0.00%)    -0.61542
       3    237.85    -0.54230 (100.00%)    -0.59442 (  0.00%)    -0.54230
   ------------------------------------------------------------------------

   temp. (K)  partition function   enthalpy   heat capacity  entropy
                                   cal/mol     cal/K/mol   cal/K/mol   J/K/mol
 298.15  VIB   12.7                 2581.415     21.030     13.709
         ROT  0.198E+06              888.727      2.981     27.218
         INT  0.252E+07             3470.143     24.011     40.926
         TR   0.307E+26             1481.212      4.968     39.723
         TOT                        4951.3552    28.9791    80.6492   337.4362

       T/K    H(0)-H(T)+PV         H(T)/Eh          T*S/Eh         G(T)/Eh
   ------------------------------------------------------------------------
    298.15    0.789049E-02    0.178601E+00    0.383190E-01    0.140282E+00
   ------------------------------------------------------------------------

         :::::::::::::::::::::::::::::::::::::::::::::::::::::
         ::                  THERMODYNAMIC                  ::
         :::::::::::::::::::::::::::::::::::::::::::::::::::::
         :: total free energy         -22.527725255846 Eh   ::
         ::.................................................::
         :: total energy              -22.668007116946 Eh   ::
         :: zero point energy           0.170710411257 Eh   ::
         :: G(RRHO) w/o ZPVE           -0.030428550157 Eh   ::
         :: G(RRHO) contrib.            0.140281861100 Eh   ::
         :::::::::::::::::::::::::::::::::::::::::::::::::::::

optimized geometry written to: xtbopt.coord


           -------------------------------------------------
          | TOTAL ENERGY              -22.668007116946 Eh   |
          | TOTAL ENTHALPY            -22.489406218900 Eh   |
          | TOTAL FREE ENERGY         -22.527725255846 Eh   |
          | GRADIENT NORM               0.000074406876 Eh/α |
          | HOMO-LUMO GAP              10.317862131752 eV   |
           -------------------------------------------------

------------------------------------------------------------------------
 * finished run on 2025/04/09 at 05:31:24.775     
------------------------------------------------------------------------
 total:
 * wall-time:     0 d,  0 h,  0 min,  0.655 sec
 *  cpu-time:     0 d,  0 h,  0 min,  0.650 sec
 * ratio c/w:     0.993 speedup
 SCF:
 * wall-time:     0 d,  0 h,  0 min,  0.007 sec
 *  cpu-time:     0 d,  0 h,  0 min,  0.007 sec
 * ratio c/w:     0.989 speedup
 ANC optimizer:
 * wall-time:     0 d,  0 h,  0 min,  0.059 sec
 *  cpu-time:     0 d,  0 h,  0 min,  0.059 sec
 * ratio c/w:     0.995 speedup
 analytical hessian:
 * wall-time:     0 d,  0 h,  0 min,  0.583 sec
 *  cpu-time:     0 d,  0 h,  0 min,  0.579 sec
 * ratio c/w:     0.993 speedup

