19
 energy: -22.667025631114 gnorm: 0.020465534491 xtb: 6.7.1 (41059b4)
C            2.39590330270066        0.00007775085908        0.06353611836282
N            0.98961270607169        0.00004016357905       -0.31524273921436
C            0.31566136120353        1.19820490005331        0.18861496160814
C           -1.14540557817627        1.20028770582374       -0.23789392566853
N           -1.79828379291809       -0.00006727140296        0.29159018077067
C           -1.14532349357787       -1.20035874455329       -0.23793649562116
C            0.31574409379364       -1.19818941434069        0.18856967927121
H            2.89085598651980       -0.88677186711611       -0.34702482946604
H            2.54535512919460        0.00002388992771        1.16173689290572
H            2.89078193441201        0.88701404361417       -0.34692683993995
H            0.36821707821193        1.25690200689770        1.29552242167844
H            0.82038277743945        2.08204967348138       -0.22056557457068
H           -1.64143475002639        2.08854019303513        0.17018790323759
H           -1.18673301006580        1.25717445092627       -1.34249143026909
H           -2.77724173346560       -0.00009572934697        0.02888442242049
H           -1.64128964290153       -2.08865955495920        0.17011660834624
H           -1.18664968121634       -1.25721084286035       -1.34253563486029
H            0.36830579481195       -1.25692321655443        1.29547507793253
H            0.82052697485996       -2.08198443644157       -0.22064273882744
19
 energy: -22.667846118251 gnorm: 0.007679906070 xtb: 6.7.1 (41059b4)
C            2.39348066246056        0.00007859429212        0.06168163514338
N            0.99202279198354        0.00003994834254       -0.30429702149244
C            0.31904177268147        1.19052096188955        0.19673537582836
C           -1.14023532645981        1.19083144201220       -0.24031872903647
N           -1.79110783580580       -0.00006714093885        0.28594786362860
C           -1.14015406780957       -1.19090220811145       -0.24036186786714
C            0.31912369356141       -1.19050618710125        0.19668984043682
H            2.87402382953483       -0.88562341329454       -0.35577578178979
H            2.54581376775488        0.00002963045890        1.15444534272453
H            2.87395287184261        0.88586122476790       -0.35568608987682
H            0.36704702037777        1.24150626096788        1.30024726682214
H            0.82530029677360        2.06911058136351       -0.21385919709475
H           -1.64588321640025        2.07108455019818        0.16615332742232
H           -1.18411671870230        1.23511832769875       -1.34266908177556
H           -2.77212630930735       -0.00009571958794        0.02441168462724
H           -1.64574011963217       -2.07120447465145        0.16608067676876
H           -1.18403473706248       -1.23515371888990       -1.34271359807197
H            0.36713394516358       -1.24152954880338        1.30019997205659
H            0.82544313591681       -2.06904540999079       -0.21393756035749
19
 energy: -22.667956701540 gnorm: 0.002359248701 xtb: 6.7.1 (41059b4)
C            2.39182208519168        0.00007898432707        0.05668365480508
N            0.99001493822003        0.00003970431713       -0.29652082659938
C            0.31907097566078        1.18812641653731        0.20245179403129
C           -1.13901447857293        1.18863177949051       -0.24092101035644
N           -1.78761359870808       -0.00006714850669        0.28221055376065
C           -1.13893316549970       -1.18870225713760       -0.24096521616626
C            0.31915284841262       -1.18811249645142        0.20240551731601
H            2.86548449217985       -0.88483073426036       -0.36560580923378
H            2.55398645342597        0.00003667152700        1.14636863330404
H            2.86541617291380        0.88506296648059       -0.36552642677009
H            0.35791659743224        1.23559168403715        1.30492095936005
H            0.82603407347996        2.06655206641456       -0.20453710676812
H           -1.64607596339003        2.06887880895426        0.16113263524411
H           -1.17302810034726        1.22894957719529       -1.34302284190680
H           -2.77054858220606       -0.00009594510289        0.02565463432214
H           -1.64593313944375       -2.06899881273470        0.16105765654771
H           -1.17294607341624       -1.22898273826926       -1.34306844266772
H            0.35800311807312       -1.23561749268349        1.30487298083162
H            0.82617680346533       -2.06648733351247       -0.20461728095782
19
 energy: -22.667988614241 gnorm: 0.001064388482 xtb: 6.7.1 (41059b4)
C            2.39213653500863        0.00007941586023        0.05158764017297
N            0.98803186838184        0.00003952334553       -0.29096615222217
C            0.31826614144952        1.18721051491443        0.20805279233625
C           -1.13893164373150        1.18773828931442       -0.24225230327472
N           -1.78743913392095       -0.00006735500927        0.27947562566043
C           -1.13885026100376       -1.18780862708659       -0.24229771636197
C            0.31834798861174       -1.18719737640022        0.20800563897741
H            2.86236708959427       -0.88471897830566       -0.37444942142392
H            2.56403460701903        0.00004386918340        1.13987327128723
H            2.86230115387799        0.88494582819355       -0.37438076338741
H            0.35109210306691        1.23273019845072        1.31082547603763
H            0.82653922991413        2.06655901265496       -0.19465627950179
H           -1.64704107656369        2.06908020928579        0.15521969518946
H           -1.16564734690547        1.22659826474893       -1.34490411777787
H           -2.77161875674433       -0.00009627552460        0.02761125570720
H           -1.64689834420238       -2.06920047289695        0.15514213019761
H           -1.16556495952159       -1.22662932066768       -1.34495097478549
H            0.35117838063677       -1.23275829006653        1.31077659630971
H            0.82668188190416       -2.06649472937247       -0.19473833504423
19
 energy: -22.668003107876 gnorm: 0.001238813964 xtb: 6.7.1 (41059b4)
C            2.39348610229962        0.00008009281925        0.04507551480753
N            0.98610696987246        0.00003928234989       -0.28554347111627
C            0.31693874787445        1.18665827416609        0.21468650085121
C           -1.13895495976226        1.18750078828795       -0.24373721035424
N           -1.78859290596057       -0.00006776830530        0.27632631668838
C           -1.13887337044050       -1.18757091450276       -0.24378466199571
C            0.31702060430894       -1.18664632765558        0.21463794974519
H            2.86059877090099       -0.88491102859120       -0.38523096941118
H            2.57681166777764        0.00005502639077        1.13212205588495
H            2.86053596695437        0.88512958489427       -0.38517928688070
H            0.34298342140731        1.22939365620321        1.31833131046394
H            0.82734645603860        2.06785605031800       -0.18168000860358
H           -1.64903099624034        2.07048865772302        0.14771554770889
H           -1.15770519946898        1.22472833866864       -1.34719123912494
H           -2.77373379778454       -0.00009672690804        0.02951605667246
H           -1.64888821665441       -2.07060943824620        0.14763369110937
H           -1.15762203405414       -1.22475624950320       -1.34724017756898
H            0.34306917545065       -1.22942503670851        1.31828101471560
H            0.82748905435203       -2.06779256077830       -0.18176487549560
19
 energy: -22.668005465913 gnorm: 0.000431303402 xtb: 6.7.1 (41059b4)
C            2.39342338305076        0.00008024566918        0.04421620273219
N            0.98602433042315        0.00003922373283       -0.28587363436234
C            0.31666155066231        1.18653204585519        0.21547393586970
C           -1.13853881442019        1.18776674923609       -0.24360429777036
N           -1.78911276242302       -0.00006788087240        0.27567101991013
C           -1.13845719317196       -1.18783684220682       -0.24365223584094
C            0.31674335690412       -1.18652035700653        0.21542513074837
H            2.86019823549220       -0.88488348134640       -0.38655209223507
H            2.57720427219415        0.00005715620903        1.13098348989500
H            2.86013567231610        0.88510048844744       -0.38650377385823
H            0.34278231123058        1.22777719569307        1.31914300363213
H            0.82751133883481        2.06797680079389       -0.17978107352296
H           -1.64916443557503        2.07037390507039        0.14808559058673
H           -1.15723207429151        1.22521308299787       -1.34691677988134
H           -2.77354487965440       -0.00009670924026        0.02659681606324
H           -1.64902170312628       -2.07049485373087        0.14800275796157
H           -1.15714867758237       -1.22524041970020       -1.34696620636446
H            0.34286767365658       -1.22780907052294        1.31909251309773
H            0.82765387235132       -2.06791357845657       -0.17986630856479
19
 energy: -22.668006615506 gnorm: 0.000187747752 xtb: 6.7.1 (41059b4)
C            2.39338309826308        0.00008047996417        0.04302520438186
N            0.98580536069427        0.00003910164283       -0.28592983373327
C            0.31637900669030        1.18633077555681        0.21640399556795
C           -1.13821314462187        1.18804310443614       -0.24334360544356
N           -1.78968721844335       -0.00006806407772        0.27495838023014
C           -1.13813144546565       -1.18811316736104       -0.24339234577989
C            0.31646074629239       -1.18631949242011        0.21635484096099
H            2.85967134152831       -0.88483314160310       -0.38826506190090
H            2.57818503605282        0.00006071794624        1.12947943053609
H            2.85960949600049        0.88504751387141       -0.38822227969408
H            0.34212621298812        1.22582647310432        1.32001305323747
H            0.82774349174186        2.06805239372667       -0.17744481402250
H           -1.64929320257187        2.07025342985208        0.14867675590130
H           -1.15635726964571        1.22595799019802       -1.34652240298515
H           -2.77336908940594       -0.00009672050867        0.02273152639527
H           -1.64915056916979       -2.07037469101785        0.14859225024764
H           -1.15627341927853       -1.22598431941159       -1.34657268515592
H            0.34221107329464       -1.22585916283911        1.31996227306355
H            0.82788595192777       -2.06798952043753       -0.17753062371066
19
 energy: -22.668006914029 gnorm: 0.000174256392 xtb: 6.7.1 (41059b4)
C            2.39340232025173        0.00008058504251        0.04231283957523
N            0.98561583795702        0.00003905341802       -0.28563585262751
C            0.31631169900186        1.18620513381341        0.21712585121320
C           -1.13810051352496        1.18813036074715       -0.24330153245312
N           -1.78998704857670       -0.00006816711391        0.27440512648550
C           -1.13801873293131       -1.18820038567304       -0.24335072949781
C            0.31639342995941       -1.18619405507938        0.21707647785191
H            2.85932732970112       -0.88483933792479       -0.38937604472088
H            2.57903737991041        0.00006281503153        1.12863738785756
H            2.85926597081901        0.88505205711058       -0.38933657639818
H            0.34170904063482        1.22519777839450        1.32076772282230
H            0.82781828360514        2.06806132940495       -0.17617371050722
H           -1.64930661247331        2.07022370443649        0.14881037824668
H           -1.15590183543901        1.22636243249092       -1.34645913206258
H           -2.77335383570838       -0.00009676327649        0.02080002909067
H           -1.64916398852598       -2.07034513184951        0.14872486244866
H           -1.15581764815720       -1.22638815093158       -1.34650990209935
H            0.34179365086988       -1.22523092871483        1.32071673163841
H            0.82796072949778       -2.06799862870455       -0.17625986876713
19
 energy: -22.668007020285 gnorm: 0.000224451618 xtb: 6.7.1 (41059b4)
C            2.39342154224038        0.00008069012086        0.04160047476860
N            0.98542631521976        0.00003900519320       -0.28534187152175
C            0.31624439131342        1.18607949207000        0.21784770685845
C           -1.13798788242805        1.18821761705817       -0.24325945946267
N           -1.79028687871005       -0.00006827015011        0.27385187274085
C           -1.13790602039697       -1.18828760398503       -0.24330911321573
C            0.31632611362642       -1.18606861773865        0.21779811474283
H            2.85898331787393       -0.88484553424647       -0.39048702754087
H            2.57988972376801        0.00006491211682        1.12779534517902
H            2.85892244563753        0.88505660034976       -0.39045087310228
H            0.34129186828152        1.22456908368467        1.32152239240713
H            0.82789307546842        2.06807026508323       -0.17490260699195
H           -1.64932002237474        2.07019397902090        0.14894400059205
H           -1.15544640123230        1.22676687478382       -1.34639586114001
H           -2.77333858201082       -0.00009680604431        0.01886853178607
H           -1.64917740788217       -2.07031557268118        0.14885747464968
H           -1.15536187703586       -1.22679198245158       -1.34644711904278
H            0.34137622844512       -1.22460269459055        1.32147119021327
H            0.82803550706778       -2.06800773697157       -0.17498911382359
19
 energy: -22.668007116942 gnorm: 0.000074184572 xtb: 6.7.1 (41059b4)
C            2.39350963322161        0.00008073084529        0.04146257805162
N            0.98541139163109        0.00003898394520       -0.28509611882989
C            0.31621978554280        1.18606686685816        0.21791603192136
C           -1.13805663059871        1.18824929681554       -0.24318700667203
N           -1.79043999094829       -0.00006831021293        0.27367632642323
C           -1.13797476708606       -1.18831930957293       -0.24323679136397
C            0.31630148134033       -1.18605603933872        0.21786639767406
H            2.85898107833035       -0.88483353092638       -0.39072908933929
H            2.58033523293069        0.00006542468329        1.12759091562172
H            2.85892035021578        0.88504421037593       -0.39069372725562
H            0.34102894649284        1.22457890389974        1.32159503716241
H            0.82789958531698        2.06810501706372       -0.17472422098842
H           -1.64940505087066        2.07023320703481        0.14901073760888
H           -1.15513421354591        1.22699750978330       -1.34633317105714
H           -2.77345455668941       -0.00009683170459        0.01858379193632
H           -1.64926246153168       -2.07035487889038        0.14892393673028
H           -1.15504961924042       -1.22702244045403       -1.34638457897506
H            0.34111325491037       -1.22461258648866        1.32154378856546
H            0.82804200744962       -2.06804252309439       -0.17481077911761
