 Entering Gaussian System
 *********************************************
 Gaussian 98:
 frequency output generated by the xtb code
 *********************************************
                         Standard orientation:
 --------------------------------------------------------------------
  Center     Atomic     Atomic              Coordinates (Angstroms)
  Number     Number      Type              X           Y           Z
 --------------------------------------------------------------------
    1          6             0        0.000062    1.804400    0.000060
    2          6             0        0.000020    0.483908   -0.000004
    3         17             0        1.441268   -0.454685    0.000005
    4         17             0       -1.441287   -0.454593   -0.000009
    5          1             0       -0.921494    2.356785   -0.000002
    6          1             0        0.921653    2.356726    0.000006
 --------------------------------------------------------------------
     1 basis functions        1 primitive gaussians
     1 alpha electrons        1 beta electrons

 Harmonic frequencies (cm**-1), IR intensities (km*mol⁻¹),
 Raman scattering activities (A**4/amu), Raman depolarization ratios,
 reduced masses (AMU), force constants (mDyne/A) and normal coordinates:
                      1                      2                      3
                        a                      a                      a 
 Frequencies --   270.8570               332.0564               437.8663
 Red. masses --    18.5553                 3.0964                 8.7483
 Frc consts  --     0.0000                 0.0000                 0.0000
 IR Inten    --     0.4615                14.2137                 0.5094
 Raman Activ --     0.0000                 0.0000                 0.0000
 Depolar     --     0.0000                 0.0000                 0.0000
 Atom AN      X      Y      Z        X      Y      Z        X      Y      Z
   1   6    -0.00  -0.31  -0.00     0.60  -0.00   0.00    -0.00  -0.00   0.28
   2   6    -0.00  -0.31   0.00    -0.17   0.00  -0.00     0.00   0.00  -0.91
   3  17     0.60   0.20   0.00    -0.18   0.37   0.00    -0.00   0.00   0.16
   4  17    -0.60   0.20  -0.00    -0.18  -0.37  -0.00     0.00   0.00   0.16
   5   1     0.00  -0.09  -0.00     0.31   0.22   0.00     0.00  -0.00   0.14
   6   1    -0.00  -0.09  -0.00     0.31  -0.22  -0.00    -0.00  -0.00   0.14
                      4                      5                      6
                        a                      a                      a 
 Frequencies --   581.8705               670.7478               702.8418
 Red. masses --     9.6316                 1.0193                 3.8761
 Frc consts  --     0.0000                 0.0000                 0.0000
 IR Inten    --     1.5936                 0.0000                 0.9001
 Raman Activ --     0.0000                 0.0000                 0.0000
 Depolar     --     0.0000                 0.0000                 0.0000
 Atom AN      X      Y      Z        X      Y      Z        X      Y      Z
   1   6    -0.00  -0.52  -0.00    -0.00   0.00  -0.00    -0.20   0.00  -0.00
   2   6    -0.00  -0.45   0.00    -0.00   0.00   0.00    -0.76   0.00  -0.00
   3  17    -0.38   0.31  -0.00     0.00  -0.00  -0.08     0.26  -0.16   0.00
   4  17     0.38   0.31   0.00     0.00   0.00   0.08     0.26   0.16  -0.00
   5   1    -0.00  -0.16  -0.00     0.00   0.00  -0.70     0.12   0.29   0.00
   6   1     0.00  -0.16   0.00     0.00  -0.00   0.70     0.12  -0.29  -0.00
                      7                      8                      9
                        a                      a                      a 
 Frequencies --   854.0224              1031.0609              1347.5737
 Red. masses --     1.2672                 1.7589                 1.0991
 Frc consts  --     0.0000                 0.0000                 0.0000
 IR Inten    --    38.6143                55.0721                 5.5165
 Raman Activ --     0.0000                 0.0000                 0.0000
 Depolar     --     0.0000                 0.0000                 0.0000
 Atom AN      X      Y      Z        X      Y      Z        X      Y      Z
   1   6    -0.00   0.00   0.47     0.44  -0.00   0.00    -0.00  -0.08   0.00
   2   6     0.00  -0.00  -0.05    -0.51   0.00  -0.00    -0.00  -0.29  -0.00
   3  17    -0.00   0.00  -0.02     0.05  -0.01   0.00    -0.01   0.01  -0.00
   4  17     0.00   0.00  -0.02     0.05   0.01   0.00     0.01   0.01   0.00
   5   1     0.00  -0.00  -0.62    -0.19  -0.48  -0.00     0.34   0.58  -0.00
   6   1    -0.00  -0.00  -0.62    -0.19   0.48   0.00    -0.34   0.58  -0.00
                     10                     11                     12
                        a                      a                      a 
 Frequencies --  1650.3622              3123.8240              3161.4183
 Red. masses --     7.8929                 1.0515                 1.1117
 Frc consts  --     0.0000                 0.0000                 0.0000
 IR Inten    --    64.9076                 9.0971                 2.7575
 Raman Activ --     0.0000                 0.0000                 0.0000
 Depolar     --     0.0000                 0.0000                 0.0000
 Atom AN      X      Y      Z        X      Y      Z        X      Y      Z
   1   6     0.00   0.68   0.00     0.00   0.21  -0.00     0.32  -0.00   0.00
   2   6    -0.00  -0.70  -0.00    -0.00  -0.01  -0.00     0.01  -0.00   0.00
   3  17    -0.02   0.01  -0.00     0.00  -0.00  -0.00    -0.00   0.00   0.00
   4  17     0.02   0.01  -0.00    -0.00  -0.00  -0.00    -0.00  -0.00  -0.00
   5   1    -0.15  -0.04   0.00     0.60  -0.34   0.00    -0.57   0.36  -0.00
   6   1     0.15  -0.04   0.00    -0.60  -0.34   0.00    -0.57  -0.36   0.00
