
                                 *****************
                                 * O   R   C   A *
                                 *****************

                                            #,                                       
                                            ###                                      
                                            ####                                     
                                            #####                                    
                                            ######                                   
                                           ########,                                 
                                     ,,################,,,,,                         
                               ,,#################################,,                 
                          ,,##########################################,,             
                       ,#########################################, ''#####,          
                    ,#############################################,,   '####,        
                  ,##################################################,,,,####,       
                ,###########''''           ''''###############################       
              ,#####''   ,,,,##########,,,,          '''####'''          '####       
            ,##' ,,,,###########################,,,                        '##       
           ' ,,###''''                  '''############,,,                           
         ,,##''                                '''############,,,,        ,,,,,,###''
      ,#''                                            '''#######################'''  
     '                                                          ''''####''''         
             ,#######,   #######,   ,#######,      ##                                
            ,#'     '#,  ##    ##  ,#'     '#,    #''#        ,####,   ,####,        
            ##       ##  ##   ,#'  ##            #'  '#       #'       #'  '#        
            ##       ##  #######   ##           ,######,      #####,   #    #        
            '#,     ,#'  ##    ##  '#,     ,#' ,#      #,     #,   #   #,  ,#        
             '#######'   ##     ##  '#######'  #'      '#     '####' # '####'        



                #########################################################
                #                        -***-                          #
                #          Department of theory and spectroscopy        #
                #                                                       #
                #                      Frank Neese                      #
                #                                                       #
                #     Directorship, Architecture, Infrastructure        #
                #                    SHARK, DRIVERS                     #
                #        Core code/Algorithms in most modules           #
                #                                                       #
                #        Max Planck Institute fuer Kohlenforschung      #
                #                Kaiser Wilhelm Platz 1                 #
                #                 D-45470 Muelheim/Ruhr                 #
                #                      Germany                          #
                #                                                       #
                #                  All rights reserved                  #
                #                        -***-                          #
                #########################################################


                         Program Version 6.0.1  -  RELEASE   -


 With contributions from (in alphabetic order):
[Max-Planck-Institut fuer Kohlenforschung]                               
  Daniel Aravena         : Magnetic Suceptibility                        
  Michael Atanasov       : Ab Initio Ligand Field Theory (pilot matlab implementation)
  Alexander A. Auer      : GIAO ZORA, VPT2 properties, NMR spectrum      
  Ute Becker             : All parallelization in ORCA, NUMFREQ, NUMCALC 
  Giovanni Bistoni       : ED, misc. LED, open-shell LED, HFLD           
  Martin Brehm           : Molecular dynamics                            
  Dmytro Bykov           : pre 5.0 version of the SCF Hessian            
  Marcos Casanova-Páez   : Triplet and SCS-CIS(D). UHF-(DLPNO)-IP/EA/STEOM-CCSD. UHF-CVS-IP/STEOM-CCSD   
  Vijay G. Chilkuri      : MRCI spin determinant printing, contributions to CSF-ICE 
  Pauline Colinet        : FMM embedding                                 
  Dipayan Datta          : RHF DLPNO-CCSD density                        
  Achintya Kumar Dutta   : EOM-CC, STEOM-CC                              
  Nicolas Foglia         : Exact transition moments, OPA infrastructure, MCD improvements    
  Dmitry Ganyushin       : Spin-Orbit,Spin-Spin,Magnetic field MRCI      
  Miquel Garcia-Rates    : C-PCM and meta-GGA Hessian, CCSD/C-PCM, Gaussian charge scheme 
  Tiago L. C. Gouveia    : GS-ROHF, GS-ROCIS                             
  Yang Guo               : DLPNO-NEVPT2, F12-NEVPT2, CIM, IAO-localization        
  Andreas Hansen         : Spin unrestricted coupled pair/coupled cluster methods 
  Ingolf Harden          : AUTO-CI MPn and infrastructure                
  Benjamin Helmich-Paris : MC-RPA, TRAH-(SCF,CASSCF), AVAS, COSX integrals, SCF dyn. polar. 
  Lee Huntington         : MR-EOM, pCC                                   
  Robert Izsak           : Overlap fitted RIJCOSX, COSX-SCS-MP3, EOM     
  Riya Kayal             : Wick's Theorem for AUTO-CI, AUTO-CI UHF-CCSDT 
  Emily Kempfer          : AUTO-CI, RHF CISDT and CCSDT                  
  Christian Kollmar      : KDIIS, OOCD, Brueckner-CCSD(T), CCSD density, CASPT2, CASPT2-K, improved NEVPT2 
  Axel Koslowski         : Symmetry handling                             
  Simone Kossmann        : meta-GGA functionals, TD-DFT gradient, OOMP2, (MP2 Hessian; deprecated post 5.0) 
  Lucas Lang             : DCDCAS                                        
  Marvin Lechner         : AUTO-CI (C++ implementation), FIC-MRCC        
  Spencer Leger          : CASSCF response                               
  Dagmar Lenk            : GEPOL surface, SMD, ORCA-2-JSON               
  Dimitrios Liakos       : Extrapolation schemes; Compound Job, initial MDCI parallelization 
  Dimitrios Manganas     : Further ROCIS development; embedding schemes. LFT, Crystal Embedding 
  Dimitrios Pantazis     : SARC Basis sets                               
  Anastasios Papadopoulos: AUTO-CI, single reference methods and gradients 
  Taras Petrenko         : pre 6.0 DFT Hessian and TD-DFT gradient, (ASA, deprecated), ECA, 1-Electron XAS/XES, NRVS 
  Peter Pinski           : DLPNO-MP2, DLPNO-MP2 Gradient                 
  Christoph Reimann      : Effective Core Potentials                     
  Marius Retegan         : Local ZFS, SOC                                
  Christoph Riplinger    : Optimizer, TS searches, QM/MM, DLPNO-CCSD(T), (RO)-DLPNO pert. Triples 
  Michael Roemelt        : Original ROCIS implementation                 
  Masaaki Saitow         : Open-shell DLPNO-CCSD energy and density      
  Barbara Sandhoefer     : DKH picture change effects                    
  Kantharuban Sivalingam : CASSCF convergence/infrastructure, NEVPT2 and variants, FIC-MRCI 
  Bernardo de Souza      : ESD, SOC TD-DFT                               
  Georgi L. Stoychev     : AutoAux, RI-MP2 NMR, DLPNO-MP2 response, X2C  
  Van Anh Tran           : RI-MP2 g-tensors                              
  Willem Van den Heuvel  : Paramagnetic NMR                              
  Zikuan Wang            : NOTCH, Electric field optimization            
  Frank Wennmohs         : Technical directorship and infrastructure     
  Hang Xu                : AUTO-CI-Response properties                   
                                                                         
[FACCTs GmbH]                                                            
  Markus Bursch, Miquel Garcia-Rates, Christoph Riplinger, Bernardo de Souza, Georgi L. Stoychev 
                                                                 
  APM, Basis sets (HGBS, AHGBS, def-TZVP (Ac-Lr), def2-XVPD (La-Lu)), CI-OPT, improved COSX, DLPNO-Multilevel,           
  DOCKER, DRACO, updates on ESD, GOAT, IRC, LR-CPCM, MBIS, meta-GGA TD-DFT gradient, ML-optimized integration grids, 
  MM, NACMEs, nearIR, NEB, NEB-TS, NL-DFT gradient (VV10), 2- and 3-layer-ONIOM, interface openCOSMO-RS, QMMM,   
  Crystal-QMMM, SF, symmetry and pop. for TD-DFT, r2SCAN hybrids, SOLVATOR                                   
                                                                         
[Other institutions]                                                     
  V. Asgeirsson          : NEB                                           
  Christoph Bannwarth    : sTDA-DFT, sTD-DFT, PBEh-3c, B97-3c, D3        
  Sebastian Ehlert       : rSCAN, r2SCAN, r2SCAN-3c, D4, dhf basis sets  
  Marvin Friede          : D4 for Fr, Ra, Ac-Lr                          
  Lars Goerigk           : TD-DFT with DH, B97 family of functionals     
  Stefan Grimme          : VdW corrections, initial TS optimization, DFT functionals, gCP, sTDA/sTD-DF 
  Waldemar Hujo          : DFT-NL                                        
  H. Jonsson             : NEB                                           
  Holger Kruse           : gCP                                           
  Marcel Mueller         : wB97X-3c, vDZP basis set                      
  Hagen Neugebauer       : wr2SCAN                                       
  Tobias Risthaus        : range-separated hybrid DFT                    
  Lukas Wittmann         : regularized MP2, r2SCAN double-hybrids, wr2SCAN        
                                                                         
We gratefully acknowledge several colleagues who have allowed us to      
interface, adapt or use parts of their codes:                            
  Ed Valeev, F. Pavosevic, A. Kumar             : LibInt (2-el integral package), F12 methods 
  Garnet Chan, S. Sharma, J. Yang, R. Olivares  : DMRG                   
  Ulf Ekstrom                                   : XCFun DFT Library      
  Mihaly Kallay                                 : mrcc  (arbitrary order and MRCC methods)
  Frank Weinhold                                : gennbo (NPA and NBO analysis)           
  Simon Mueller                                 : openCOSMO-RS                            
  Christopher J. Cramer and Donald G. Truhlar   : smd solvation model                     
  S Lehtola, MJT Oliveira, MAL Marques          : LibXC Library                           
  Liviu Ungur et al                             : ANISO software                          


 Your calculation uses the libint2 library for the computation of 2-el integrals
 For citations please refer to: http://libint.valeyev.net

 Your ORCA version has been built with support for libXC version: 6.2.2
 For citations please refer to: https://libxc.gitlab.io

 This ORCA versions uses:
   CBLAS   interface :  Fast vector & matrix operations
   LAPACKE interface :  Fast linear algebra routines
   SCALAPACK package :  Parallel linear algebra routines
   Shared memory     :  Shared parallel matrices
   BLAS/LAPACK       :  OpenBLAS 0.3.27  USE64BITINT DYNAMIC_ARCH NO_AFFINITY Zen SINGLE_THREADED
        Core in use  :  Zen
   Copyright (c) 2011-2014, The OpenBLAS Project


Your calculation utilizes the geometrical counterpoise correction gCP
Please cite in your paper:
H.Kruse, S. Grimme J.Chem.Phys., 136, (2012), 154101 
   

Your calculation utilizes the atom-pairwise dispersion correction
based on EEQ partial charges (D4)


================================================================================

----- Orbital basis set information -----
Your calculation utilizes the basis: def2-SV(P)
   F. Weigend and R. Ahlrichs, Phys. Chem. Chem. Phys. 7, 3297 (2005).

----- AuxJ basis set information -----
Your calculation utilizes the auxiliary basis: def2/J
   F. Weigend, Phys. Chem. Chem. Phys. 8, 1057 (2006).

================================================================================
                                        WARNINGS
                       Please study these warnings very carefully!
================================================================================

WARNING: Old DensityContainer found on disk!
         Will remove this file - 
         If you want to keep old densities, please start your calculation with a different basename. 


================================================================================
                                       INPUT FILE
================================================================================
NAME = sp.inp
|  1> ! pbe def2-sv(p) def2/J RI DEFGRID1 loosescf d4 GCP(DFT/SV(P)) printgap
|  2> %output
|  3>     printlevel normal
|  4> end
|  5> * xyz 0 1
|  6> C 4.2192914018 1.2280672479 8.56922e-05
|  7> C 2.9225626788 1.7152190312 -0.0001583452
|  8> C 1.8471923909 0.8435750818 -0.000357461
|  9> C 2.0704415141 -0.5344097 -0.0003417235
| 10> C 3.3629661517 -1.0274691451 -6.92457e-05
| 11> C 4.4308419781 -0.1398130271 0.000146363
| 12> Cl 6.0368002443 -0.762111303 0.0005137492
| 13> O 1.0357119298 -1.4409158754 -0.000601687
| 14> C -0.2254035627 -0.9119144581 -0.0004139836
| 15> C -1.2968454152 -1.7872397677 -0.0002732881
| 16> C -2.5958152634 -1.2976037005 -3.75793e-05
| 17> C -2.8328974082 0.0725831354 8.8038e-05
| 18> C -1.7484296842 0.9525813562 -7.3434e-05
| 19> C -0.444211473 0.4692162454 -0.0003505801
| 20> O 0.5782314351 1.374993307 -0.0005579874
| 21> Cl -1.9997437321 2.6484896921 5.11796e-05
| 22> Cl -4.4322073042 0.6885567188 0.0004473821
| 23> Cl -3.9124482509 -2.3964966497 0.0001161461
| 24> H 5.0551809042 1.9079027097 0.0002382769
| 25> H 2.726383959 2.7747485803 -0.0002045887
| 26> H 3.5180975015 -2.0934680766 -4.15236e-05
| 27> H -1.1081184972 -2.847517796 -0.000356498
| 28> *
| 29> 
| 30>                          ****END OF INPUT****
================================================================================

                       ****************************
                       * Single Point Calculation *
                       ****************************

---------------------------------
CARTESIAN COORDINATES (ANGSTROEM)
---------------------------------
  C      4.219291    1.228067    0.000086
  C      2.922563    1.715219   -0.000158
  C      1.847192    0.843575   -0.000357
  C      2.070442   -0.534410   -0.000342
  C      3.362966   -1.027469   -0.000069
  C      4.430842   -0.139813    0.000146
  Cl     6.036800   -0.762111    0.000514
  O      1.035712   -1.440916   -0.000602
  C     -0.225404   -0.911914   -0.000414
  C     -1.296845   -1.787240   -0.000273
  C     -2.595815   -1.297604   -0.000038
  C     -2.832897    0.072583    0.000088
  C     -1.748430    0.952581   -0.000073
  C     -0.444211    0.469216   -0.000351
  O      0.578231    1.374993   -0.000558
  Cl    -1.999744    2.648490    0.000051
  Cl    -4.432207    0.688557    0.000447
  Cl    -3.912448   -2.396497    0.000116
  H      5.055181    1.907903    0.000238
  H      2.726384    2.774749   -0.000205
  H      3.518098   -2.093468   -0.000042
  H     -1.108118   -2.847518   -0.000356

----------------------------
CARTESIAN COORDINATES (A.U.)
----------------------------
  NO LB      ZA    FRAG     MASS         X           Y           Z
   0 C     6.0000    0    12.011    7.973305    2.320711    0.000162
   1 C     6.0000    0    12.011    5.522843    3.241294   -0.000299
   2 C     6.0000    0    12.011    3.490688    1.594126   -0.000676
   3 C     6.0000    0    12.011    3.912567   -1.009888   -0.000646
   4 C     6.0000    0    12.011    6.355085   -1.941635   -0.000131
   5 C     6.0000    0    12.011    8.373078   -0.264208    0.000277
   6 Cl   17.0000    0    35.453   11.407899   -1.440182    0.000971
   7 O     8.0000    0    15.999    1.957212   -2.722936   -0.001137
   8 C     6.0000    0    12.011   -0.425951   -1.723269   -0.000782
   9 C     6.0000    0    12.011   -2.450683   -3.377394   -0.000516
  10 C     6.0000    0    12.011   -4.905380   -2.452116   -0.000071
  11 C     6.0000    0    12.011   -5.353400    0.137162    0.000166
  12 C     6.0000    0    12.011   -3.304053    1.800118   -0.000139
  13 C     6.0000    0    12.011   -0.839438    0.886690   -0.000663
  14 O     8.0000    0    15.999    1.092699    2.598361   -0.001054
  15 Cl   17.0000    0    35.453   -3.778968    5.004920    0.000097
  16 Cl   17.0000    0    35.453   -8.375658    1.301184    0.000845
  17 Cl   17.0000    0    35.453   -7.393456   -4.528722    0.000219
  18 H     1.0000    0     1.008    9.552907    3.605414    0.000450
  19 H     1.0000    0     1.008    5.152119    5.243515   -0.000387
  20 H     1.0000    0     1.008    6.648241   -3.956081   -0.000078
  21 H     1.0000    0     1.008   -2.094040   -5.381029   -0.000674

--------------------------------
INTERNAL COORDINATES (ANGSTROEM)
--------------------------------
 C      0   0   0     0.000000000000     0.00000000     0.00000000
 C      1   0   0     1.385215615195     0.00000000     0.00000000
 C      2   1   0     1.384263150658   120.38335381     0.00000000
 C      3   2   1     1.395952087333   119.82397288     0.00000000
 C      4   3   2     1.383375447754   120.08295943     0.00000000
 C      1   2   3     1.384142368670   119.38154065     0.00000000
 Cl     6   1   2     1.722311595483   119.97249376   180.00249026
 O      4   3   2     1.375652145800   122.01835645   180.00330395
 C      8   4   3     1.367572601422   116.02239776     0.00000000
 C      9   8   4     1.383539685268   117.99590901   180.01830636
 C     10   9   8     1.388188099789   120.09902232   179.99794126
 C     11  10   9     1.390546627926   120.47016317     0.00000000
 C     12  11  10     1.396591256983   119.24118249     0.00000000
 C     13  12  11     1.390908713602   120.60662954     0.00000000
 O     14  13  12     1.365950814877   118.12687907   179.99718117
 Cl    13  12  11     1.714428140803   120.62859165   179.99912159
 Cl    12  11  10     1.713830717433   120.88080927   180.00266013
 Cl    11  10   9     1.714960104844   119.49730385   179.99930176
 H      1   2   3     1.077444912107   120.28820459   179.99986557
 H      2   1   3     1.077538378740   121.07995352   180.00042230
 H      5   4   3     1.077227672509   119.16029843   179.99881750
 H     10   9   8     1.076943523959   119.15464767     0.00000000

---------------------------
INTERNAL COORDINATES (A.U.)
---------------------------
 C      0   0   0     0.000000000000     0.00000000     0.00000000
 C      1   0   0     2.617678149150     0.00000000     0.00000000
 C      2   1   0     2.615878252023   120.38335381     0.00000000
 C      3   2   1     2.637967141135   119.82397288     0.00000000
 C      4   3   2     2.614200736646   120.08295943     0.00000000
 C      1   2   3     2.615650007144   119.38154065     0.00000000
 Cl     6   1   2     3.254697232741   119.97249376   180.00249026
 O      4   3   2     2.599605811104   122.01835645   180.00330395
 C      8   4   3     2.584337684943   116.02239776     0.00000000
 C      9   8   4     2.614511100567   117.99590901   180.01830636
 C     10   9   8     2.623295330969   120.09902232   179.99794126
 C     11  10   9     2.627752303228   120.47016317     0.00000000
 C     12  11  10     2.639174996727   119.24118249     0.00000000
 C     13  12  11     2.628436545993   120.60662954     0.00000000
 O     14  13  12     2.581272952524   118.12687907   179.99718117
 Cl    13  12  11     3.239799662405   120.62859165   179.99912159
 Cl    12  11  10     3.238670695851   120.88080927   180.00266013
 Cl    11  10   9     3.240804928756   119.49730385   179.99930176
 H      1   2   3     2.036075808269   120.28820459   179.99986557
 H      2   1   3     2.036252434607   121.07995352   180.00042230
 H      5   4   3     2.035665284923   119.16029843   179.99881750
 H     10   9   8     2.035128321983   119.15464767     0.00000000

---------------------
BASIS SET INFORMATION
---------------------
There are 4 groups of distinct atoms

 Group   1 Type C   : 7s4p1d contracted to 3s2p1d pattern {511/31/1}
 Group   2 Type Cl  : 10s7p1d contracted to 4s3p1d pattern {5311/511/1}
 Group   3 Type O   : 7s4p1d contracted to 3s2p1d pattern {511/31/1}
 Group   4 Type H   : 4s contracted to 2s pattern {31}

Atom   0C    basis set group =>   1
Atom   1C    basis set group =>   1
Atom   2C    basis set group =>   1
Atom   3C    basis set group =>   1
Atom   4C    basis set group =>   1
Atom   5C    basis set group =>   1
Atom   6Cl   basis set group =>   2
Atom   7O    basis set group =>   3
Atom   8C    basis set group =>   1
Atom   9C    basis set group =>   1
Atom  10C    basis set group =>   1
Atom  11C    basis set group =>   1
Atom  12C    basis set group =>   1
Atom  13C    basis set group =>   1
Atom  14O    basis set group =>   3
Atom  15Cl   basis set group =>   2
Atom  16Cl   basis set group =>   2
Atom  17Cl   basis set group =>   2
Atom  18H    basis set group =>   4
Atom  19H    basis set group =>   4
Atom  20H    basis set group =>   4
Atom  21H    basis set group =>   4
---------------------------------
AUXILIARY/J BASIS SET INFORMATION
---------------------------------
There are 4 groups of distinct atoms

 Group   1 Type C   : 12s5p4d2f1g contracted to 6s4p3d1f1g pattern {711111/2111/211/2/1}
 Group   2 Type Cl  : 14s5p5d2f1g contracted to 8s4p3d1f1g pattern {71111111/2111/311/2/1}
 Group   3 Type O   : 12s5p4d2f1g contracted to 6s4p3d1f1g pattern {711111/2111/211/2/1}
 Group   4 Type H   : 5s2p1d contracted to 3s1p1d pattern {311/2/1}

Atom   0C    basis set group =>   1
Atom   1C    basis set group =>   1
Atom   2C    basis set group =>   1
Atom   3C    basis set group =>   1
Atom   4C    basis set group =>   1
Atom   5C    basis set group =>   1
Atom   6Cl   basis set group =>   2
Atom   7O    basis set group =>   3
Atom   8C    basis set group =>   1
Atom   9C    basis set group =>   1
Atom  10C    basis set group =>   1
Atom  11C    basis set group =>   1
Atom  12C    basis set group =>   1
Atom  13C    basis set group =>   1
Atom  14O    basis set group =>   3
Atom  15Cl   basis set group =>   2
Atom  16Cl   basis set group =>   2
Atom  17Cl   basis set group =>   2
Atom  18H    basis set group =>   4
Atom  19H    basis set group =>   4
Atom  20H    basis set group =>   4
Atom  21H    basis set group =>   4

Checking for AutoStart:
The File: sp.gbw exists
Trying to determine its content:
     ... Fine, the file contains calculation information
     ... Fine, the calculation information was read
     ... Fine, the file contains a basis set
     ... Fine, the basis set was read
     ... Fine, the file contains a geometry
     ... Fine, the geometry was read
     ... Fine, the file contains a set of orbitals
     ... Fine, the orbitals can be read
     => possible old guess file was deleted
     => GBW file was renamed to GES file
     => GES file is set as startup file
     => Guess is set to MORead
     ... now leaving AutoStart

------------------------------------------------------------------------------
                             ORCA STARTUP CALCULATIONS
                           -- RI-GTO INTEGRALS CHOSEN --
------------------------------------------------------------------------------
------------------------------------------------------------------------------
                   ___                                                        
                  /   \      - P O W E R E D   B Y -                         
                 /     \                                                     
                 |  |  |   _    _      __       _____    __    __             
                 |  |  |  | |  | |    /  \     |  _  \  |  |  /  |          
                  \  \/   | |  | |   /    \    | | | |  |  | /  /          
                 / \  \   | |__| |  /  /\  \   | |_| |  |  |/  /          
                |  |  |   |  __  | /  /__\  \  |    /   |      \           
                |  |  |   | |  | | |   __   |  |    \   |  |\   \          
                \     /   | |  | | |  |  |  |  | |\  \  |  | \   \       
                 \___/    |_|  |_| |__|  |__|  |_| \__\ |__|  \__/        
                                                                              
                      - O R C A' S   B I G   F R I E N D -                    
                                      &                                       
                       - I N T E G R A L  F E E D E R -                       
                                                                              
 v1 FN, 2020, v2 2021, v3 2022-2024                                           
------------------------------------------------------------------------------


----------------------
SHARK INTEGRAL PACKAGE
----------------------

Number of atoms                             ...     22
Number of basis functions                   ...    276
Number of shells                            ...    124
Maximum angular momentum                    ...      2
Integral batch strategy                     ... SHARK/LIBINT Hybrid
RI-J (if used) integral strategy            ... SPLIT-RIJ (Revised 2003 algorithm where possible)
Printlevel                                  ...      1
Contraction scheme used                     ... SEGMENTED contraction
Prescreening option                         ... SCHWARTZ
   Thresh                                   ... 1.000e-09
   Tcut                                     ... 1.000e-10
   Tpresel                                  ... 1.000e-10 
Coulomb Range Separation                    ... NOT USED
Exchange Range Separation                   ... NOT USED
Multipole approximations                    ... NOT USED
Finite Nucleus Model                        ... NOT USED
CABS basis                                  ... NOT available
Auxiliary Coulomb fitting basis             ... AVAILABLE
   # of basis functions in Aux-J            ...    934
   # of shells in Aux-J                     ...    298
   Maximum angular momentum in Aux-J        ...      4
Auxiliary J/K fitting basis                 ... NOT available
Auxiliary Correlation fitting basis         ... NOT available
Auxiliary 'external' fitting basis          ... NOT available

Checking pre-screening integrals            ... done (  0.0 sec) Dimension = 124
Check shell pair data                       ... done (  0.0 sec)
Shell pair information
Shell pair cut-off parameter TPreSel        ...   1.0e-10
Total number of shell pairs                 ...      7750
Shell pairs after pre-screening             ...      5598
Total number of primitive shell pairs       ...     33182
Primitive shell pairs kept                  ...     14750
          la=0 lb=0:   1530 shell pairs
          la=1 lb=0:   1966 shell pairs
          la=1 lb=1:    662 shell pairs
          la=2 lb=0:    799 shell pairs
          la=2 lb=1:    530 shell pairs
          la=2 lb=2:    111 shell pairs

Calculating one electron integrals          ... done (  0.0 sec)
Calculating RI/J V-Matrix + Cholesky decomp.... done (  0.0 sec)
Calculating Nuclear repulsion               ... done (  0.0 sec) ENN=   1711.519255726903 Eh

Diagonalization of the overlap matrix:
Smallest eigenvalue                        ... 1.309e-04
Time for diagonalization                   ...    0.005 sec
Threshold for overlap eigenvalues          ... 1.000e-07
Number of eigenvalues below threshold      ... 0
Time for construction of square roots      ...    0.002 sec
Total time needed                          ...    0.008 sec

-------------------
DFT GRID GENERATION
-------------------

General Integration Accuracy     IntAcc      ... 4.159
Radial Grid Type                 RadialGrid  ... OptM3 with GC (2021)
Angular Grid (max. ang.)         AngularGrid ... 3 (Lebedev-194)
Angular grid pruning method      GridPruning ... 4 (adaptive)
Weight generation scheme         WeightScheme... mBecke (2022)
Basis function cutoff            BFCut       ... 1.0000e-10
Integration weight cutoff        WCut        ... 1.0000e-14
Partially contracted basis set               ... off
Rotationally invariant grid construction     ... off
Angular grids for H and He will be reduced by one unit

Total number of grid points                  ...    67927
Total number of batches                      ...     1072
Average number of points per batch           ...       63
Average number of grid points per atom       ...     3088
Initializing property integral containers    ... done (  0.0 sec)

SHARK setup successfully completed in   0.5 seconds

Maximum memory used throughout the entire STARTUP-calculation: 36.3 MB
-------------------------------------------------------------------------------
                                 ORCA GUESS
                   Start orbitals & Density for SCF / CASSCF
-------------------------------------------------------------------------------

------------
SCF SETTINGS
------------
Hamiltonian:
 Density Functional     Method          .... DFT(GTOs)
 Exchange Functional    Exchange        .... PBE
   PBE kappa parameter   XKappa         ....  0.804000
   PBE mue parameter    XMuePBE         ....  0.219520
 Correlation Functional Correlation     .... PBE
   PBE beta parameter  CBetaPBE         ....  0.066725
 LDA part of GGA corr.  LDAOpt          .... PW91-LDA
 Gradients option       PostSCFGGA      .... off
   NL short-range parameter             ....  6.400000
 RI-approximation to the Coulomb term is turned on
   Number of AuxJ basis functions       .... 934


General Settings:
 Integral files         IntName         .... sp
 Hartree-Fock type      HFTyp           .... RHF
 Total Charge           Charge          ....    0
 Multiplicity           Mult            ....    1
 Number of Electrons    NEL             ....  160
 Basis Dimension        Dim             ....  276
 Nuclear Repulsion      ENuc            ....   1711.5192557269 Eh

Convergence Acceleration:
 AO-DIIS                CNVDIIS         .... on
   Start iteration      DIISMaxIt       ....    12
   Startup error        DIISStart       ....  0.200000
   # of expansion vecs  DIISMaxEq       ....     5
   Bias factor          DIISBfac        ....   1.050
   Max. coefficient     DIISMaxC        ....  10.000
 MO-DIIS                CNVKDIIS        .... off
 Trust-Rad. Augm. Hess. CNVTRAH         .... auto
   Auto Start mean grad. ratio tolernc. ....  1.125000
   Auto Start start iteration           ....     1
   Auto Start num. interpolation iter.  ....    10
   Max. Number of Micro iterations      ....    24
   Max. Number of Macro iterations      .... Maxiter - #DIIS iter
   Number of Davidson start vectors     ....     2
   Converg. threshold    (grad. norm)   ....   1.000e-04
   Grad. Scal. Fac. for Micro threshold ....   0.100
   Minimum threshold for Micro iter.    ....   1.000e-02
   NR start threshold (gradient norm)   ....   1.000e-04
   Initial trust radius                 ....   0.400
   Minimum AH scaling param. (alpha)    ....   1.000
   Maximum AH scaling param. (alpha)    .... 1000.000
   Quad. conv. algorithm                .... NR
   White noise on init. David. guess    .... on
   Maximum white noise                  ....   0.010
   Pseudo random numbers                .... off
   Inactive MOs                         .... canonical
   Orbital update algorithm             .... Taylor
   Preconditioner                       .... Diag
   Full preconditioner red. dimension   ....   250
 SOSCF                  CNVSOSCF        .... on
   Start iteration      SOSCFMaxIt      ....   150
   Startup grad/error   SOSCFStart      ....  0.003300
   Hessian update       SOSCFHessUp     .... L-BFGS
 Level Shifting         CNVShift        .... on
   Level shift para.    LevelShift      ....    0.2500
   Turn off err/grad.   ShiftErr        ....    0.0010
 Zerner damping         CNVZerner       .... off
 Static damping         CNVDamp         .... on
   Fraction old density DampFac         ....    0.7000
   Max. Damping (<1)    DampMax         ....    0.9800
   Min. Damping (>=0)   DampMin         ....    0.0000
   Turn off err/grad.   DampErr         ....    0.1000

SCF Procedure:
 Maximum # iterations   MaxIter         ....   125
 SCF integral mode      SCFMode         .... Direct
   Integral package                     .... SHARK and LIBINT hybrid scheme
 Reset frequency        DirectResetFreq ....    20
 Integral Threshold     Thresh          ....  1.000e-09 Eh
 Primitive CutOff       TCut            ....  1.000e-10 Eh

Convergence Tolerance:
 Convergence Check Mode ConvCheckMode   .... Total+1el-Energy
 Convergence forced     ConvForced      .... 0
 Energy Change          TolE            ....  1.000e-05 Eh
 1-El. energy change                    ....  1.000e-02 Eh
 Orbital Gradient       TolG            ....  1.000e-04
 Orbital Rotation angle TolX            ....  1.000e-04
 DIIS Error             TolErr          ....  5.000e-04

---------------------
INITIAL GUESS: MOREAD
---------------------
Guess MOs are being read from file: sp.ges
Input Geometry matches current geometry (good)
Input basis set matches current basis set (good)
Occupation numbers will be reassigned to an Aufbau configuration
MOs were renormalized
MOs were reorthogonalized (Cholesky)
                      ------------------
                      INITIAL GUESS DONE (   0.0 sec)
                      ------------------
             **** ENERGY FILE WAS UPDATED (sp.en.tmp) ****
Finished Guess after   0.1 sec
Maximum memory used throughout the entire GUESS-calculation: 19.0 MB

-------------------------------------------------------------------------------------------
                                      ORCA LEAN-SCF
                              memory conserving SCF solver
-------------------------------------------------------------------------------------------

----------------------------------------D-I-I-S--------------------------------------------
Iteration    Energy (Eh)           Delta-E    RMSDP     MaxDP     DIISErr   Damp  Time(sec)
-------------------------------------------------------------------------------------------
               ***  Starting incremental Fock matrix formation  ***
                              *** Initializing SOSCF ***
---------------------------------------S-O-S-C-F--------------------------------------
Iteration    Energy (Eh)           Delta-E    RMSDP     MaxDP     MaxGrad    Time(sec)
--------------------------------------------------------------------------------------
    1    -2448.4293343865756469     0.00e+00  1.85e-05  4.24e-04  1.20e-04     0.8
               *** Restarting incremental Fock matrix formation ***
    2    -2448.4293344439365683    -5.74e-08  3.54e-05  1.00e-03  1.31e-04     0.8
    3    -2448.4293281806576488     6.26e-06  2.62e-05  7.64e-04  4.73e-04     0.6
                 **** Energy Check signals convergence ****

               *****************************************************
               *                     SUCCESS                       *
               *           SCF CONVERGED AFTER   3 CYCLES          *
               *****************************************************

             **** ENERGY FILE WAS UPDATED (sp.en.tmp) ****

----------------
TOTAL SCF ENERGY
----------------

Total Energy       :      -2448.42932818065765 Eh          -66625.14918 eV

Components:
Nuclear Repulsion  :       1711.51925572690266 Eh           46572.80666 eV
Electronic Energy  :      -4159.94858390756053 Eh         -113197.95584 eV
One Electron Energy:      -6774.00024455057519 Eh         -184329.91781 eV
Two Electron Energy:       2614.05166064301511 Eh           71131.96197 eV

Virial components:
Potential Energy   :      -4888.41320256015115 Eh         -133020.48587 eV
Kinetic Energy     :       2439.98387437949350 Eh           66395.33670 eV
Virial Ratio       :          2.00346127443294

DFT components:
N(Alpha)           :       79.999901109157 electrons
N(Beta)            :       79.999901109157 electrons
N(Total)           :      159.999802218315 electrons
E(X)               :     -189.525785927131 Eh       
E(C)               :       -5.844229285756 Eh       
E(XC)              :     -195.370015212888 Eh       

---------------
SCF CONVERGENCE
---------------

  Last Energy change         ...   -6.2633e-06  Tolerance :   1.0000e-05
  Last MAX-Density change    ...    7.6355e-04  Tolerance :   1.0000e-03
  Last RMS-Density change    ...    2.6164e-05  Tolerance :   1.0000e-04
  Last DIIS Error            ...    2.8205e-04  Tolerance :   5.0000e-04
  Last Orbital Gradient      ...    4.7287e-04  Tolerance :   1.0000e-04
  Last Orbital Rotation      ...    9.0415e-04  Tolerance :   1.0000e-04


----------------
ORBITAL ENERGIES
----------------

  NO   OCC          E(Eh)            E(eV) 
   0   2.0000    -100.658861     -2739.0669 
   1   2.0000    -100.656128     -2738.9925 
   2   2.0000    -100.655302     -2738.9700 
   3   2.0000    -100.649655     -2738.8164 
   4   2.0000     -18.840760      -512.6831 
   5   2.0000     -18.840078      -512.6646 
   6   2.0000      -9.993303      -271.9316 
   7   2.0000      -9.991891      -271.8932 
   8   2.0000      -9.988259      -271.7944 
   9   2.0000      -9.984694      -271.6973 
  10   2.0000      -9.977272      -271.4954 
  11   2.0000      -9.973272      -271.3865 
  12   2.0000      -9.972449      -271.3641 
  13   2.0000      -9.963820      -271.1293 
  14   2.0000      -9.924591      -270.0619 
  15   2.0000      -9.920897      -269.9613 
  16   2.0000      -9.920741      -269.9571 
  17   2.0000      -9.916718      -269.8476 
  18   2.0000      -9.194506      -250.1952 
  19   2.0000      -9.191885      -250.1239 
  20   2.0000      -9.191229      -250.1061 
  21   2.0000      -9.185711      -249.9559 
  22   2.0000      -7.026286      -191.1950 
  23   2.0000      -7.023660      -191.1235 
  24   2.0000      -7.022836      -191.1011 
  25   2.0000      -7.017090      -190.9447 
  26   2.0000      -7.014491      -190.8740 
  27   2.0000      -7.013436      -190.8453 
  28   2.0000      -7.011851      -190.8022 
  29   2.0000      -7.011178      -190.7838 
  30   2.0000      -7.010845      -190.7748 
  31   2.0000      -7.010350      -190.7613 
  32   2.0000      -7.005658      -190.6337 
  33   2.0000      -7.005058      -190.6173 
  34   2.0000      -1.045181       -28.4408 
  35   2.0000      -1.010424       -27.4950 
  36   2.0000      -0.863287       -23.4912 
  37   2.0000      -0.831357       -22.6224 
  38   2.0000      -0.818527       -22.2733 
  39   2.0000      -0.797164       -21.6919 
  40   2.0000      -0.781830       -21.2747 
  41   2.0000      -0.764977       -20.8161 
  42   2.0000      -0.719147       -19.5690 
  43   2.0000      -0.697158       -18.9706 
  44   2.0000      -0.676787       -18.4163 
  45   2.0000      -0.657959       -17.9040 
  46   2.0000      -0.616315       -16.7708 
  47   2.0000      -0.597456       -16.2576 
  48   2.0000      -0.568860       -15.4795 
  49   2.0000      -0.560571       -15.2539 
  50   2.0000      -0.529066       -14.3966 
  51   2.0000      -0.503407       -13.6984 
  52   2.0000      -0.476383       -12.9630 
  53   2.0000      -0.460787       -12.5387 
  54   2.0000      -0.456212       -12.4141 
  55   2.0000      -0.453587       -12.3427 
  56   2.0000      -0.435146       -11.8409 
  57   2.0000      -0.424845       -11.5606 
  58   2.0000      -0.416700       -11.3390 
  59   2.0000      -0.399018       -10.8578 
  60   2.0000      -0.397295       -10.8109 
  61   2.0000      -0.393750       -10.7145 
  62   2.0000      -0.390829       -10.6350 
  63   2.0000      -0.384543       -10.4640 
  64   2.0000      -0.366378        -9.9697 
  65   2.0000      -0.364344        -9.9143 
  66   2.0000      -0.360716        -9.8156 
  67   2.0000      -0.335879        -9.1397 
  68   2.0000      -0.319180        -8.6853 
  69   2.0000      -0.315803        -8.5934 
  70   2.0000      -0.300253        -8.1703 
  71   2.0000      -0.296605        -8.0710 
  72   2.0000      -0.288002        -7.8369 
  73   2.0000      -0.278187        -7.5699 
  74   2.0000      -0.277469        -7.5503 
  75   2.0000      -0.263901        -7.1811 
  76   2.0000      -0.249544        -6.7904 
  77   2.0000      -0.236806        -6.4438 
  78   2.0000      -0.223471        -6.0810 
  79   2.0000      -0.191240        -5.2039 
  80   0.0000      -0.072495        -1.9727 
  81   0.0000      -0.064188        -1.7467 
  82   0.0000      -0.059513        -1.6194 
  83   0.0000      -0.041916        -1.1406 
  84   0.0000      -0.029965        -0.8154 
  85   0.0000      -0.000906        -0.0247 
  86   0.0000       0.024829         0.6756 
  87   0.0000       0.041291         1.1236 
  88   0.0000       0.057847         1.5741 
  89   0.0000       0.068958         1.8764 
  90   0.0000       0.076697         2.0870 
*Only the first 10 virtual orbitals were printed.

                    ********************************
                    * MULLIKEN POPULATION ANALYSIS *
                    ********************************

-----------------------
MULLIKEN ATOMIC CHARGES
-----------------------
   0 C :   -0.065432
   1 C :   -0.173721
   2 C :    0.226012
   3 C :    0.195249
   4 C :   -0.184797
   5 C :    0.134414
   6 Cl:   -0.074633
   7 O :   -0.203606
   8 C :    0.213275
   9 C :   -0.233380
  10 C :    0.074278
  11 C :    0.030557
  12 C :   -0.045662
  13 C :    0.149294
  14 O :   -0.191847
  15 Cl:   -0.009258
  16 Cl:   -0.021948
  17 Cl:   -0.043300
  18 H :    0.058241
  19 H :    0.064973
  20 H :    0.051714
  21 H :    0.049575
Sum of atomic charges:   -0.0000000

--------------------------------
MULLIKEN REDUCED ORBITAL CHARGES
--------------------------------
  0 C s       :     3.277916  s :     3.277916
      pz      :     1.014137  p :     2.753065
      px      :     0.807974
      py      :     0.930954
      dz2     :     0.003296  d :     0.034451
      dxz     :     0.004208
      dyz     :     0.005055
      dx2y2   :     0.009627
      dxy     :     0.012265

  1 C s       :     3.335934  s :     3.335934
      pz      :     1.017788  p :     2.804273
      px      :     0.956700
      py      :     0.829784
      dz2     :     0.003326  d :     0.033514
      dxz     :     0.007278
      dyz     :     0.002326
      dx2y2   :     0.010284
      dxy     :     0.010301

  2 C s       :     2.936648  s :     2.936648
      pz      :     1.059327  p :     2.768220
      px      :     0.745812
      py      :     0.963080
      dz2     :     0.005177  d :     0.069120
      dxz     :     0.014475
      dyz     :     0.008136
      dx2y2   :     0.021669
      dxy     :     0.019663

  3 C s       :     2.956340  s :     2.956340
      pz      :     1.046725  p :     2.778667
      px      :     0.801962
      py      :     0.929979
      dz2     :     0.005191  d :     0.069744
      dxz     :     0.012502
      dyz     :     0.010830
      dx2y2   :     0.018987
      dxy     :     0.022235

  4 C s       :     3.428101  s :     3.428101
      pz      :     1.035690  p :     2.724617
      px      :     0.949766
      py      :     0.739161
      dz2     :     0.003441  d :     0.032078
      dxz     :     0.006920
      dyz     :     0.002377
      dx2y2   :     0.011220
      dxy     :     0.008120

  5 C s       :     2.899226  s :     2.899226
      pz      :     1.058827  p :     2.913363
      px      :     0.863087
      py      :     0.991449
      dz2     :     0.003578  d :     0.052997
      dxz     :     0.008150
      dyz     :     0.007828
      dx2y2   :     0.016564
      dxy     :     0.016877

  6 Cls       :     5.942141  s :     5.942141
      pz      :     3.907695  p :    11.093938
      px      :     3.327876
      py      :     3.858367
      dz2     :     0.005172  d :     0.038554
      dxz     :     0.009338
      dyz     :     0.001518
      dx2y2   :     0.011649
      dxy     :     0.010876

  7 O s       :     3.716637  s :     3.716637
      pz      :     1.742078  p :     4.469351
      px      :     1.171630
      py      :     1.555644
      dz2     :     0.002299  d :     0.017617
      dxz     :     0.002951
      dyz     :     0.002355
      dx2y2   :     0.003360
      dxy     :     0.006652

  8 C s       :     2.941151  s :     2.941151
      pz      :     1.050413  p :     2.774550
      px      :     0.760814
      py      :     0.963323
      dz2     :     0.005249  d :     0.071025
      dxz     :     0.015251
      dyz     :     0.008906
      dx2y2   :     0.021614
      dxy     :     0.020004

  9 C s       :     3.504610  s :     3.504610
      pz      :     1.045205  p :     2.696404
      px      :     0.940990
      py      :     0.710209
      dz2     :     0.003515  d :     0.032366
      dxz     :     0.007190
      dyz     :     0.002460
      dx2y2   :     0.009651
      dxy     :     0.009550

 10 C s       :     2.939171  s :     2.939171
      pz      :     1.075443  p :     2.933692
      px      :     0.832404
      py      :     1.025846
      dz2     :     0.003725  d :     0.052859
      dxz     :     0.008451
      dyz     :     0.008382
      dx2y2   :     0.015846
      dxy     :     0.016455

 11 C s       :     2.997271  s :     2.997271
      pz      :     1.094507  p :     2.921047
      px      :     0.851213
      py      :     0.975327
      dz2     :     0.003804  d :     0.051126
      dxz     :     0.008663
      dyz     :     0.007779
      dx2y2   :     0.015161
      dxy     :     0.015720

 12 C s       :     2.994417  s :     2.994417
      pz      :     1.101025  p :     3.000883
      px      :     1.019045
      py      :     0.880812
      dz2     :     0.003829  d :     0.050362
      dxz     :     0.008033
      dyz     :     0.008731
      dx2y2   :     0.014959
      dxy     :     0.014810

 13 C s       :     3.038926  s :     3.038926
      pz      :     1.066442  p :     2.741984
      px      :     0.869457
      py      :     0.806085
      dz2     :     0.005325  d :     0.069796
      dxz     :     0.012924
      dyz     :     0.011134
      dx2y2   :     0.019171
      dxy     :     0.021242

 14 O s       :     3.713360  s :     3.713360
      pz      :     1.739872  p :     4.460555
      px      :     1.175160
      py      :     1.545523
      dz2     :     0.002335  d :     0.017932
      dxz     :     0.002962
      dyz     :     0.002463
      dx2y2   :     0.003321
      dxy     :     0.006851

 15 Cls       :     5.943699  s :     5.943699
      pz      :     3.894874  p :    11.025253
      px      :     3.917221
      py      :     3.213158
      dz2     :     0.005406  d :     0.040306
      dxz     :     0.000414
      dyz     :     0.011024
      dx2y2   :     0.016209
      dxy     :     0.007253

 16 Cls       :     5.944476  s :     5.944476
      pz      :     3.895501  p :    11.036328
      px      :     3.301423
      py      :     3.839404
      dz2     :     0.005463  d :     0.041144
      dxz     :     0.009995
      dyz     :     0.001646
      dx2y2   :     0.012576
      dxy     :     0.011464

 17 Cls       :     5.943438  s :     5.943438
      pz      :     3.900458  p :    11.059624
      px      :     3.522095
      py      :     3.637072
      dz2     :     0.005364  d :     0.040238
      dxz     :     0.006811
      dyz     :     0.004528
      dx2y2   :     0.006867
      dxy     :     0.016667

 18 H s       :     0.941759  s :     0.941759

 19 H s       :     0.935027  s :     0.935027

 20 H s       :     0.948286  s :     0.948286

 21 H s       :     0.950425  s :     0.950425


------------------------
MULLIKEN OVERLAP CHARGES
------------------------
B(  0-C ,  1-C ) :   0.0788 B(  0-C ,  2-C ) :   0.5448 B(  0-C ,  3-C ) :  -0.4957 
B(  0-C ,  4-C ) :   0.3981 B(  0-C ,  5-C ) :   0.1058 B(  0-C ,  6-Cl) :  -0.1167 
B(  0-C , 18-H ) :   0.8920 B(  0-C , 19-H ) :  -0.1917 B(  1-C ,  2-C ) :   0.1711 
B(  1-C ,  3-C ) :   0.3560 B(  1-C ,  4-C ) :  -0.3740 B(  1-C ,  5-C ) :   0.5181 
B(  1-C , 14-O ) :  -0.1396 B(  1-C , 18-H ) :  -0.1706 B(  1-C , 19-H ) :   0.8892 
B(  2-C ,  3-C ) :  -0.3208 B(  2-C ,  4-C ) :   0.3369 B(  2-C ,  5-C ) :  -0.5877 
B(  2-C ,  7-O ) :  -0.1658 B(  2-C ,  8-C ) :  -0.0595 B(  2-C , 13-C ) :  -0.0637 
B(  2-C , 14-O ) :   0.7220 B(  2-C , 19-H ) :  -0.1802 B(  2-C , 20-H ) :   0.0532 
B(  3-C ,  4-C ) :   0.2031 B(  3-C ,  5-C ) :   0.6059 B(  3-C ,  7-O ) :   0.7367 
B(  3-C ,  8-C ) :  -0.0584 B(  3-C , 13-C ) :  -0.0521 B(  3-C , 14-O ) :  -0.1589 
B(  3-C , 19-H ) :   0.0526 B(  3-C , 20-H ) :  -0.1511 B(  4-C ,  5-C ) :   0.0647 
B(  4-C ,  6-Cl) :  -0.1318 B(  4-C ,  7-O ) :  -0.1437 B(  4-C , 20-H ) :   0.8578 
B(  5-C ,  6-Cl) :   0.4754 B(  5-C , 18-H ) :  -0.1820 B(  5-C , 20-H ) :  -0.1944 
B(  7-O ,  8-C ) :   0.7606 B(  7-O ,  9-C ) :  -0.1480 B(  7-O , 13-C ) :  -0.1772 
B(  8-C , 10-C ) :   0.6524 B(  8-C , 11-C ) :  -0.5088 B(  8-C , 12-C ) :   0.3692 
B(  8-C , 13-C ) :  -0.3214 B(  8-C , 14-O ) :  -0.1578 B(  8-C , 21-H ) :  -0.1757 
B(  9-C , 10-C ) :   0.1198 B(  9-C , 11-C ) :   0.3903 B(  9-C , 12-C ) :  -0.3765 
B(  9-C , 13-C ) :   0.3988 B(  9-C , 17-Cl) :  -0.1358 B(  9-C , 21-H ) :   0.8935 
B( 10-C , 11-C ) :   0.2461 B( 10-C , 12-C ) :   0.3813 B( 10-C , 13-C ) :  -0.5306 
B( 10-C , 16-Cl) :  -0.1508 B( 10-C , 17-Cl) :   0.5404 B( 10-C , 21-H ) :  -0.2074 
B( 11-C , 12-C ) :   0.5869 B( 11-C , 13-C ) :   0.3496 B( 11-C , 15-Cl) :  -0.1340 
B( 11-C , 16-Cl) :   0.6227 B( 11-C , 17-Cl) :  -0.1388 B( 12-C , 13-C ) :   0.2392 
B( 12-C , 14-O ) :  -0.1852 B( 12-C , 15-Cl) :   0.5611 B( 12-C , 16-Cl) :  -0.1419 
B( 13-C , 14-O ) :   0.8597 B( 13-C , 15-Cl) :  -0.1327 B( 13-C , 21-H ) :   0.0551 



                     *******************************
                     * LOEWDIN POPULATION ANALYSIS *
                     *******************************

----------------------
LOEWDIN ATOMIC CHARGES
----------------------
   0 C :   -0.141678
   1 C :   -0.124145
   2 C :    0.012467
   3 C :    0.022421
   4 C :   -0.149638
   5 C :   -0.138467
   6 Cl:    0.140745
   7 O :   -0.017742
   8 C :    0.017446
   9 C :   -0.153823
  10 C :   -0.162239
  11 C :   -0.190040
  12 C :   -0.173382
  13 C :   -0.007173
  14 O :   -0.015909
  15 Cl:    0.178689
  16 Cl:    0.170422
  17 Cl:    0.162077
  18 H :    0.135744
  19 H :    0.143133
  20 H :    0.143885
  21 H :    0.147206

-------------------------------
LOEWDIN REDUCED ORBITAL CHARGES
-------------------------------
  0 C s       :     2.892807  s :     2.892807
      pz      :     1.013532  p :     3.157552
      px      :     1.076274
      py      :     1.067746
      dz2     :     0.007540  d :     0.091319
      dxz     :     0.008412
      dyz     :     0.010694
      dx2y2   :     0.029949
      dxy     :     0.034724

  1 C s       :     2.890477  s :     2.890477
      pz      :     1.009184  p :     3.144499
      px      :     1.070858
      py      :     1.064457
      dz2     :     0.007411  d :     0.089169
      dxz     :     0.016083
      dyz     :     0.003760
      dx2y2   :     0.030579
      dxy     :     0.031335

  2 C s       :     2.832621  s :     2.832621
      pz      :     1.038146  p :     2.989009
      px      :     0.891355
      py      :     1.059508
      dz2     :     0.011744  d :     0.165903
      dxz     :     0.028161
      dyz     :     0.016619
      dx2y2   :     0.055703
      dxy     :     0.053676

  3 C s       :     2.833443  s :     2.833443
      pz      :     1.024641  p :     2.977194
      px      :     0.957122
      py      :     0.995430
      dz2     :     0.011733  d :     0.166943
      dxz     :     0.024569
      dyz     :     0.021752
      dx2y2   :     0.050951
      dxy     :     0.057937

  4 C s       :     2.897359  s :     2.897359
      pz      :     1.033946  p :     3.165666
      px      :     1.061748
      py      :     1.069973
      dz2     :     0.007801  d :     0.086613
      dxz     :     0.015271
      dyz     :     0.003832
      dx2y2   :     0.032435
      dxy     :     0.027274

  5 C s       :     2.894794  s :     2.894794
      pz      :     1.046579  p :     3.115825
      px      :     0.963855
      py      :     1.105390
      dz2     :     0.008289  d :     0.127849
      dxz     :     0.016097
      dyz     :     0.016337
      dx2y2   :     0.042986
      dxy     :     0.044139

  6 Cls       :     5.751337  s :     5.751337
      pz      :     3.889908  p :    11.063589
      px      :     3.342117
      py      :     3.831564
      dz2     :     0.006224  d :     0.044329
      dxz     :     0.010073
      dyz     :     0.001630
      dx2y2   :     0.013680
      dxy     :     0.012723

  7 O s       :     3.426705  s :     3.426705
      pz      :     1.730714  p :     4.557168
      px      :     1.237608
      py      :     1.588846
      dz2     :     0.004040  d :     0.033870
      dxz     :     0.005562
      dyz     :     0.002838
      dx2y2   :     0.007369
      dxy     :     0.014060

  8 C s       :     2.829623  s :     2.829623
      pz      :     1.028873  p :     2.982960
      px      :     0.897774
      py      :     1.056313
      dz2     :     0.011859  d :     0.169971
      dxz     :     0.029667
      dyz     :     0.018324
      dx2y2   :     0.055740
      dxy     :     0.054381

  9 C s       :     2.895467  s :     2.895467
      pz      :     1.043591  p :     3.171108
      px      :     1.058663
      py      :     1.068854
      dz2     :     0.007890  d :     0.087248
      dxz     :     0.016043
      dyz     :     0.003946
      dx2y2   :     0.029959
      dxy     :     0.029409

 10 C s       :     2.895973  s :     2.895973
      pz      :     1.068386  p :     3.137375
      px      :     1.025965
      py      :     1.043024
      dz2     :     0.008791  d :     0.128891
      dxz     :     0.016933
      dyz     :     0.017389
      dx2y2   :     0.043677
      dxy     :     0.042102

 11 C s       :     2.902058  s :     2.902058
      pz      :     1.093136  p :     3.161015
      px      :     0.974374
      py      :     1.093505
      dz2     :     0.009208  d :     0.126966
      dxz     :     0.017145
      dyz     :     0.016375
      dx2y2   :     0.041212
      dxy     :     0.043027

 12 C s       :     2.899252  s :     2.899252
      pz      :     1.090328  p :     3.149043
      px      :     1.099442
      py      :     0.959273
      dz2     :     0.009069  d :     0.125087
      dxz     :     0.017047
      dyz     :     0.016991
      dx2y2   :     0.039405
      dxy     :     0.042574

 13 C s       :     2.833693  s :     2.833693
      pz      :     1.051339  p :     3.005602
      px      :     0.955507
      py      :     0.998755
      dz2     :     0.012190  d :     0.167878
      dxz     :     0.025606
      dyz     :     0.022106
      dx2y2   :     0.051688
      dxy     :     0.056288

 14 O s       :     3.426999  s :     3.426999
      pz      :     1.729758  p :     4.554463
      px      :     1.239359
      py      :     1.585345
      dz2     :     0.004137  d :     0.034447
      dxz     :     0.005662
      dyz     :     0.003032
      dx2y2   :     0.007237
      dxy     :     0.014378

 15 Cls       :     5.748387  s :     5.748387
      pz      :     3.878960  p :    11.024733
      px      :     3.898767
      py      :     3.247006
      dz2     :     0.006635  d :     0.048192
      dxz     :     0.000434
      dyz     :     0.012238
      dx2y2   :     0.020811
      dxy     :     0.008073

 16 Cls       :     5.749075  s :     5.749075
      pz      :     3.879698  p :    11.031877
      px      :     3.321474
      py      :     3.830705
      dz2     :     0.006636  d :     0.048626
      dxz     :     0.011050
      dyz     :     0.001805
      dx2y2   :     0.015316
      dxy     :     0.013818

 17 Cls       :     5.748790  s :     5.748790
      pz      :     3.883434  p :    11.042173
      px      :     3.523475
      py      :     3.635264
      dz2     :     0.006531  d :     0.046961
      dxz     :     0.007434
      dyz     :     0.004930
      dx2y2   :     0.007167
      dxy     :     0.020900

 18 H s       :     0.864256  s :     0.864256

 19 H s       :     0.856867  s :     0.856867

 20 H s       :     0.856115  s :     0.856115

 21 H s       :     0.852794  s :     0.852794


---------------------------------
LOEWDIN BOND ORDERS (THRESH 0.050000)
---------------------------------
B(  0-C ,  1-C ) :   1.4856 B(  0-C ,  2-C ) :   0.0935 B(  0-C ,  3-C ) :   0.0999 
B(  0-C ,  4-C ) :   0.0879 B(  0-C ,  5-C ) :   1.4557 B(  0-C ,  6-Cl) :   0.1109 
B(  0-C , 18-H ) :   0.8803 B(  1-C ,  2-C ) :   1.4423 B(  1-C ,  3-C ) :   0.0921 
B(  1-C ,  4-C ) :   0.1034 B(  1-C ,  5-C ) :   0.0906 B(  1-C , 14-O ) :   0.0913 
B(  1-C , 19-H ) :   0.8754 B(  2-C ,  3-C ) :   1.3309 B(  2-C ,  4-C ) :   0.0905 
B(  2-C ,  5-C ) :   0.0949 B(  2-C ,  7-O ) :   0.0812 B(  2-C , 13-C ) :   0.0714 
B(  2-C , 14-O ) :   1.1914 B(  3-C ,  4-C ) :   1.4467 B(  3-C ,  5-C ) :   0.0938 
B(  3-C ,  7-O ) :   1.1967 B(  3-C ,  8-C ) :   0.0707 B(  3-C , 14-O ) :   0.0808 
B(  4-C ,  5-C ) :   1.4356 B(  4-C ,  6-Cl) :   0.1108 B(  4-C ,  7-O ) :   0.0935 
B(  4-C , 20-H ) :   0.8720 B(  5-C ,  6-Cl) :   1.2610 B(  7-O ,  8-C ) :   1.2123 
B(  7-O ,  9-C ) :   0.0955 B(  7-O , 13-C ) :   0.0825 B(  8-C ,  9-C ) :   1.4378 
B(  8-C , 10-C ) :   0.0938 B(  8-C , 11-C ) :   0.0845 B(  8-C , 12-C ) :   0.0901 
B(  8-C , 13-C ) :   1.3212 B(  8-C , 14-O ) :   0.0823 B(  9-C , 10-C ) :   1.4302 
B(  9-C , 11-C ) :   0.0910 B(  9-C , 12-C ) :   0.0872 B(  9-C , 13-C ) :   0.0906 
B(  9-C , 17-Cl) :   0.1111 B(  9-C , 21-H ) :   0.8693 B( 10-C , 11-C ) :   1.3966 
B( 10-C , 12-C ) :   0.0909 B( 10-C , 13-C ) :   0.0850 B( 10-C , 16-Cl) :   0.1091 
B( 10-C , 17-Cl) :   1.2769 B( 11-C , 12-C ) :   1.3725 B( 11-C , 13-C ) :   0.0918 
B( 11-C , 15-Cl) :   0.1069 B( 11-C , 16-Cl) :   1.2874 B( 11-C , 17-Cl) :   0.1096 
B( 12-C , 13-C ) :   1.3813 B( 12-C , 14-O ) :   0.0945 B( 12-C , 15-Cl) :   1.2867 
B( 12-C , 16-Cl) :   0.1075 B( 13-C , 14-O ) :   1.2215 B( 13-C , 15-Cl) :   0.1127 


------------------------------------------
LOEWDIN REDUCED ORBITAL POPULATIONS PER MO
-------------------------------------------
THRESHOLD FOR PRINTING IS 0.1%%
                      0         1         2         3         4         5   
                 -100.65886 -100.65613 -100.65530 -100.64966 -18.84076 -18.84008
                   2.00000   2.00000   2.00000   2.00000   2.00000   2.00000
                  --------  --------  --------  --------  --------  --------
 6 Cl s               0.0       0.0       0.0     100.0       0.0       0.0
 7 O  s               0.0       0.0       0.0       0.0       1.7      98.2
14 O  s               0.0       0.0       0.0       0.0      98.2       1.7
15 Cl s             100.0       0.0       0.0       0.0       0.0       0.0
16 Cl s               0.0      99.7       0.3       0.0       0.0       0.0
17 Cl s               0.0       0.3      99.7       0.0       0.0       0.0

                      6         7         8         9        10        11   
                  -9.99330  -9.99189  -9.98826  -9.98469  -9.97727  -9.97327
                   2.00000   2.00000   2.00000   2.00000   2.00000   2.00000
                  --------  --------  --------  --------  --------  --------
 2 C  s               0.0       0.0       0.1      99.4       0.0       0.0
 2 C  py              0.0       0.0       0.1       0.0       0.0       0.0
 3 C  s               0.0       0.0      99.4       0.1       0.0       0.0
 3 C  py              0.0       0.0       0.0       0.1       0.0       0.0
 4 C  px              0.0       0.0       0.1       0.0       0.0       0.0
 7 O  px              0.0       0.1       0.1       0.0       0.0       0.0
 8 C  s               0.6      98.9       0.0       0.0       0.0       0.0
 8 C  py              0.1       0.0       0.0       0.0       0.0       0.0
10 C  s               0.0       0.0       0.0       0.0       0.0       1.9
10 C  py              0.0       0.0       0.0       0.0       0.0       0.1
11 C  s               0.0       0.0       0.0       0.0       0.1      97.6
12 C  s               0.0       0.0       0.0       0.0      99.5       0.1
12 C  px              0.1       0.0       0.0       0.0       0.0       0.1
13 C  s              98.9       0.6       0.0       0.0       0.0       0.0
13 C  px              0.0       0.0       0.0       0.0       0.1       0.0
13 C  py              0.0       0.1       0.0       0.0       0.0       0.0
14 O  px              0.1       0.0       0.0       0.1       0.0       0.0

                     12        13        14        15        16        17   
                  -9.97245  -9.96382  -9.92459  -9.92090  -9.92074  -9.91672
                   2.00000   2.00000   2.00000   2.00000   2.00000   2.00000
                  --------  --------  --------  --------  --------  --------
 0 C  s               0.0       0.0       0.0       0.0       0.1      99.5
 0 C  px              0.0       0.0       0.0       0.0       0.1       0.0
 0 C  py              0.0       0.2       0.0       0.0       0.0       0.0
 1 C  s               0.0       0.0       0.0       9.3      90.2       0.1
 1 C  px              0.0       0.0       0.0       0.0       0.0       0.1
 3 C  px              0.0       0.0       0.0       0.1       0.0       0.0
 4 C  s               0.0       0.0       0.0      90.3       9.3       0.0
 5 C  s               0.0      99.6       0.0       0.0       0.0       0.0
 5 C  py              0.0       0.0       0.0       0.1       0.0       0.1
 9 C  s               0.0       0.0      99.6       0.0       0.0       0.0
 9 C  px              0.1       0.0       0.0       0.0       0.0       0.0
10 C  s              97.7       0.0       0.0       0.0       0.0       0.0
10 C  px              0.0       0.0       0.1       0.0       0.0       0.0
11 C  s               1.9       0.0       0.0       0.0       0.0       0.0
11 C  py              0.1       0.0       0.0       0.0       0.0       0.0

                     18        19        20        21        22        23   
                  -9.19451  -9.19188  -9.19123  -9.18571  -7.02629  -7.02366
                   2.00000   2.00000   2.00000   2.00000   2.00000   2.00000
                  --------  --------  --------  --------  --------  --------
 5 C  px              0.0       0.0       0.0       0.1       0.0       0.0
 6 Cl s               0.0       0.0       0.0      99.8       0.0       0.0
11 C  px              0.0       0.1       0.0       0.0       0.0       0.0
12 C  py              0.1       0.0       0.0       0.0       0.0       0.0
15 Cl s              99.8       0.0       0.0       0.0       0.0       0.0
15 Cl px              0.0       0.0       0.0       0.0       2.3       0.0
15 Cl py              0.0       0.0       0.0       0.0      97.6       0.0
16 Cl s               0.0      99.5       0.3       0.0       0.0       0.0
16 Cl px              0.0       0.0       0.0       0.0       0.0      87.3
16 Cl py              0.0       0.0       0.0       0.0       0.0      12.7
17 Cl s               0.0       0.3      99.5       0.0       0.0       0.0

                     24        25        26        27        28        29   
                  -7.02284  -7.01709  -7.01449  -7.01344  -7.01185  -7.01118
                   2.00000   2.00000   2.00000   2.00000   2.00000   2.00000
                  --------  --------  --------  --------  --------  --------
 6 Cl px              0.0      87.1       0.0       0.0       0.0       0.0
 6 Cl py              0.0      12.9       0.0       0.0       0.0       0.0
15 Cl pz              0.0       0.0     100.0       0.0       0.0       0.0
15 Cl px              0.0       0.0       0.0      97.7       0.0       0.0
15 Cl py              0.0       0.0       0.0       2.3       0.0       0.0
16 Cl pz              0.0       0.0       0.0       0.0     100.0       0.0
17 Cl pz              0.0       0.0       0.0       0.0       0.0     100.0
17 Cl px             57.9       0.0       0.0       0.0       0.0       0.0
17 Cl py             42.1       0.0       0.0       0.0       0.0       0.0

                     30        31        32        33        34        35   
                  -7.01085  -7.01035  -7.00566  -7.00506  -1.04518  -1.01042
                   2.00000   2.00000   2.00000   2.00000   2.00000   2.00000
                  --------  --------  --------  --------  --------  --------
 1 C  s               0.0       0.0       0.0       0.0       0.4       0.2
 1 C  px              0.0       0.0       0.0       0.0       0.5       0.3
 1 C  py              0.0       0.0       0.0       0.0       0.2       0.0
 2 C  s               0.0       0.0       0.0       0.0       5.8       2.4
 2 C  px              0.0       0.0       0.0       0.0       3.9       3.6
 2 C  py              0.0       0.0       0.0       0.0       0.1       2.1
 2 C  dz2             0.0       0.0       0.0       0.0       0.2       0.1
 2 C  dx2y2           0.0       0.0       0.0       0.0       0.1       0.3
 2 C  dxy             0.0       0.0       0.0       0.0       0.1       0.2
 3 C  s               0.0       0.0       0.0       0.0       5.7       2.6
 3 C  px              0.0       0.0       0.0       0.0       3.5       1.9
 3 C  py              0.0       0.0       0.0       0.0       0.3       3.9
 3 C  dz2             0.0       0.0       0.0       0.0       0.2       0.1
 3 C  dxy             0.0       0.0       0.0       0.0       0.2       0.4
 4 C  s               0.0       0.0       0.0       0.0       0.4       0.2
 4 C  px              0.0       0.0       0.0       0.0       0.6       0.4
 6 Cl pz              0.0       0.0     100.0       0.0       0.0       0.0
 6 Cl px              0.0       0.0       0.0      12.9       0.0       0.0
 6 Cl py              0.0       0.0       0.0      87.1       0.0       0.0
 7 O  s               0.0       0.0       0.0       0.0      24.4      29.5
 7 O  py              0.0       0.0       0.0       0.0       1.8       1.4
 8 C  s               0.0       0.0       0.0       0.0       6.1       2.7
 8 C  px              0.0       0.0       0.0       0.0       3.8       3.9
 8 C  py              0.0       0.0       0.0       0.0       0.1       2.2
 8 C  dz2             0.0       0.0       0.0       0.0       0.2       0.1
 8 C  dx2y2           0.0       0.0       0.0       0.0       0.1       0.3
 8 C  dxy             0.0       0.0       0.0       0.0       0.1       0.2
 9 C  s               0.0       0.0       0.0       0.0       0.4       0.2
 9 C  px              0.0       0.0       0.0       0.0       0.5       0.4
 9 C  py              0.0       0.0       0.0       0.0       0.2       0.0
12 C  s               0.0       0.0       0.0       0.0       0.5       0.3
12 C  px              0.0       0.0       0.0       0.0       0.7       0.4
13 C  s               0.0       0.0       0.0       0.0       6.5       2.7
13 C  px              0.0       0.0       0.0       0.0       3.5       1.8
13 C  py              0.0       0.0       0.0       0.0       0.4       4.2
13 C  dz2             0.0       0.0       0.0       0.0       0.2       0.1
13 C  dxy             0.0       0.0       0.0       0.0       0.2       0.4
14 O  s               0.0       0.0       0.0       0.0      25.4      28.2
14 O  py              0.0       0.0       0.0       0.0       1.9       1.4
16 Cl px             12.7       0.0       0.0       0.0       0.0       0.0
16 Cl py             87.2       0.1       0.0       0.0       0.0       0.0
17 Cl px              0.1      42.0       0.0       0.0       0.0       0.0
17 Cl py              0.1      57.9       0.0       0.0       0.0       0.0

                     36        37        38        39        40        41   
                  -0.86329  -0.83136  -0.81853  -0.79716  -0.78183  -0.76498
                   2.00000   2.00000   2.00000   2.00000   2.00000   2.00000
                  --------  --------  --------  --------  --------  --------
 0 C  s               0.1       8.4       0.2       0.0       0.4       2.7
 0 C  px              0.0       0.2       0.0       0.6       1.0       1.6
 0 C  py              0.0       2.4       0.1       0.4       0.1       0.0
 0 C  dz2             0.0       0.1       0.0       0.0       0.0       0.0
 1 C  s               0.3       4.7       0.0       1.1       2.4       5.3
 1 C  px              0.0       0.2       0.1       0.4       0.1       0.0
 1 C  py              0.1       1.4       0.0       0.2       0.5       0.8
 2 C  s               0.8       3.8       0.3       3.2       2.8       2.6
 2 C  px              0.0       1.9       0.1       0.2       1.2       2.4
 2 C  py              0.0       0.2       0.1       0.1       0.2       0.0
 3 C  s               0.5       4.6       0.0       2.9       3.3       0.6
 3 C  px              0.0       2.2       0.1       0.0       0.3       1.0
 3 C  py              0.0       0.4       0.1       0.2       0.3       1.8
 4 C  s               0.2       9.2       0.2       0.1       0.9       0.6
 4 C  px              0.0       0.5       0.1       1.8       1.3       0.2
 4 C  py              0.0       2.1       0.0       0.0       0.2       0.5
 4 C  dz2             0.0       0.1       0.0       0.0       0.0       0.0
 5 C  s               0.2      20.3       0.8       2.0       0.4       0.0
 5 C  px              0.0       0.3       0.1       2.9       4.0       4.2
 5 C  py              0.0       0.1       0.0       0.3       0.4       1.2
 5 C  dz2             0.0       0.3       0.0       0.0       0.0       0.0
 6 Cl s               0.1      21.5       1.5      12.0      11.4      10.2
 6 Cl px              0.0       1.7       0.1       0.4       0.2       0.1
 6 Cl py              0.0       0.3       0.0       0.1       0.0       0.0
 7 O  s               0.1       0.2       0.0       0.1       0.0       1.4
 7 O  px              0.4       0.9       0.0       2.4       1.4       0.6
 8 C  s               2.3       0.6       0.0       5.6       1.1       5.4
 8 C  px              1.5       0.1       0.1       1.2       0.0       3.3
 8 C  py              0.1       0.0       0.5       0.0       0.0       0.2
 9 C  s               4.2       0.0       2.1       4.4       0.0       5.1
 9 C  px              0.7       0.4       1.4       0.1       0.8       0.4
 9 C  py              1.0       0.0       0.0       0.6       0.1       1.5
10 C  s              12.4       0.8       9.3       1.0       0.8       0.2
10 C  px              0.2       0.3       1.7       1.1       0.8       6.2
10 C  py              0.6       0.0       2.4       1.4       2.6       1.8
10 C  dz2             0.2       0.0       0.1       0.0       0.0       0.0
10 C  dxy             0.0       0.0       0.1       0.0       0.1       0.1
11 C  s              18.0       0.7       0.0       2.8       1.7       0.7
11 C  px              0.0       0.3       0.9       7.1       3.2       1.7
11 C  py              0.0       0.0       5.4       1.6       0.4       0.1
11 C  dz2             0.3       0.0       0.0       0.1       0.0       0.0
11 C  dx2y2           0.0       0.0       0.0       0.1       0.1       0.0
12 C  s              13.9       0.0       8.5       0.3       0.9       0.4
12 C  px              0.7       0.4       0.0       3.0       0.0       0.2
12 C  py              0.0       0.0       5.0       0.1       4.4       4.9
12 C  dz2             0.2       0.0       0.1       0.0       0.0       0.0
12 C  dx2y2           0.0       0.0       0.1       0.0       0.2       0.0
13 C  s               3.8       0.6       1.2       4.1       0.4       2.2
13 C  px              3.2       0.0       1.5       0.2       0.4       0.9
13 C  py              0.1       0.0       0.6       0.7       0.4       3.3
14 O  s               0.3       0.1       0.2       0.0       0.3       1.1
14 O  px              0.9       0.8       0.7       2.0       0.5       0.1
15 Cl s               8.7       0.0      25.4       0.0      16.1       6.4
15 Cl py              1.2       0.0       1.4       0.0       0.3       0.0
15 Cl dx2y2           0.1       0.0       0.1       0.0       0.0       0.0
16 Cl s              11.6       1.4       0.1      27.2      17.5       0.5
16 Cl px              1.4       0.1       0.0       0.8       0.4       0.0
16 Cl py              0.2       0.0       0.1       0.1       0.1       0.0
17 Cl s               7.2       1.4      24.3       1.3      11.7      12.9
17 Cl px              0.5       0.1       0.8       0.1       0.2       0.1
17 Cl py              0.5       0.1       0.6       0.0       0.1       0.1
17 Cl dxy             0.1       0.0       0.1       0.0       0.0       0.0
18 H  s               0.0       1.2       0.0       0.0       0.0       0.3
19 H  s               0.0       0.6       0.0       0.2       0.3       0.7
20 H  s               0.0       1.3       0.0       0.0       0.1       0.0
21 H  s               0.5       0.0       0.4       0.6       0.0       0.5

                     42        43        44        45        46        47   
                  -0.71915  -0.69716  -0.67679  -0.65796  -0.61632  -0.59746
                   2.00000   2.00000   2.00000   2.00000   2.00000   2.00000
                  --------  --------  --------  --------  --------  --------
 0 C  s               3.9       9.9       1.3       5.0       2.0       2.1
 0 C  px              0.8       0.1       0.4       0.4       0.1       2.8
 0 C  py              0.7       0.2       1.3       0.4       1.9       2.1
 0 C  dx2y2           0.0       0.0       0.1       0.1       0.1       0.1
 1 C  s               9.1       0.7       4.4       0.1       1.2       6.1
 1 C  px              0.0       6.2       0.0       3.1       2.2       1.7
 1 C  py              0.1       0.0       0.0       0.4       0.0       1.0
 1 C  dxy             0.0       0.2       0.0       0.1       0.0       0.0
 2 C  s               2.0       5.2       0.5       5.2       0.4       0.1
 2 C  px              0.3       0.8       0.6       1.2       1.0       2.2
 2 C  py              6.4       0.1       0.7       2.7       1.5       9.7
 2 C  dx2y2           0.1       0.0       0.0       0.2       0.0       0.0
 2 C  dxy             0.0       0.1       0.1       0.0       0.1       0.0
 3 C  s               7.6       2.2       0.2       2.1       2.5       0.3
 3 C  px              2.1       0.3       4.0       0.1       1.5       2.9
 3 C  py              2.3       0.6       0.2       6.8       0.6       5.5
 3 C  dxy             0.0       0.0       0.2       0.1       0.1       0.0
 4 C  s              10.2       0.1       8.1       0.4       3.5       2.7
 4 C  px              1.4       1.2       0.1       0.9       4.4       0.3
 4 C  py              0.1       0.4       0.2       0.0       0.2       1.8
 4 C  dz2             0.1       0.0       0.1       0.0       0.0       0.0
 4 C  dxy             0.0       0.1       0.0       0.1       0.1       0.0
 5 C  s               0.1       2.8       1.4       2.8       2.6       1.6
 5 C  px              1.7       2.1       2.8       0.7       2.0       0.1
 5 C  py              3.1       3.3       1.9       1.4       2.7       4.4
 5 C  dx2y2           0.0       0.2       0.0       0.1       0.0       0.1
 5 C  dxy             0.1       0.0       0.1       0.0       0.1       0.0
 6 Cl s               0.7       6.9       2.4       4.2       2.5       1.2
 6 Cl px              0.0       0.2       0.2       0.3       0.7       0.2
 6 Cl py              0.0       0.1       0.0       0.1       0.0       0.4
 7 O  s               0.3       0.1       0.8       2.8       0.0       1.3
 7 O  px              8.8       1.7       1.6       0.6      12.9       0.2
 7 O  py              0.3       0.0       0.3       1.3       0.5       3.6
 7 O  dxy             0.1       0.0       0.0       0.0       0.1       0.0
 8 C  s               2.0       0.6       3.3       4.2       1.2       0.2
 8 C  px              0.4       1.2       1.5       0.2       2.7       0.8
 8 C  py              3.7       1.6       2.8       5.2       0.5       4.2
 8 C  dx2y2           0.1       0.0       0.0       0.2       0.0       0.0
 8 C  dxy             0.0       0.1       0.2       0.0       0.2       0.0
 9 C  s               1.5       3.3       9.7       0.7       4.2       1.3
 9 C  px              0.9       1.3       0.8       2.5       3.0       0.7
 9 C  py              0.0       0.1       0.1       0.2       0.1       0.6
 9 C  dxy             0.0       0.1       0.0       0.2       0.0       0.0
10 C  s               0.0       3.5       0.0       4.9       1.5       1.2
10 C  px              0.1       3.2       2.2       0.8       3.0       0.4
10 C  py              0.5       1.1       3.0       1.7       1.9       1.7
10 C  dx2y2           0.0       0.0       0.2       0.0       0.1       0.0
10 C  dxy             0.0       0.1       0.0       0.1       0.1       0.0
11 C  s               0.6       1.9       4.2       3.1       2.9       0.8
11 C  px              0.9       1.5       3.9       0.6       1.2       0.1
11 C  py              0.0       1.0       0.0       2.0       1.2       2.3
11 C  dx2y2           0.0       0.1       0.0       0.1       0.0       0.1
11 C  dxy             0.0       0.0       0.2       0.0       0.2       0.0
12 C  s               1.3       0.0       5.9       0.0       1.7       2.2
12 C  px              0.9       3.4       0.0       2.2       3.6       1.5
12 C  py              2.5       0.0       4.3       0.0       1.0       0.0
12 C  dx2y2           0.1       0.1       0.1       0.0       0.0       0.1
12 C  dxy             0.0       0.1       0.0       0.2       0.1       0.0
13 C  s               3.2       5.6       0.7       4.3       1.0       0.1
13 C  px              0.5       0.2       2.9       0.3       0.4       4.1
13 C  py              0.7       0.3       0.5       5.5       1.1       4.1
13 C  dx2y2           0.0       0.0       0.1       0.1       0.0       0.0
13 C  dxy             0.0       0.0       0.1       0.2       0.1       0.0
14 O  s               0.0       0.0       0.3       4.1       0.1       0.8
14 O  px              4.8      10.3       0.0       0.2       7.5       0.4
14 O  py              0.4       0.2       0.0       1.2       0.3       3.6
14 O  dxy             0.0       0.2       0.0       0.0       0.1       0.0
15 Cl s               5.7       0.8       6.5       0.0       0.6       2.9
15 Cl px              0.0       0.0       0.0       0.0       0.1       0.2
15 Cl py              0.1       0.0       0.5       0.0       0.3       0.9
16 Cl s               0.8       3.0       5.4       2.9       3.3       0.9
16 Cl px              0.0       0.1       0.4       0.3       0.8       0.2
16 Cl py              0.0       0.0       0.1       0.1       0.0       0.1
17 Cl s               0.0       6.1       0.2       5.5       2.1       0.8
17 Cl px              0.0       0.2       0.0       0.4       0.5       0.1
17 Cl py              0.0       0.1       0.0       0.3       0.1       0.3
18 H  s               0.8       1.8       0.4       1.2       1.0       0.8
19 H  s               2.0       0.1       1.1       0.0       0.3       3.2
20 H  s               2.1       0.0       1.6       0.2       0.8       2.0
21 H  s               0.5       0.5       2.5       0.2       1.0       1.0

[...]
 0 C  s               0.5       0.1       0.9       0.0       0.0       0.1
 0 C  py              0.1       0.0       0.0       0.0       0.0       0.0
 0 C  dz2             0.5       0.0       0.5       0.0       0.0       0.0
 0 C  dx2y2           0.7       0.1       0.2       0.0       0.2       0.1
 0 C  dxy             5.3       0.0       8.6       0.1       0.1       1.1
 1 C  s               0.6       0.0       0.5       0.0       0.1       0.1
 1 C  px              0.0       0.2       0.1       0.0       0.3       0.0
 1 C  py              0.1       0.0       0.0       0.0       0.1       0.0
 1 C  dz2             0.6       0.0       0.4       0.0       0.0       0.0
 1 C  dx2y2           2.6       0.5       8.0       0.6       0.0       2.3
 1 C  dxy             1.8       0.6       0.3       0.0       0.9       0.0
 2 C  s               1.2       0.1       0.6       1.1       0.1       0.1
 2 C  px              0.2       0.9       0.0       1.2       0.1       0.9
 2 C  py              0.5       0.3       0.1       0.0       0.1       0.6
 2 C  dz2             1.1       0.4       0.3       0.3       0.2       0.1
 2 C  dx2y2           0.0       0.5       6.3       2.2       0.4       5.1
 2 C  dxy             1.4       2.0       0.8       0.5       9.2       2.3
 3 C  s               1.1       0.1       0.4       1.1       0.2       0.1
 3 C  px              0.1       0.6       0.0       1.0       0.2       0.4
 3 C  py              0.5       0.7       0.1       0.2       0.1       1.0
 3 C  dz2             1.0       0.3       0.3       0.3       0.2       0.1
 3 C  dx2y2           0.8       1.9       2.8       0.7       5.3       0.8
 3 C  dxy             0.7       0.8       4.8       1.7       4.4       6.5
 4 C  s               0.5       0.0       0.5       0.0       0.1       0.1
 4 C  px              0.0       0.3       0.1       0.0       0.4       0.0
 4 C  dz2             0.5       0.0       0.4       0.0       0.0       0.0
 4 C  dx2y2           3.4       0.0       6.2       0.3       0.5       1.7
 4 C  dxy             0.0       0.9       2.1       0.2       0.4       0.5
 5 C  s               0.5       0.1       1.0       0.0       0.0       0.1
 5 C  py              0.1       0.0       0.0       0.0       0.0       0.0
 5 C  dz2             0.5       0.0       0.5       0.0       0.0       0.0
 5 C  dx2y2           3.5       0.0       4.0       0.0       0.2       0.6
 5 C  dxy             1.7       0.1       4.4       0.0       0.0       0.5
 7 O  s               0.0       3.0       0.2       0.0       1.0       0.0
 7 O  px              1.1       0.0       0.0       3.4       0.0       3.2
 7 O  py              0.1       0.1       0.3       0.1       0.2       0.1
 7 O  dz2             0.2      12.7       0.4       0.0       2.2       0.0
 7 O  dx2y2           1.4      18.9       1.1       4.0      19.9       2.2
 7 O  dxy             6.9       2.6       0.6      31.1       2.2      20.3
 8 C  s               1.2       0.1       0.1       1.2       0.2       0.2
 8 C  px              0.2       0.9       0.0       1.3       0.2       0.8
 8 C  py              0.3       0.3       0.1       0.0       0.1       0.6
 8 C  dz2             1.0       0.3       0.1       0.2       0.2       0.1
 8 C  dx2y2           1.0       0.3       7.0       2.3       0.4       4.8
 8 C  dxy             2.1       2.4       0.3       0.5       9.5       1.9
 9 C  s               0.7       0.0       0.2       0.0       0.1       0.1
 9 C  px              0.0       0.2       0.1       0.0       0.3       0.0
 9 C  py              0.1       0.0       0.0       0.0       0.1       0.0
 9 C  dz2             0.7       0.0       0.2       0.0       0.0       0.0
 9 C  dx2y2           6.1       0.3       6.0       0.6       0.0       2.0
 9 C  dxy             1.5       0.6       0.0       0.0       0.9       0.0
10 C  s               0.8       0.1       0.5       0.0       0.0       0.1
10 C  dz2             0.7       0.0       0.3       0.0       0.0       0.0
10 C  dx2y2           0.5       0.0       0.0       0.0       0.2       0.0
10 C  dxy             8.5       0.0       4.8       0.1       0.0       0.8
11 C  s               0.6       0.2       0.4       0.0       0.0       0.1
11 C  dz2             0.6       0.0       0.2       0.0       0.0       0.0
11 C  dx2y2           5.1       0.0       1.9       0.0       0.2       0.4
11 C  dxy             3.0       0.2       2.4       0.0       0.0       0.4
12 C  s               0.5       0.0       0.1       0.0       0.1       0.1
12 C  px              0.0       0.5       0.1       0.0       0.4       0.0
12 C  dz2             0.6       0.0       0.1       0.0       0.0       0.0
12 C  dx2y2           5.8       0.0       3.4       0.3       0.5       1.2
12 C  dxy             0.1       1.4       1.5       0.2       0.4       0.5
13 C  s               1.1       0.2       0.1       1.2       0.2       0.2
13 C  px              0.2       0.7       0.0       1.1       0.2       0.4
13 C  py              0.4       0.6       0.3       0.3       0.0       1.0
13 C  dz2             0.9       0.3       0.0       0.3       0.3       0.1
13 C  dx2y2           0.1       2.6       2.7       0.5       5.4       0.8
13 C  dxy             2.8       0.4       4.4       1.7       4.5       5.6
14 O  s               0.0       3.2       0.2       0.0       1.0       0.0
14 O  px              1.1       0.0       0.0       3.3       0.0       3.3
14 O  py              0.0       0.1       0.3       0.1       0.2       0.1
14 O  dz2             0.1      13.1       0.7       0.0       2.2       0.0
14 O  dx2y2           0.9      19.2       1.2       3.6      19.4       2.5
14 O  dxy             6.9       2.0       0.1      30.8       2.9      20.5
17 Cl dxy             0.1       0.0       0.1       0.0       0.0       0.0
18 H  s               0.2       0.0       0.3       0.0       0.0       0.0
19 H  s               0.1       0.0       0.3       0.0       0.0       0.1
20 H  s               0.1       0.0       0.3       0.0       0.0       0.1
21 H  s               0.2       0.0       0.2       0.0       0.0       0.1



                      *****************************
                      * MAYER POPULATION ANALYSIS *
                      *****************************

  NA   - Mulliken gross atomic population
  ZA   - Total nuclear charge
  QA   - Mulliken gross atomic charge
  VA   - Mayer's total valence
  BVA  - Mayer's bonded valence
  FA   - Mayer's free valence

  ATOM       NA         ZA         QA         VA         BVA        FA
  0 C      6.0654     6.0000    -0.0654     3.8362     3.8362    -0.0000
  1 C      6.1737     6.0000    -0.1737     3.8109     3.8109     0.0000
  2 C      5.7740     6.0000     0.2260     3.8511     3.8511    -0.0000
  3 C      5.8048     6.0000     0.1952     3.8931     3.8931    -0.0000
  4 C      6.1848     6.0000    -0.1848     3.8524     3.8524    -0.0000
  5 C      5.8656     6.0000     0.1344     3.8015     3.8015    -0.0000
  6 Cl    17.0746    17.0000    -0.0746     1.1645     1.1645     0.0000
  7 O      8.2036     8.0000    -0.2036     2.3040     2.3040    -0.0000
  8 C      5.7867     6.0000     0.2133     3.7937     3.7937    -0.0000
  9 C      6.2334     6.0000    -0.2334     3.7812     3.7812    -0.0000
 10 C      5.9257     6.0000     0.0743     3.9333     3.9333     0.0000
 11 C      5.9694     6.0000     0.0306     4.1638     4.1638    -0.0000
 12 C      6.0457     6.0000    -0.0457     4.1342     4.1342    -0.0000
 13 C      5.8507     6.0000     0.1493     3.9875     3.9875    -0.0000
 14 O      8.1918     8.0000    -0.1918     2.3446     2.3446    -0.0000
 15 Cl    17.0093    17.0000    -0.0093     1.2651     1.2651     0.0000
 16 Cl    17.0219    17.0000    -0.0219     1.2735     1.2735     0.0000
 17 Cl    17.0433    17.0000    -0.0433     1.2180     1.2180    -0.0000
 18 H      0.9418     1.0000     0.0582     0.9711     0.9711     0.0000
 19 H      0.9350     1.0000     0.0650     0.9664     0.9664     0.0000
 20 H      0.9483     1.0000     0.0517     0.9855     0.9855    -0.0000
 21 H      0.9504     1.0000     0.0496     0.9879     0.9879    -0.0000

  Mayer bond orders larger than 0.100000
B(  0-C ,  1-C ) :   1.3084 B(  0-C ,  5-C ) :   1.3868 B(  0-C , 18-H ) :   0.9717 
B(  1-C ,  2-C ) :   1.3742 B(  1-C ,  4-C ) :   0.1009 B(  1-C , 19-H ) :   0.9656 
B(  2-C ,  3-C ) :   1.2826 B(  2-C , 14-O ) :   1.0399 B(  3-C ,  4-C ) :   1.3535 
B(  3-C ,  7-O ) :   1.0498 B(  4-C ,  5-C ) :   1.3071 B(  4-C , 20-H ) :   0.9757 
B(  5-C ,  6-Cl) :   0.9681 B(  7-O ,  8-C ) :   1.0615 B(  8-C ,  9-C ) :   1.2960 
B(  8-C , 13-C ) :   1.2470 B(  9-C , 10-C ) :   1.2885 B(  9-C , 21-H ) :   0.9937 
B( 10-C , 11-C ) :   1.4183 B( 10-C , 17-Cl) :   1.0278 B( 11-C , 12-C ) :   1.4316 
B( 11-C , 16-Cl) :   1.1115 B( 12-C , 13-C ) :   1.4029 B( 12-C , 15-Cl) :   1.0991 
B( 13-C , 14-O ) :   1.1403 

-------
TIMINGS
-------

Total SCF time: 0 days 0 hours 0 min 2 sec 

Total time                  ....       2.428 sec
Sum of individual times     ....       2.413 sec  ( 99.4%)

SCF preparation             ....       0.033 sec  (  1.4%)
Fock matrix formation       ....       2.211 sec  ( 91.1%)
  Startup                   ....       0.002 sec  (  0.1% of F)
  Split-RI-J                ....       1.325 sec  ( 60.0% of F)
  XC integration            ....       0.876 sec  ( 39.6% of F)
    Basis function eval.    ....       0.341 sec  ( 38.9% of XC)
    Density eval.           ....       0.208 sec  ( 23.7% of XC)
    XC-Functional eval.     ....       0.050 sec  (  5.7% of XC)
    XC-Potential eval.      ....       0.254 sec  ( 28.9% of XC)
Diagonalization             ....       0.000 sec  (  0.0%)
Density matrix formation    ....       0.004 sec  (  0.2%)
Total Energy calculation    ....       0.001 sec  (  0.0%)
Population analysis         ....       0.126 sec  (  5.2%)
Orbital Transformation      ....       0.008 sec  (  0.3%)
Orbital Orthonormalization  ....       0.000 sec  (  0.0%)
DIIS solution               ....       0.010 sec  (  0.4%)
  MO trafo                  ....       0.000 sec  (  0.0 % of DIIS)
  Orb grad                  ....       0.000 sec  (  0.0 % of DIIS)
  Energy W gradient         ....       0.000 sec  (  0.0 % of DIIS)
  DIIS error                ....       0.002 sec  ( 17.7 % of DIIS)
  DIIS work                 ....       0.008 sec  ( 81.3 % of DIIS)
  Form Q                    ....       0.000 sec  (  0.0 % of DIIS)
  Form QpQm                 ....       0.000 sec  (  0.0 % of DIIS)
  Exp/Cayley                ....       0.000 sec  (  0.0 % of DIIS)
  Orb update                ....       0.000 sec  (  0.0 % of DIIS)
  Wake-sleep                ....       0.000 sec  (  1.0 % of DIIS)
SOSCF solution              ....       0.021 sec  (  0.9%)
  MO trafo                  ....       0.014 sec  ( 67.1 % of SOSCF)
  Orb grad                  ....       0.000 sec  (  0.7 % of SOSCF)
  Rot update                ....       0.000 sec  (  1.8 % of SOSCF)
  Step                      ....       0.006 sec  ( 29.7 % of SOSCF)
Finished LeanSCF after   2.4 sec

Maximum memory used throughout the entire LEANSCF-calculation: 25.2 MB


-------------------------------------------------------------------------------
                          DFT DISPERSION CORRECTION                            
                                                                               
                                DFTD4 V3.4.0                                   
-------------------------------------------------------------------------------
The PBE functional is recognized
Active option DFTDOPT                   ...         5   

-------------------------   ----------------
Dispersion correction           -0.040087284
-------------------------   ----------------

------------------   -----------------
gCP correction             0.079559183
------------------   -----------------

-------------------------   --------------------
FINAL SINGLE POINT ENERGY     -2448.389856281761
-------------------------   --------------------


------------------------------------------------------------------------------
                              ORCA PROPERTY CALCULATIONS
------------------------------------------------------------------------------

GBWName                                 ... sp.gbw
Number of atoms                         ...     22
Number of basis functions               ...    276
Max core memory                         ...   1024 MB

Electric properties:
Dipole moment                           ... YES
Quadrupole moment                       ...  NO
Static polarizability (Dipole/Dipole)   ...  NO
Static polarizability (Dipole/Quad.)    ...  NO
Static polarizability (Quad./Quad.)     ...  NO
Static polarizability (Velocity)        ...  NO

Atomic electric properties:
Dipole moment                           ...  NO
Quadrupole moment                       ...  NO
Static polarizability                   ...  NO

Choice of electric origin               ... Center of mass
Position of electric origin             ...     0.000002     0.000000     0.000000

General magnetic properties:
Magnetizability                         ...  NO

EPR properties:
g-Tensor (aka g-matrix)                 ...  NO
Zero-Field splitting spin-orbit         ...  NO
Zero-field splitting spin-spin          ...  NO
Hyperfine couplings                     ...  NO (   0 nuclei)
Quadrupole couplings                    ...  NO (   0 nuclei)
Contact density                         ...  NO (   0 nuclei)

NMR properties:
Chemical shifts                         ...  NO (   0 nuclei)
Spin-rotation constants                 ...  NO (   0 nuclei)
Spin-spin couplings                     ...  NO (   0 nuclei,    0 pairs)

Choice of magnetic origin               ... GIAO
Position of magnetic origin             ...     0.000000     0.000000     0.000000

Properties with geometric perturbations:
SCF Hessian                             ...  NO
IR spectrum                             ...  NO
VCD spectrum                            ...  NO
X-ray spectroscopy properties:
SCF XES/XAS/RIXS spectra                ...  NO


-------------
DIPOLE MOMENT
-------------

Method             : SCF
Type of density    : Electron Density
Multiplicity       :   1
Irrep              :   0
Energy             : -2448.4293281806576488 Eh
Relativity type    : 
Basis              : AO
                                X                 Y                 Z
Electronic contribution:    -14.927185964       0.499292994       0.001841619
Nuclear contribution   :     15.367028547      -0.482839786      -0.001873581
                        -----------------------------------------
Total Dipole Moment    :      0.439842583       0.016453208      -0.000031962
                        -----------------------------------------
Magnitude (a.u.)       :      0.440150210
Magnitude (Debye)      :      1.118772923



--------------------
Rotational spectrum 
--------------------
 
Rotational constants in cm-1:             0.022851             0.004483             0.003748 
Rotational constants in MHz :           685.062999           134.403690           112.359657 

Dipole components along the rotational axes: 
x,y,z [a.u.] :     0.439843    -0.016453    -0.000032 
x,y,z [Debye]:     1.117991    -0.041820    -0.000081 

 

Dipole moment calculation done in   0.0 sec 

Maximum memory used throughout the entire PROP-calculation: 17.8 MB

--------------------------------
SUGGESTED CITATIONS FOR THIS RUN
--------------------------------

Below you find a list of papers that are relevant to this ORCA run
We neither can nor want to force you to cite these papers, but we appreciate if you do
You receive ORCA, which is the product of decades of hard work by many enthusiastic individuals, for free
The only thing we kindly ask in return is that you cite our papers,
We deeply appreciate it, if you show your appreciation for ORCA by not just citing the generic ORCA reference.

Please note that relegating all ORCA citations to the supporting information does *not* help us.
SI sections are not indexed - citations you put there will not count into any citation statistics
But we need these citations in order to attract the funding resources that allow us to do what we are doing

Therefore, if you are a happy ORCA user, please consider citing a few of the papers listed below in the main body of your paper

In addition to the list printed below, the program has created the file sp.bibtex that contains the list in bibtex format
You can import this file easily into all common literature databanks and citation aid programs


List of essential papers. We consider these as the minimum necessary citations

  1. Neese,F.
     Software update: the ORCA program system, version 5.0
     WIRES Comput. Molec. Sci., 2022 12(1)e1606
     doi.org/10.1002/wcms.1606

List of papers to cite with high priority. The work reported in these papers was absolutely
necessary for this run to complete.
Our perspective: the developers of density functionals and basis sets usually get cited in chemistry papers
Good! But without the algorithms to do something with them, the functionals or basis sets would not do anything.
Hence, in our opinion, the algorithm design and method developments papers are equally worthy of getting cited

  1. Neese,F.
     An improvement of the resolution of the identity approximation for the formation of the Coulomb matrix
     J. Comp. Chem., 2003 24(14)1740-1747
     doi.org/10.1002/jcc.10318
  2. Neese,F.
     The SHARK Integral Generation and Digestion System
     J. Comp. Chem., 2022  1-16
     doi.org/10.1002/jcc.26942
  3. Caldeweyher,E.; Bannwarth,C.; Grimme,S.
     Extension of the D3 dispersion coefficient model
     J. Chem. Phys., 2017 147 034112
     doi.org/10.1063/1.4993215
  4. Caldeweyher,E.; Ehlert,S.; Hansen,A.; Neugebauer,H.; Spicher,S.; Bannwarth,C.; Grimme,S.
     A generally applicable atomic-charge dependent London dispersion correction
     J. Chem. Phys., 2019 150 154122
     doi.org/10.1063/1.5090222
  5. Caldeweyher,E.; Mewes,J.; Ehlert,S.; Grimme,S.
     Extension and evaluation of the D4 London-dispersion model for periodic systems
     Phys. Chem. Chem. Phys., 2020 22(16)8499-8512
     doi.org/10.1039/D0CP00502A
  6. Wittmann,L.; Gordiy,I.; Friede,M.; Helmich-Paris,B.; Grimme,S.; Hansen,A.; Bursch,M.
     Extension of the D3 and D4 London Dispersion Corrections to the full Actinides Series
     Phys. Chem. Chem. Phys., 2024 26(32)21379-21394
     doi.org/https://doi.org/10.1039/D4CP01514B 

List of suggested additional citations. These are papers that are important in the 'surrounding' of 
of this run, or papers that preceded the highly important papers. If you like your results we are grateful for a citation.

  1. Neese,F.
     The ORCA program system
     WIRES Comput. Molec. Sci., 2012 2(1)73-78
     doi.org/10.1002/wcms.81
  2. Neese,F.
     Software update: the ORCA program system, version 4.0
     WIRES Comput. Molec. Sci., 2018 8(1)1-6
     doi.org/10.1002/wcms.1327
  3. Neese,F.; Wennmohs,F.; Becker,U.; Riplinger,C.
     The ORCA quantum chemistry program package
     J. Chem. Phys., 2020 152 Art. No. L224108
     doi.org/10.1063/5.0004608

List of optional additional citations

  1. Neese,F.
     Approximate second-order SCF convergence for spin unrestricted wavefunctions
     Chem. Phys. Lett., 2000 325(1-3)93-98
     doi.org/10.1016/s0009-2614(00)00662-x

Timings for individual modules:

Sum of individual times          ...        3.049 sec (=   0.051 min)
Startup calculation              ...        0.503 sec (=   0.008 min)  16.5 %
SCF iterations                   ...        2.506 sec (=   0.042 min)  82.2 %
Property calculations            ...        0.041 sec (=   0.001 min)   1.3 %
                             ****ORCA TERMINATED NORMALLY****
TOTAL RUN TIME: 0 days 0 hours 0 minutes 3 seconds 187 msec
