      -----------------------------------------------------------      
     |                   =====================                   |     
     |                           x T B                           |     
     |                   =====================                   |     
     |                         S. Grimme                         |     
     |          Mulliken Center for Theoretical Chemistry        |     
     |                    University of Bonn                     |     
      -----------------------------------------------------------      

   * xtb version 6.7.1 (41059b4) compiled by 'michael@archlinux' on 2025-03-24

   xtb is free software: you can redistribute it and/or modify it under
   the terms of the GNU Lesser General Public License as published by
   the Free Software Foundation, either version 3 of the License, or
   (at your option) any later version.
   
   xtb is distributed in the hope that it will be useful,
   but WITHOUT ANY WARRANTY; without even the implied warranty of
   MERCHANTABILITY or FITNESS FOR A PARTICULAR PURPOSE.  See the
   GNU Lesser General Public License for more details.
   
   Cite this work as:
   * C. Bannwarth, E. Caldeweyher, S. Ehlert, A. Hansen, P. Pracht,
     J. Seibert, S. Spicher, S. Grimme, WIREs Comput. Mol. Sci., 2020, 11,
     e01493. DOI: 10.1002/wcms.1493
   
   for GFN2-xTB:
   * C. Bannwarth, S. Ehlert and S. Grimme., J. Chem. Theory Comput., 2019,
     15, 1652-1671. DOI: 10.1021/acs.jctc.8b01176
   for GFN1-xTB:
   * S. Grimme, C. Bannwarth, P. Shushkov, J. Chem. Theory Comput., 2017,
     13, 1989-2009. DOI: 10.1021/acs.jctc.7b00118
   for GFN0-xTB:
   * P. Pracht, E. Caldeweyher, S. Ehlert, S. Grimme, ChemRxiv, 2019, preprint.
     DOI: 10.26434/chemrxiv.8326202.v1
   for GFN-FF:
   * S. Spicher and S. Grimme, Angew. Chem. Int. Ed., 2020, 59, 15665-15673.
     DOI: 10.1002/anie.202004239
   
   for ALPB and GBSA implicit solvation:
   * S. Ehlert, M. Stahn, S. Spicher, S. Grimme, J. Chem. Theory Comput.,
     2021, 17, 4250-4261. DOI: 10.1021/acs.jctc.1c00471
   
   for ddCOSMO and CPCM-X implicit solvation:
   * M. Stahn, S. Ehlert, S. Grimme, J. Phys. Chem. A,
     2023, XX, XXXX-XXXX. DOI: 10.1021/acs.jpca.3c04382
   
   for DFT-D4:
   * E. Caldeweyher, C. Bannwarth and S. Grimme, J. Chem. Phys., 2017,
     147, 034112. DOI: 10.1063/1.4993215
   * E. Caldeweyher, S. Ehlert, A. Hansen, H. Neugebauer, S. Spicher,
     C. Bannwarth and S. Grimme, J. Chem. Phys., 2019, 150, 154122.
     DOI: 10.1063/1.5090222
   * E. Caldeweyher, J.-M. Mewes, S. Ehlert and S. Grimme, Phys. Chem. Chem. Phys.
     2020, 22, 8499-8512. DOI: 10.1039/D0CP00502A
   
   for sTDA-xTB:
   * S. Grimme and C. Bannwarth, J. Chem. Phys., 2016, 145, 054103.
     DOI: 10.1063/1.4959605
   
   in the mass-spec context:
   * V. Asgeirsson, C. Bauer and S. Grimme, Chem. Sci., 2017, 8, 4879.
     DOI: 10.1039/c7sc00601b
   * J. Koopman and S. Grimme, ACS Omega 2019, 4, 12, 15120-15133.
     DOI: 10.1021/acsomega.9b02011
   
   for metadynamics refer to:
   * S. Grimme, J. Chem. Theory Comput., 2019, 155, 2847-2862
     DOI: 10.1021/acs.jctc.9b00143
   
   for SPH calculations refer to:
   * S. Spicher and S. Grimme, J. Chem. Theory Comput., 2021, 17, 1701-1714
     DOI: 10.1021/acs.jctc.0c01306
   
   for ONIOM refer to:
   * C. Plett, A. Katbashev, S. Ehlert, S. Grimme, M. Bursch,
     Phys. Chem. Chem. Phys., 2023, 25, 17860-17868. DOI: 10.1039/D3CP02178E
   
   for DIPRO refer to:
   * J. Kohn, N. Gildemeister, S. Grimme, D. Fazzi, A. Hansen,
     J. Chem. Phys., 2023, just accepted.
   
   for PTB refer to:
   * S. Grimme, M. Mueller, A. Hansen, J. Chem. Phys., 2023, 158, 124111.
     DOI: 10.1063/5.0137838
   
   with help from (in alphabetical order)
   P. Atkinson, C. Bannwarth, F. Bohle, G. Brandenburg, E. Caldeweyher
   M. Checinski, S. Dohm, S. Ehlert, S. Ehrlich, I. Gerasimov, C. Hölzer
   A. Katbashev, J. Kohn, J. Koopman, C. Lavigne, S. Lehtola, F. März, M. Müller,
   F. Musil, H. Neugebauer, J. Pisarek, C. Plett, P. Pracht, F. Pultar,
   J. Seibert, P. Shushkov, S. Spicher, M. Stahn, M. Steiner, T. Strunk,
   J. Stückrath, T. Rose, and J. Unsleber
   
 * started run on 2025/04/09 at 02:30:17.131     
   ID    Z sym.   atoms
    1    6 C      1, 2, 4, 6, 8
    2    1 H      3, 5, 7, 9, 15-20
    3    8 O      10-14

           -------------------------------------------------
          |                Calculation Setup                |
           -------------------------------------------------

          program call               : /usr/bin/xtb xtb_rrho.coord --gfn2 --bhess vtight --chrg 0 --enso --norestart -I rrho-xcontrol-inp --parallel 1
          coordinate file            : xtb_rrho.coord
          omp threads                :                     1


           -------------------------------------------------
          |                 G F N 2 - x T B                 |
           -------------------------------------------------

        Reference                      10.1021/acs.jctc.8b01176
      * Hamiltonian:
        H0-scaling (s, p, d)           1.850000    2.230000    2.230000
        zeta-weighting                 0.500000
      * Dispersion:
        s8                             2.700000
        a1                             0.520000
        a2                             5.000000
        s9                             5.000000
      * Repulsion:
        kExp                           1.500000    1.000000
        rExp                           1.000000
      * Coulomb:
        alpha                          2.000000
        third order                    shell-resolved
        anisotropic                    true
        a3                             3.000000
        a5                             4.000000
        cn-shift                       1.200000
        cn-exp                         4.000000
        max-rad                        5.000000


          ...................................................
          :                      SETUP                      :
          :.................................................:
          :  # basis functions                  50          :
          :  # atomic orbitals                  50          :
          :  # shells                           30          :
          :  # electrons                        60          :
          :  max. iterations                   250          :
          :  Hamiltonian                  GFN2-xTB          :
          :  restarted?                      false          :
          :  GBSA solvation                  false          :
          :  PC potential                    false          :
          :  electronic temp.          300.0000000     K    :
          :  accuracy                    1.0000000          :
          :  -> integral cutoff          0.2500000E+02      :
          :  -> integral neglect         0.1000000E-07      :
          :  -> SCF convergence          0.1000000E-05 Eh   :
          :  -> wf. convergence          0.1000000E-03 e    :
          :  Broyden damping             0.4000000          :
          :  net charge                          0          :
          :  unpaired electrons                  0          :
          ...................................................

 iter      E             dE          RMSdq      gap      omega  full diag
   1    -36.3404911 -0.363405E+02  0.471E+00    9.94       0.0  T
   2    -36.3753435 -0.348524E-01  0.250E+00    9.75       1.0  T
   3    -36.3762752 -0.931640E-03  0.791E-01    9.72       1.0  T
   4    -36.3771393 -0.864134E-03  0.145E-01    9.72       1.0  T
   5    -36.3771898 -0.505436E-04  0.559E-02    9.74       1.0  T
   6    -36.3772002 -0.103720E-04  0.190E-02    9.75       1.2  T
   7    -36.3772009 -0.737140E-06  0.667E-03    9.75       3.4  T
   8    -36.3772012 -0.253011E-06  0.191E-03    9.75      11.7  T
   9    -36.3772012 -0.107307E-07  0.761E-04    9.75      29.4  T
  10    -36.3772012 -0.395445E-09  0.372E-04    9.75      60.0  T

   *** convergence criteria satisfied after 10 iterations ***

         #    Occupation            Energy/Eh            Energy/eV
      -------------------------------------------------------------
         1        2.0000           -0.7256624             -19.7463
       ...           ...                  ...                  ...
        24        2.0000           -0.4855695             -13.2130
        25        2.0000           -0.4809808             -13.0882
        26        2.0000           -0.4718965             -12.8410
        27        2.0000           -0.4610342             -12.5454
        28        2.0000           -0.4407855             -11.9944
        29        2.0000           -0.4267017             -11.6111
        30        2.0000           -0.4107934             -11.1783 (HOMO)
        31                         -0.0525895              -1.4310 (LUMO)
        32                         -0.0049809              -0.1355
        33                          0.0135462               0.3686
        34                          0.0251916               0.6855
        35                          0.0365809               0.9954
       ...                                ...                  ...
        50                          0.2520538               6.8587
      -------------------------------------------------------------
                  HL-Gap            0.3582039 Eh            9.7472 eV
             Fermi-level           -0.2316914 Eh           -6.3046 eV

 SCC (total)                   0 d,  0 h,  0 min,  0.016 sec
 SCC setup                      ...        0 min,  0.000 sec (  0.627%)
 Dispersion                     ...        0 min,  0.000 sec (  0.760%)
 classical contributions        ...        0 min,  0.000 sec (  0.194%)
 integral evaluation            ...        0 min,  0.003 sec ( 15.768%)
 iterations                     ...        0 min,  0.007 sec ( 43.036%)
 molecular gradient             ...        0 min,  0.006 sec ( 38.951%)
 printout                       ...        0 min,  0.000 sec (  0.601%)

         :::::::::::::::::::::::::::::::::::::::::::::::::::::
         ::                     SUMMARY                     ::
         :::::::::::::::::::::::::::::::::::::::::::::::::::::
         :: total energy             -36.129541699564 Eh    ::
         :: gradient norm              0.042476861868 Eh/a0 ::
         :: HOMO-LUMO gap              9.747224168189 eV    ::
         ::.................................................::
         :: SCC energy               -36.377120820988 Eh    ::
         :: -> isotropic ES            0.113250501288 Eh    ::
         :: -> anisotropic ES          0.000402917023 Eh    ::
         :: -> anisotropic XC         -0.007266437909 Eh    ::
         :: -> dispersion             -0.015386830943 Eh    ::
         :: repulsion energy           0.247579121424 Eh    ::
         :: add. restraining           0.000000000000 Eh    ::
         :: total charge              -0.000000000000 e     ::
         :::::::::::::::::::::::::::::::::::::::::::::::::::::

metadynamics with 1 initial structures loaded
           -------------------------------------------------
          |           Optimal kpush determination           |
           -------------------------------------------------
      ----------------------------------------------------------- 
     |                   =====================                   |
     |                        A N C O P T                        |
     |                   =====================                   |
     |               Approximate Normal Coordinate               |
     |                Rational Function Optimizer                |
      ----------------------------------------------------------- 
target rmsd / Å         0.100000
unbiased initial rmsd   0.062101

iter. min.        max.        rmsd       kpush
final kpush: -0.000000
           -------------------------------------------------
          |            Biased Numerical Hessian             |
           -------------------------------------------------
kpush                :  -0.00000
alpha                :   1.00000
step length          :   0.00500
SCC accuracy         :   0.30000
Hessian scale factor :   1.00000
frozen atoms in %    :   0.00000    0
RMS gradient         :   0.00006
estimated CPU  time      0.02 min
estimated wall time      0.02 min

writing file <hessian>, containing the non-mass-weighted Hessian matrix in atomic units (Eₕ/Bohr²).

writing file <hessian_sph>.

 projected vibrational frequencies (cm⁻¹)
eigval :       -0.00    -0.00     0.00     0.00     0.00     0.00
eigval :      104.41   140.81   199.31   216.36   242.73   260.09
eigval :      297.67   320.55   345.94   371.34   417.94   441.85
eigval :      484.95   499.67   526.99   571.68   688.52   793.78
eigval :      847.91   867.69   937.89   953.19  1032.95  1078.50
eigval :     1082.67  1098.32  1103.80  1120.55  1134.97  1180.05
eigval :     1188.82  1200.88  1211.27  1234.96  1253.13  1283.93
eigval :     1293.94  1298.66  1324.52  1332.65  1349.70  1355.42
eigval :     1361.61  1441.63  2841.94  2857.63  2871.65  2915.58
eigval :     2962.28  3001.22  3394.07  3447.60  3535.03  3536.87
           -------------------------------------------------
          |                Property Printout                |
           -------------------------------------------------

    * Orbital Energies and Occupations

         #    Occupation            Energy/Eh            Energy/eV
      -------------------------------------------------------------
         1        2.0000           -0.7297951             -19.8587
       ...           ...                  ...                  ...
        18        2.0000           -0.5426754             -14.7669
        19        2.0000           -0.5297022             -14.4139
        20        2.0000           -0.5213311             -14.1861
        21        2.0000           -0.5111773             -13.9098
        22        2.0000           -0.5079830             -13.8229
        23        2.0000           -0.4907711             -13.3546
        24        2.0000           -0.4844746             -13.1832
        25        2.0000           -0.4781192             -13.0103
        26        2.0000           -0.4704012             -12.8003
        27        2.0000           -0.4588367             -12.4856
        28        2.0000           -0.4420625             -12.0291
        29        2.0000           -0.4205599             -11.4440
        30        2.0000           -0.4059954             -11.0477 (HOMO)
        31                         -0.0263834              -0.7179 (LUMO)
        32                          0.0132760               0.3613
        33                          0.0321315               0.8743
        34                          0.0362882               0.9875
        35                          0.0396780               1.0797
        36                          0.0518854               1.4119
        37                          0.0639894               1.7412
        38                          0.0708437               1.9278
        39                          0.0976091               2.6561
        40                          0.1192578               3.2452
        41                          0.1372400               3.7345
       ...                                ...                  ...
        50                          0.2647896               7.2053
      -------------------------------------------------------------
                  HL-Gap            0.3796120 Eh           10.3298 eV
             Fermi-level           -0.2161894 Eh           -5.8828 eV

     #   Z          covCN         q      C6AA      α(0)
     1   6          3.705     0.074    19.488     6.311
     2   6          3.723     0.089    19.201     6.257
     3   1          0.923     0.032     2.565     2.505
     4   6          3.725     0.084    19.284     6.270
     5   1          0.923     0.058     2.222     2.331
     6   6          3.725     0.076    19.405     6.290
     7   1          0.924     0.057     2.236     2.338
     8   6          3.630     0.237    17.268     5.983
     9   1          0.923     0.017     2.786     2.610
    10   8          1.701    -0.324    19.421     5.950
    11   8          1.657    -0.419    21.226     6.220
    12   8          1.655    -0.449    21.822     6.306
    13   8          1.656    -0.437    21.577     6.271
    14   8          1.656    -0.439    21.611     6.276
    15   1          0.923     0.023     2.692     2.566
    16   1          0.924     0.080     1.980     2.200
    17   1          0.804     0.326     0.647     1.263
    18   1          0.804     0.322     0.658     1.275
    19   1          0.805     0.291     0.748     1.358
    20   1          0.805     0.301     0.717     1.330

 Mol. C6AA /au·bohr⁶  :       3272.888627
 Mol. C8AA /au·bohr⁸  :      69445.389268
 Mol. α(0) /au        :         81.910929


Wiberg/Mayer (AO) data.
largest (>0.10) Wiberg bond orders for each atom

 ---------------------------------------------------------------------------
     #   Z sym  total        # sym  WBO       # sym  WBO       # sym  WBO
 ---------------------------------------------------------------------------
     1   6      3.955 --    10      0.992     2      0.981    16      0.964
                            15      0.963
     2   6      3.957 --    14      0.992     1      0.981     3      0.960
                             4      0.958
     3   1      0.999 --     2      0.960
     4   6      3.955 --    13      1.003     6      0.961     2      0.958
                             5      0.957
     5   1      0.997 --     4      0.957
     6   6      3.962 --    12      1.010     4      0.961     7      0.961
                             8      0.946
     7   1      0.997 --     6      0.961
     8   6      3.938 --    11      1.036    10      0.949     9      0.947
                             6      0.946
     9   1      1.000 --     8      0.947
    10   8      2.087 --     1      0.992     8      0.949
    11   8      2.001 --     8      1.036    17      0.868
    12   8      1.970 --     6      1.010    18      0.863
    13   8      1.975 --     4      1.003    19      0.892
    14   8      1.978 --     2      0.992    20      0.892
    15   1      0.999 --     1      0.963
    16   1      0.994 --     1      0.964
    17   1      0.894 --    11      0.868
    18   1      0.896 --    12      0.863
    19   1      0.915 --    13      0.892
    20   1      0.909 --    14      0.892
 ---------------------------------------------------------------------------

Topologies differ in total number of bonds
Writing topology from bond orders to xtbtopo.mol

molecular dipole:
                 x           y           z       tot (Debye)
 q only:        0.791      -0.069      -0.066
   full:        1.121      -0.091      -0.208       2.908
molecular quadrupole (traceless):
                xx          xy          yy          xz          yz          zz
 q only:        0.809       1.730      -4.223       0.455      -2.325       3.415
  q+dip:        0.200       1.980      -4.171       1.576      -4.154       3.970
   full:        0.230       1.918      -4.984       1.385      -3.841       4.755

           -------------------------------------------------
          |                Geometry Summary                 |
           -------------------------------------------------

      molecular mass/u    :      150.1301116
   center of mass at/Å    :       -0.0000596       0.0000476      -0.0000320
  moments of inertia/u·Å² :        0.2875040E+03   0.4135868E+03   0.4439193E+03
rotational constants/cm⁻¹ :        0.5863442E-01   0.4075960E-01   0.3797454E-01

 * 17 selected distances

     #   Z          #   Z                                           value/Å
     1   6          2   6                                         1.5359272 (max)
     2   6          3   1                                         1.1009991
     4   6          5   1                                         1.0983014
     6   6          7   1                                         1.0948170
     8   6          9   1                                         1.1037441
     1   6         10   8                                         1.4023186
     8   6         10   8                                         1.4173733
     8   6         11   8                                         1.3733102
     6   6         12   8                                         1.4038312
     4   6         13   8                                         1.4024279
     2   6         14   8                                         1.4115115
     1   6         15   1                                         1.1012385
     1   6         16   1                                         1.0908145
    11   8         17   1                                         0.9698113
    12   8         18   1                                         0.9727139
    13   8         19   1                                         0.9637625 (min)
    14   8         20   1                                         0.9640963

 * 4 distinct bonds (by element types)

   Z      Z             #   av. dist./Å        max./Å        min./Å
   1 H    6 C           6     1.0983191     1.1037441     1.0908145
   6 C    6 C           1     1.5359272     1.5359272     1.5359272
   1 H    8 O           4     0.9675960     0.9727139     0.9637625
   6 C    8 O           6     1.4017954     1.4173733     1.3733102

           -------------------------------------------------
          |               Frequency Printout                |
           -------------------------------------------------
 projected vibrational frequencies (cm⁻¹)
eigval :       -0.00    -0.00     0.00     0.00     0.00     0.00
eigval :      104.41   140.81   199.31   216.36   242.73   260.09
eigval :      297.67   320.55   345.94   371.34   417.94   441.85
eigval :      484.95   499.67   526.99   571.68   688.52   793.78
eigval :      847.91   867.69   937.89   953.19  1032.95  1078.50
eigval :     1082.67  1098.32  1103.80  1120.55  1134.97  1180.05
eigval :     1188.82  1200.88  1211.27  1234.96  1253.13  1283.93
eigval :     1293.94  1298.66  1324.52  1332.65  1349.70  1355.42
eigval :     1361.61  1441.63  2841.94  2857.63  2871.65  2915.58
eigval :     2962.28  3001.22  3394.07  3447.60  3535.03  3536.87
 reduced masses (amu)
    1:      7.44    2:      6.30    3:      6.80    4:      6.54    5:      7.59    6:      5.81
    7:      5.33    8:      5.23    9:      5.18   10:      5.23   11:      3.05   12:      2.44
   13:      1.36   14:      1.21   15:      2.27   16:      4.57   17:      3.45   18:      1.55
   19:      1.54   20:      4.37   21:      2.62   22:      4.57   23:      4.20   24:      4.11
   25:      3.91   26:      2.90   27:      2.55   28:      2.28   29:      2.79   30:      2.21
   31:      3.43   32:      2.45   33:      3.89   34:      3.64   35:      1.90   36:      1.35
   37:      1.43   38:      1.36   39:      1.46   40:      1.51   41:      1.56   42:      1.34
   43:      1.34   44:      1.25   45:      1.29   46:      1.41   47:      1.34   48:      1.33
   49:      1.36   50:      1.09   51:      1.07   52:      1.07   53:      1.07   54:      1.07
   55:      1.07   56:      1.07   57:      1.07   58:      1.06   59:      1.07   60:      1.07
 IR intensities (km·mol⁻¹)
    1:      0.05    2:      0.29    3:      0.48    4:      0.12    5:      0.03    6:      0.70
    7:      5.72    8:      3.17    9:     11.12   10:      4.44   11:     20.63   12:     11.48
   13:     12.46   14:    259.39   15:     66.30   16:     19.26   17:     42.52   18:     97.20
   19:     79.37   20:     15.84   21:     93.33   22:     20.20   23:      5.73   24:     21.53
   25:      7.95   26:     12.02   27:     35.16   28:     35.75   29:     90.84   30:     69.46
   31:     16.33   32:     82.79   33:    132.27   34:     41.21   35:    164.78   36:     77.82
   37:     26.96   38:      2.83   39:     13.23   40:     13.28   41:     60.99   42:     10.92
   43:     32.37   44:     35.89   45:     29.81   46:     36.34   47:     60.59   48:     73.80
   49:    137.90   50:      2.98   51:     64.80   52:     40.49   53:     91.52   54:     36.62
   55:     30.16   56:     10.94   57:     79.33   58:     38.85   59:     13.24   60:     17.38
 Raman intensities (Ä⁴*amu⁻¹)
    1:      0.00    2:      0.00    3:      0.00    4:      0.00    5:      0.00    6:      0.00
    7:      0.00    8:      0.00    9:      0.00   10:      0.00   11:      0.00   12:      0.00
Molecule has no symmetry elements
It seems to be the C1 point group
   13:      0.00   14:      0.00   15:      0.00   16:      0.00   17:      0.00   18:      0.00
   19:      0.00   20:      0.00   21:      0.00   22:      0.00   23:      0.00   24:      0.00
   25:      0.00   26:      0.00   27:      0.00   28:      0.00   29:      0.00   30:      0.00
   31:      0.00   32:      0.00   33:      0.00   34:      0.00   35:      0.00   36:      0.00
   37:      0.00   38:      0.00   39:      0.00   40:      0.00   41:      0.00   42:      0.00
   43:      0.00   44:      0.00   45:      0.00   46:      0.00   47:      0.00   48:      0.00
   49:      0.00   50:      0.00   51:      0.00   52:      0.00   53:      0.00   54:      0.00
   55:      0.00   56:      0.00   57:      0.00   58:      0.00   59:      0.00   60:      0.00
 output can be read by thermo (or use thermo option).
 writing <g98.out> molden fake output.
 recommended (thermochemical) frequency scaling factor: 1.0
           -------------------------------------------------
          |             Thermodynamic Functions             |
           -------------------------------------------------

c1  symmetry found (for desy threshold:  0.10E+00) used in thermo

          ...................................................
          :                      SETUP                      :
          :.................................................:
          :  # frequencies                          54      :
          :  # imaginary freq.                       0      :
          :  linear?                             false      :
          :  only rotor calc.                    false      :
          :  symmetry                               c1      :
          :  rotational number                       1      :
          :  scaling factor                  1.0000000      :
          :  rotor cutoff                    0.0000000 cm⁻¹ :
          :  imag. cutoff                 -100.0000000 cm⁻¹ :
          :.................................................:

    mode    ω/cm⁻¹     T·S(HO)/kcal·mol⁻¹    T·S(FR)/kcal·mol⁻¹   T·S(vib)
   ------------------------------------------------------------------------
       1    104.41    -1.00483 (100.00%)    -0.83829 (  0.00%)    -1.00483
       2    140.81    -0.83267 (100.00%)    -0.74973 (  0.00%)    -0.83267
       3    199.31    -0.63787 (100.00%)    -0.64682 (  0.00%)    -0.63787
       4    216.36    -0.59312 (100.00%)    -0.62252 (  0.00%)    -0.59312
       5    242.73    -0.53154 (100.00%)    -0.58846 (  0.00%)    -0.53154
       6    260.09    -0.49527 (100.00%)    -0.56799 (  0.00%)    -0.49527
       7    297.67    -0.42635 (100.00%)    -0.52802 (  0.00%)    -0.42635
   ------------------------------------------------------------------------

   temp. (K)  partition function   enthalpy   heat capacity  entropy
                                   cal/mol     cal/K/mol   cal/K/mol   J/K/mol
 298.15  VIB   141.                 4491.990     32.989     24.902
         ROT  0.555E+06              888.727      2.981     29.265
         INT  0.783E+08             5380.718     35.970     54.167
         TR   0.563E+26             1481.212      4.968     40.929
         TOT                        6861.9302    40.9380    95.0959   397.8812

       T/K    H(0)-H(T)+PV         H(T)/Eh          T*S/Eh         G(T)/Eh
   ------------------------------------------------------------------------
    298.15    0.109352E-01    0.167805E+00    0.451831E-01    0.122622E+00
   ------------------------------------------------------------------------

         :::::::::::::::::::::::::::::::::::::::::::::::::::::
         ::                  THERMODYNAMIC                  ::
         :::::::::::::::::::::::::::::::::::::::::::::::::::::
         :: total free energy         -36.009380744514 Eh   ::
         ::.................................................::
         :: total energy              -36.132003074981 Eh   ::
         :: zero point energy           0.156870272305 Eh   ::
         :: G(RRHO) w/o ZPVE           -0.034247941838 Eh   ::
         :: G(RRHO) contrib.            0.122622330467 Eh   ::
         :::::::::::::::::::::::::::::::::::::::::::::::::::::

optimized geometry written to: xtbopt.coord


           -------------------------------------------------
          | TOTAL ENERGY              -36.132003074981 Eh   |
          | TOTAL ENTHALPY            -35.964197620894 Eh   |
          | TOTAL FREE ENERGY         -36.009380744514 Eh   |
          | GRADIENT NORM               0.000059770156 Eh/α |
          | HOMO-LUMO GAP              10.329768135772 eV   |
           -------------------------------------------------

------------------------------------------------------------------------
 * finished run on 2025/04/09 at 02:30:18.483     
------------------------------------------------------------------------
 total:
 * wall-time:     0 d,  0 h,  0 min,  1.352 sec
 *  cpu-time:     0 d,  0 h,  0 min,  1.336 sec
 * ratio c/w:     0.989 speedup
 SCF:
 * wall-time:     0 d,  0 h,  0 min,  0.016 sec
 *  cpu-time:     0 d,  0 h,  0 min,  0.016 sec
 * ratio c/w:     0.985 speedup
 analytical hessian:
 * wall-time:     0 d,  0 h,  0 min,  1.223 sec
 *  cpu-time:     0 d,  0 h,  0 min,  1.210 sec
 * ratio c/w:     0.989 speedup

