20
 energy: -36.129541700862 gnorm: 0.042472851594 xtb: 6.7.1 (41059b4)
C            0.86453903197241        1.39418431704517       -0.60016967623831
C            1.59293243604014        0.16860382401485       -0.06945932675176
H            2.55851654959482        0.07006865634090       -0.58843092062438
C            0.75966370438693       -1.10102215386430       -0.32232323726839
H            1.18393997050961       -1.93849303641665        0.24607233538746
C           -0.69528513055863       -0.89624255495805        0.13207539305093
H           -1.29617863175038       -1.74630929902132       -0.21034545331725
C           -1.28163939882291        0.40064226939929       -0.44857905066305
H           -1.34742639318231        0.36337513346562       -1.55176450346817
O           -0.44900779351888        1.50624323412154       -0.06704092639636
O           -2.55920753055029        0.63141082055019        0.02701949234161
O           -0.80962690967520       -0.85374048011357        1.55327047237619
O            0.83528805561800       -1.49827557775310       -1.69137668172331
O            1.78487537141225        0.38149391151882        1.34012888349852
H            0.83695809126900        1.35430870322524       -1.70480562613147
H            1.39927595159051        2.30197139316605       -0.30854123868619
H           -2.54659375754601        0.37795366291031        0.96379822437161
H           -0.17311412930772       -0.18479641200692        1.85656357730650
H            0.41376818510834       -0.82683351781281       -2.24026351761934
H            2.30805980045298       -0.35243595830392        1.68408787100591
20
 energy: -36.131300954688 gnorm: 0.021450286063 xtb: 6.7.1 (41059b4)
C            0.85434614554818        1.39867521450939       -0.59711228300134
C            1.58637489793667        0.16739991600894       -0.06457929361211
H            2.55616024244765        0.07551773511097       -0.57400845500832
C            0.76156392256311       -1.10780529423501       -0.32802124147767
H            1.18720343644742       -1.94609809684614        0.23752995343113
C           -0.69265272250767       -0.89813392179609        0.12740555562398
H           -1.30126451351031       -1.75007832575739       -0.19525620633648
C           -1.27879945045138        0.40285758336758       -0.45312059788441
H           -1.34977820408463        0.35829336993503       -1.55374245682585
O           -0.45235237211555        1.50447632012723       -0.07934629469677
O           -2.54952494409812        0.62398430475004        0.02788167895434
O           -0.79164857841834       -0.83976953072814        1.53704185401370
O            0.84366784687407       -1.50620604221732       -1.68253204291415
O            1.78040530747528        0.35781829412259        1.33415318687436
H            0.82743407983330        1.36770078296340       -1.69920054391215
H            1.37294410507574        2.30533398033213       -0.28002548329216
H           -2.53381257571264        0.39923637767777        0.97273969798262
H           -0.17346260744627       -0.14946077150184        1.83219107258684
H            0.42156551594023       -0.84039004715522       -2.23693132893747
H            2.31136794124592       -0.37124491316058        1.67484931888268
20
 energy: -36.131846448835 gnorm: 0.004671377349 xtb: 6.7.1 (41059b4)
C            0.84502657914315        1.39844257452247       -0.58688839851042
C            1.58596222353670        0.16305073039687       -0.05933497220698
H            2.55452229807221        0.08207321262239       -0.57372652649667
C            0.76227255036226       -1.11360561866753       -0.34125281983201
H            1.18979172479751       -1.95043367092816        0.22563060376449
C           -0.68880551195995       -0.90020783175033        0.13005302101419
H           -1.30665561515003       -1.75070636199221       -0.17763064855538
C           -1.28017487062976        0.40035020839172       -0.45880589821607
H           -1.35377930756403        0.34950323212336       -1.55880769723133
O           -0.45948006361715        1.49551661946768       -0.08622567992314
O           -2.54672960971054        0.61379056465381        0.02294000691446
O           -0.77373874529558       -0.82817485043295        1.53041607849199
O            0.84796573198155       -1.51086216377725       -1.68440331741890
O            1.78054732152556        0.34563180523565        1.32858623636153
H            0.83343754451905        1.37462381529688       -1.68761368604061
H            1.35385463903740        2.30153067889593       -0.24667842598763
H           -2.52904421578695        0.42655751653046        0.97761261675217
H           -0.17528346151828       -0.11542597224721        1.81812279334295
H            0.42506884801942       -0.85112461085237       -2.24524220402900
H            2.31497941328012       -0.37842294198186        1.67316500825713
20
 energy: -36.131914328503 gnorm: 0.003267035231 xtb: 6.7.1 (41059b4)
C            0.84301320533863        1.40027193826739       -0.58178765203803
C            1.58660608265670        0.16242900461588       -0.05917667640665
H            2.55141395019738        0.08411818729891       -0.58225285379273
C            0.76285679701743       -1.11611074871575       -0.34257216786245
H            1.19161524043373       -1.95273019630114        0.22509506755488
C           -0.68808418576769       -0.90300245485685        0.13331785154786
H           -1.30728772740291       -1.75399998854818       -0.17028040633233
C           -1.28096850989197        0.39682010833984       -0.46032646990704
H           -1.35208854057576        0.34243634187304       -1.56065100333054
O           -0.46350844361043        1.49247979898026       -0.08584836348003
O           -2.54995703160542        0.60950515108989        0.01538156340713
O           -0.76798181326531       -0.82451437863653        1.53248455962388
O            0.84711404974140       -1.50966388467341       -1.68528712333202
O            1.78636277162477        0.34239891968345        1.32678529588887
H            0.83921861798514        1.38225086960782       -1.68307592670011
H            1.35098088300983        2.30128096912121       -0.23507694680179
H           -2.53418359163745        0.43933699029948        0.97294857323103
H           -0.17519576868722       -0.10545650009385        1.81554222011786
H            0.42239015506003       -0.85176929354921       -2.24715537342057
H            2.31742133242179       -0.38397389829489        1.67185192248353
20
 energy: -36.131964445868 gnorm: 0.002817348723 xtb: 6.7.1 (41059b4)
C            0.84083483544507        1.40238802398065       -0.57494709469038
C            1.58791425419611        0.16212328108038       -0.05991403240762
H            2.54716672621619        0.08520319731149       -0.59478193839203
C            0.76306724950923       -1.11781282616165       -0.34279153101280
H            1.19411600826957       -1.95385505780106        0.22489219621899
C           -0.68755815021853       -0.90628240113058        0.13827970795433
H           -1.30681676546554       -1.75870081158287       -0.16041712898953
C           -1.28141019452851        0.39124184716550       -0.46259968894278
H           -1.34691992228072        0.33317169948956       -1.56332337619933
O           -0.46874772769624        1.48863960195970       -0.08370393160323
O           -2.55524205231149        0.60342742926809        0.00293204250251
O           -0.76198046935356       -0.82072039308682        1.53707607991177
O            0.84501916366928       -1.50820659646931       -1.68610680629338
O            1.79862363507896        0.34044325610680        1.32395622719171
H            0.84417118796583        1.39396855174760       -1.67687064071656
H            1.34756541746277        2.30076806469494       -0.21973682460449
H           -2.54261053849073        0.45717792904058        0.96353100702090
H           -0.17515559255574       -0.09541961889983        1.81395191916494
H            0.41710501199925       -0.85262958027714       -2.24845104920446
H            2.32059539613144       -0.39281866092866        1.66894095354220
20
 energy: -36.131985893871 gnorm: 0.002197490080 xtb: 6.7.1 (41059b4)
C            0.83945741611161        1.40378559216203       -0.57054307481699
C            1.58846004232359        0.16220076992909       -0.06156270574333
H            2.54448642903728        0.08561755348997       -0.60258600466709
C            0.76336926584836       -1.11838579201655       -0.34201025460747
H            1.19625667058252       -1.95397845810278        0.22486019668241
C           -0.68679770799469       -0.90780187208691        0.14114761449001
H           -1.30541813420639       -1.76169083612639       -0.15396517278111
C           -1.28098146567247        0.38744626901145       -0.46372886273634
H           -1.34118654115653        0.32814057374809       -1.56452656415212
O           -0.47160547323426        1.48605362466349       -0.08096468561681
O           -2.55856571647771        0.59923200036084       -0.00620731135635
O           -0.75827599246868       -0.81824886118922        1.53998830171629
O            0.84359240574759       -1.50852729120732       -1.68576471032675
O            1.80765325057381        0.33949122228468        1.32103857754162
H            0.84437789991511        1.40232347093562       -1.67240780199087
H            1.34455695812094        2.30068335425942       -0.20910895428006
H           -2.54878094287390        0.46938613794039        0.95595770002968
H           -0.17531031401449       -0.08893040265555        1.81305223185807
H            0.41311562390975       -0.85426190090426       -2.24764778132555
H            2.32133379897122       -0.40042821898874        1.66489535253351
20
 energy: -36.131999972059 gnorm: 0.001080785513 xtb: 6.7.1 (41059b4)
C            0.83813632768027        1.40495518814758       -0.56675366083273
C            1.58876354408222        0.16250343192405       -0.06383084348351
H            2.54247389941903        0.08637903868735       -0.60886389314126
C            0.76371554377543       -1.11822305768143       -0.34118361407108
H            1.19842875584980       -1.95313231820239        0.22480303425883
C           -0.68576671609985       -0.90867333371431        0.14339879753353
H           -1.30360741089431       -1.76428623782516       -0.14790440102972
C           -1.27991845154575        0.38405822944707       -0.46442427629268
H           -1.33436241548232        0.32483032425122       -1.56524283326505
O           -0.47361683649383        1.48355575084203       -0.07730638661007
O           -2.56087020226521        0.59490767874389       -0.01477480369585
O           -0.75481148815818       -0.81584077782756        1.54240383066610
O            0.84228362259981       -1.51018066207655       -1.68510076423512
O            1.81578617822174        0.33844788595281        1.31784957613244
H            0.84219845750253        1.41019474811291       -1.66822258755124
H            1.34126360113008        2.30047314895429       -0.19923449108413
H           -2.55424004049594        0.48040501487652        0.94853284531904
H           -0.17575022008691       -0.08239883734833        1.81218858077874
H            0.40932251093286       -0.85703978642600       -2.24625168717112
H            2.32030881337120       -0.40882849333065        1.65983366822561
20
 energy: -36.132002629222 gnorm: 0.000486145381 xtb: 6.7.1 (41059b4)
C            0.83724238196586        1.40569924431210       -0.56464207438098
C            1.58873928878961        0.16274520514311       -0.06570445132598
H            2.54171701325207        0.08751420022192       -0.61186009943647
C            0.76423700473175       -1.11799170169327       -0.34079273678053
H            1.20009225612982       -1.95225906609872        0.22496616116606
C           -0.68472544324947       -0.90871180877128        0.14435464627900
H           -1.30219422879052       -1.76539151652128       -0.14447742038372
C           -1.27899635713440        0.38248634093765       -0.46436528622011
H           -1.32940077429873        0.32425258483292       -1.56528260251983
O           -0.47435513018020        1.48210171805573       -0.07414236422320
O           -2.56162951847768        0.59215921897948       -0.01973411364819
O           -0.75263800268306       -0.81431795535643        1.54342173623473
O            0.84154630498904       -1.51240598430971       -1.68452835766900
O            1.81977318515346        0.33730743009650        1.31572061745870
H            0.83932894469866        1.41459587622612       -1.66570736337234
H            1.33922720646872        2.30037621202796       -0.19388783799061
H           -2.55768162210013        0.48636859521199        0.94409275184450
H           -0.17624406806036       -0.07813504789854        1.81168752125309
H            0.40715701609183       -0.85985358999025       -2.24514007223035
H            2.31854201574640       -0.41443301989866        1.65593743639597
20
 energy: -36.132003028052 gnorm: 0.000136516094 xtb: 6.7.1 (41059b4)
C            0.83743206234951        1.40553085966842       -0.56534506017520
C            1.58873440758055        0.16273630545742       -0.06538344494850
H            2.54220583805111        0.08762147898833       -0.61075750523601
C            0.76421373656318       -1.11793524948597       -0.34102140944724
H            1.19974156897566       -1.95222198570665        0.22509493453859
C           -0.68489775908920       -0.90859043917454        0.14397472448901
H           -1.30255136459898       -1.76491848570827       -0.14560329793515
C           -1.27911522334366        0.38321506320295       -0.46408103624928
H           -1.33032832307713        0.32515953811987       -1.56507099033707
O           -0.47389334823181        1.48260883536581       -0.07443567428507
O           -2.56109180516464        0.59282039385918       -0.01827500317120
O           -0.75320349627600       -0.81489974038730        1.54302030336946
O            0.84177938704345       -1.51229660106452       -1.68465186141376
O            1.81825478455651        0.33745202013614        1.31631155087883
H            0.83934679451189        1.41306915613180       -1.66651634684171
H            1.33999400791846        2.30042580344694       -0.19598719452699
H           -2.55694520396960        0.48440520106791        0.94538173576216
H           -0.17622968977689       -0.07940081542326        1.81192843141757
H            0.40786639735631       -0.85960310449341       -2.24549610402358
H            2.31842470166393       -0.41307129849350        1.65682933858591
20
 energy: -36.132003074810 gnorm: 0.000059417009 xtb: 6.7.1 (41059b4)
C            0.83738248348921        1.40555224588120       -0.56537396973915
C            1.58874700115686        0.16274776900947       -0.06541369822390
H            2.54223452023224        0.08769792524455       -0.61078308890254
C            0.76432106106786       -1.11799333260426       -0.34104304581377
H            1.19984654488197       -1.95225058276840        0.22517083137993
C           -0.68481397291527       -0.90857279196108        0.14398008986387
H           -1.30248916032299       -1.76480809955661       -0.14578280954513
C           -1.27914411096162        0.38335047645331       -0.46392854095583
H           -1.33018448157049        0.32539540822360       -1.56496756368977
O           -0.47382126268790        1.48265849551612       -0.07415472079181
O           -2.56113607064821        0.59285565536269       -0.01830019643550
O           -0.75312015181615       -0.81509815604682        1.54302920879152
O            0.84186095261836       -1.51235312600562       -1.68464695016900
O            1.81821684889295        0.33751145391299        1.31631183683302
H            0.83905109789489        1.41281394160760       -1.66658712571858
H            1.34014649251778        2.30051418356688       -0.19639212285370
H           -2.55727090508948        0.48446403160978        0.94542700059479
H           -0.17627106674919       -0.07953321550610        1.81203030540848
H            0.40798737821579       -0.85968554417732       -2.24555408323867
H            2.31819427483605       -0.41315980225462        1.65689473365647
