
                                 *****************
                                 * O   R   C   A *
                                 *****************

                                            #,                                       
                                            ###                                      
                                            ####                                     
                                            #####                                    
                                            ######                                   
                                           ########,                                 
                                     ,,################,,,,,                         
                               ,,#################################,,                 
                          ,,##########################################,,             
                       ,#########################################, ''#####,          
                    ,#############################################,,   '####,        
                  ,##################################################,,,,####,       
                ,###########''''           ''''###############################       
              ,#####''   ,,,,##########,,,,          '''####'''          '####       
            ,##' ,,,,###########################,,,                        '##       
           ' ,,###''''                  '''############,,,                           
         ,,##''                                '''############,,,,        ,,,,,,###''
      ,#''                                            '''#######################'''  
     '                                                          ''''####''''         
             ,#######,   #######,   ,#######,      ##                                
            ,#'     '#,  ##    ##  ,#'     '#,    #''#        ,####,   ,####,        
            ##       ##  ##   ,#'  ##            #'  '#       #'       #'  '#        
            ##       ##  #######   ##           ,######,      #####,   #    #        
            '#,     ,#'  ##    ##  '#,     ,#' ,#      #,     #,   #   #,  ,#        
             '#######'   ##     ##  '#######'  #'      '#     '####' # '####'        



                #########################################################
                #                        -***-                          #
                #          Department of theory and spectroscopy        #
                #                                                       #
                #                      Frank Neese                      #
                #                                                       #
                #     Directorship, Architecture, Infrastructure        #
                #                    SHARK, DRIVERS                     #
                #        Core code/Algorithms in most modules           #
                #                                                       #
                #        Max Planck Institute fuer Kohlenforschung      #
                #                Kaiser Wilhelm Platz 1                 #
                #                 D-45470 Muelheim/Ruhr                 #
                #                      Germany                          #
                #                                                       #
                #                  All rights reserved                  #
                #                        -***-                          #
                #########################################################


                         Program Version 6.0.1  -  RELEASE   -


 With contributions from (in alphabetic order):
[Max-Planck-Institut fuer Kohlenforschung]                               
  Daniel Aravena         : Magnetic Suceptibility                        
  Michael Atanasov       : Ab Initio Ligand Field Theory (pilot matlab implementation)
  Alexander A. Auer      : GIAO ZORA, VPT2 properties, NMR spectrum      
  Ute Becker             : All parallelization in ORCA, NUMFREQ, NUMCALC 
  Giovanni Bistoni       : ED, misc. LED, open-shell LED, HFLD           
  Martin Brehm           : Molecular dynamics                            
  Dmytro Bykov           : pre 5.0 version of the SCF Hessian            
  Marcos Casanova-Páez   : Triplet and SCS-CIS(D). UHF-(DLPNO)-IP/EA/STEOM-CCSD. UHF-CVS-IP/STEOM-CCSD   
  Vijay G. Chilkuri      : MRCI spin determinant printing, contributions to CSF-ICE 
  Pauline Colinet        : FMM embedding                                 
  Dipayan Datta          : RHF DLPNO-CCSD density                        
  Achintya Kumar Dutta   : EOM-CC, STEOM-CC                              
  Nicolas Foglia         : Exact transition moments, OPA infrastructure, MCD improvements    
  Dmitry Ganyushin       : Spin-Orbit,Spin-Spin,Magnetic field MRCI      
  Miquel Garcia-Rates    : C-PCM and meta-GGA Hessian, CCSD/C-PCM, Gaussian charge scheme 
  Tiago L. C. Gouveia    : GS-ROHF, GS-ROCIS                             
  Yang Guo               : DLPNO-NEVPT2, F12-NEVPT2, CIM, IAO-localization        
  Andreas Hansen         : Spin unrestricted coupled pair/coupled cluster methods 
  Ingolf Harden          : AUTO-CI MPn and infrastructure                
  Benjamin Helmich-Paris : MC-RPA, TRAH-(SCF,CASSCF), AVAS, COSX integrals, SCF dyn. polar. 
  Lee Huntington         : MR-EOM, pCC                                   
  Robert Izsak           : Overlap fitted RIJCOSX, COSX-SCS-MP3, EOM     
  Riya Kayal             : Wick's Theorem for AUTO-CI, AUTO-CI UHF-CCSDT 
  Emily Kempfer          : AUTO-CI, RHF CISDT and CCSDT                  
  Christian Kollmar      : KDIIS, OOCD, Brueckner-CCSD(T), CCSD density, CASPT2, CASPT2-K, improved NEVPT2 
  Axel Koslowski         : Symmetry handling                             
  Simone Kossmann        : meta-GGA functionals, TD-DFT gradient, OOMP2, (MP2 Hessian; deprecated post 5.0) 
  Lucas Lang             : DCDCAS                                        
  Marvin Lechner         : AUTO-CI (C++ implementation), FIC-MRCC        
  Spencer Leger          : CASSCF response                               
  Dagmar Lenk            : GEPOL surface, SMD, ORCA-2-JSON               
  Dimitrios Liakos       : Extrapolation schemes; Compound Job, initial MDCI parallelization 
  Dimitrios Manganas     : Further ROCIS development; embedding schemes. LFT, Crystal Embedding 
  Dimitrios Pantazis     : SARC Basis sets                               
  Anastasios Papadopoulos: AUTO-CI, single reference methods and gradients 
  Taras Petrenko         : pre 6.0 DFT Hessian and TD-DFT gradient, (ASA, deprecated), ECA, 1-Electron XAS/XES, NRVS 
  Peter Pinski           : DLPNO-MP2, DLPNO-MP2 Gradient                 
  Christoph Reimann      : Effective Core Potentials                     
  Marius Retegan         : Local ZFS, SOC                                
  Christoph Riplinger    : Optimizer, TS searches, QM/MM, DLPNO-CCSD(T), (RO)-DLPNO pert. Triples 
  Michael Roemelt        : Original ROCIS implementation                 
  Masaaki Saitow         : Open-shell DLPNO-CCSD energy and density      
  Barbara Sandhoefer     : DKH picture change effects                    
  Kantharuban Sivalingam : CASSCF convergence/infrastructure, NEVPT2 and variants, FIC-MRCI 
  Bernardo de Souza      : ESD, SOC TD-DFT                               
  Georgi L. Stoychev     : AutoAux, RI-MP2 NMR, DLPNO-MP2 response, X2C  
  Van Anh Tran           : RI-MP2 g-tensors                              
  Willem Van den Heuvel  : Paramagnetic NMR                              
  Zikuan Wang            : NOTCH, Electric field optimization            
  Frank Wennmohs         : Technical directorship and infrastructure     
  Hang Xu                : AUTO-CI-Response properties                   
                                                                         
[FACCTs GmbH]                                                            
  Markus Bursch, Miquel Garcia-Rates, Christoph Riplinger, Bernardo de Souza, Georgi L. Stoychev 
                                                                 
  APM, Basis sets (HGBS, AHGBS, def-TZVP (Ac-Lr), def2-XVPD (La-Lu)), CI-OPT, improved COSX, DLPNO-Multilevel,           
  DOCKER, DRACO, updates on ESD, GOAT, IRC, LR-CPCM, MBIS, meta-GGA TD-DFT gradient, ML-optimized integration grids, 
  MM, NACMEs, nearIR, NEB, NEB-TS, NL-DFT gradient (VV10), 2- and 3-layer-ONIOM, interface openCOSMO-RS, QMMM,   
  Crystal-QMMM, SF, symmetry and pop. for TD-DFT, r2SCAN hybrids, SOLVATOR                                   
                                                                         
[Other institutions]                                                     
  V. Asgeirsson          : NEB                                           
  Christoph Bannwarth    : sTDA-DFT, sTD-DFT, PBEh-3c, B97-3c, D3        
  Sebastian Ehlert       : rSCAN, r2SCAN, r2SCAN-3c, D4, dhf basis sets  
  Marvin Friede          : D4 for Fr, Ra, Ac-Lr                          
  Lars Goerigk           : TD-DFT with DH, B97 family of functionals     
  Stefan Grimme          : VdW corrections, initial TS optimization, DFT functionals, gCP, sTDA/sTD-DF 
  Waldemar Hujo          : DFT-NL                                        
  H. Jonsson             : NEB                                           
  Holger Kruse           : gCP                                           
  Marcel Mueller         : wB97X-3c, vDZP basis set                      
  Hagen Neugebauer       : wr2SCAN                                       
  Tobias Risthaus        : range-separated hybrid DFT                    
  Lukas Wittmann         : regularized MP2, r2SCAN double-hybrids, wr2SCAN        
                                                                         
We gratefully acknowledge several colleagues who have allowed us to      
interface, adapt or use parts of their codes:                            
  Ed Valeev, F. Pavosevic, A. Kumar             : LibInt (2-el integral package), F12 methods 
  Garnet Chan, S. Sharma, J. Yang, R. Olivares  : DMRG                   
  Ulf Ekstrom                                   : XCFun DFT Library      
  Mihaly Kallay                                 : mrcc  (arbitrary order and MRCC methods)
  Frank Weinhold                                : gennbo (NPA and NBO analysis)           
  Simon Mueller                                 : openCOSMO-RS                            
  Christopher J. Cramer and Donald G. Truhlar   : smd solvation model                     
  S Lehtola, MJT Oliveira, MAL Marques          : LibXC Library                           
  Liviu Ungur et al                             : ANISO software                          


 Your calculation uses the libint2 library for the computation of 2-el integrals
 For citations please refer to: http://libint.valeyev.net

 Your ORCA version has been built with support for libXC version: 6.2.2
 For citations please refer to: https://libxc.gitlab.io

 This ORCA versions uses:
   CBLAS   interface :  Fast vector & matrix operations
   LAPACKE interface :  Fast linear algebra routines
   SCALAPACK package :  Parallel linear algebra routines
   Shared memory     :  Shared parallel matrices
   BLAS/LAPACK       :  OpenBLAS 0.3.27  USE64BITINT DYNAMIC_ARCH NO_AFFINITY Zen SINGLE_THREADED
        Core in use  :  Zen
   Copyright (c) 2011-2014, The OpenBLAS Project


Your calculation utilizes the geometrical counterpoise correction gCP
Please cite in your paper:
H.Kruse, S. Grimme J.Chem.Phys., 136, (2012), 154101 
   

Your calculation utilizes the atom-pairwise dispersion correction
based on EEQ partial charges (D4)


================================================================================

----- Orbital basis set information -----
Your calculation utilizes the basis: def2-SV(P)
   F. Weigend and R. Ahlrichs, Phys. Chem. Chem. Phys. 7, 3297 (2005).

----- AuxJ basis set information -----
Your calculation utilizes the auxiliary basis: def2/J
   F. Weigend, Phys. Chem. Chem. Phys. 8, 1057 (2006).

================================================================================
                                        WARNINGS
                       Please study these warnings very carefully!
================================================================================

WARNING: Old DensityContainer found on disk!
         Will remove this file - 
         If you want to keep old densities, please start your calculation with a different basename. 


================================================================================
                                       INPUT FILE
================================================================================
NAME = sp.inp
|  1> ! pbe def2-sv(p) def2/J RI DEFGRID1 loosescf d4 GCP(DFT/SV(P)) printgap
|  2> %output
|  3>     printlevel normal
|  4> end
|  5> * xyz 0 1
|  6> C 2.2136385032 -1.1734413911 -0.1260842133
|  7> C 1.4038266968 0.1000725554 0.0055682513
|  8> O 1.9380150895 1.1939279434 0.0417240242
|  9> N 0.0618151998 -0.0193372074 0.079983656
| 10> C -0.7401219172 -1.2266197817 0.0105219676
| 11> C -2.1771844794 -0.7368288519 0.2043659715
| 12> C -2.1335385356 0.6878261257 -0.3432869527
| 13> C -0.7717684421 1.1722311069 0.1368133787
| 14> H 2.7697557517 -1.1250357531 -1.060167889
| 15> H 1.6134277742 -2.0751501504 -0.1100098247
| 16> H 2.9394000998 -1.2024298157 0.683843231
| 17> H -0.6245574089 -1.7060491334 -0.9696045379
| 18> H -0.4519595394 -1.9414008069 0.786622703
| 19> H -2.8980580183 -1.3694552701 -0.3095190005
| 20> H -2.424717873 -0.7171914747 1.2661939686
| 21> H -2.1654713043 0.6731141863 -1.4333292297
| 22> H -2.9486962567 1.3069615435 0.023825762
| 23> H -0.331775446 1.9546221288 -0.4836094161
| 24> H -0.8219959209 1.5416186032 1.1677999273
| 25> *
| 26> 
| 27>                          ****END OF INPUT****
================================================================================

                       ****************************
                       * Single Point Calculation *
                       ****************************

---------------------------------
CARTESIAN COORDINATES (ANGSTROEM)
---------------------------------
  C      2.213639   -1.173441   -0.126084
  C      1.403827    0.100073    0.005568
  O      1.938015    1.193928    0.041724
  N      0.061815   -0.019337    0.079984
  C     -0.740122   -1.226620    0.010522
  C     -2.177184   -0.736829    0.204366
  C     -2.133539    0.687826   -0.343287
  C     -0.771768    1.172231    0.136813
  H      2.769756   -1.125036   -1.060168
  H      1.613428   -2.075150   -0.110010
  H      2.939400   -1.202430    0.683843
  H     -0.624557   -1.706049   -0.969605
  H     -0.451960   -1.941401    0.786623
  H     -2.898058   -1.369455   -0.309519
  H     -2.424718   -0.717191    1.266194
  H     -2.165471    0.673114   -1.433329
  H     -2.948696    1.306962    0.023826
  H     -0.331775    1.954622   -0.483609
  H     -0.821996    1.541619    1.167800

----------------------------
CARTESIAN COORDINATES (A.U.)
----------------------------
  NO LB      ZA    FRAG     MASS         X           Y           Z
   0 C     6.0000    0    12.011    4.183171   -2.217483   -0.238265
   1 C     6.0000    0    12.011    2.652848    0.189110    0.010522
   2 O     8.0000    0    15.999    3.662318    2.256197    0.078847
   3 N     7.0000    0    14.007    0.116814   -0.036542    0.151147
   4 C     6.0000    0    12.011   -1.398628   -2.317975    0.019884
   5 C     6.0000    0    12.011   -4.114282   -1.392405    0.386196
   6 C     6.0000    0    12.011   -4.031804    1.299803   -0.648718
   7 C     6.0000    0    12.011   -1.458431    2.215196    0.258540
   8 H     1.0000    0     1.008    5.234080   -2.126009   -2.003427
   9 H     1.0000    0     1.008    3.048937   -3.921465   -0.207888
  10 H     1.0000    0     1.008    5.554661   -2.272263    1.292276
  11 H     1.0000    0     1.008   -1.180242   -3.223966   -1.832287
  12 H     1.0000    0     1.008   -0.854080   -3.668716    1.486501
  13 H     1.0000    0     1.008   -5.476536   -2.587895   -0.584906
  14 H     1.0000    0     1.008   -4.582053   -1.355295    2.392760
  15 H     1.0000    0     1.008   -4.092148    1.272001   -2.708600
  16 H     1.0000    0     1.008   -5.572228    2.469799    0.045024
  17 H     1.0000    0     1.008   -0.626965    3.693701   -0.913889
  18 H     1.0000    0     1.008   -1.553347    2.913237    2.206822

--------------------------------
INTERNAL COORDINATES (ANGSTROEM)
--------------------------------
 C      0   0   0     0.000000000000     0.00000000     0.00000000
 C      1   0   0     1.514914289704     0.00000000     0.00000000
 O      2   1   0     1.217860455334   121.54452257     0.00000000
 N      2   1   3     1.349366963427   117.51923357   179.90768336
 C      4   2   1     1.451020082558   128.36339833   357.95811650
 C      5   4   2     1.530561812028   104.27600966   177.99707034
 C      6   5   4     1.526915354234   103.08009283    28.35271010
 C      4   2   1     1.455309710360   119.95787993   183.21510412
 H      1   2   3     1.088173613482   108.08290861   299.66970056
 H      1   2   3     1.083323585903   113.71949166   177.93502904
 H      1   2   3     1.087912077739   108.31939281    55.75955076
 H      5   4   2     1.097203547950   110.37171719   296.79866174
 H      5   4   2     1.093746689802   111.35611980    57.61925659
 H      6   5   4     1.088095863671   112.09662276   150.26964116
 H      6   5   4     1.090475631528   110.01179104   271.29186495
 H      7   6   5     1.090609145627   110.18525105    78.54915321
 H      7   6   5     1.087466101144   112.87368980   200.47143491
 H      8   4   2     1.091170927066   109.50614067    35.77451377
 H      8   4   2     1.096313452186   109.80617682   277.15953877

---------------------------
INTERNAL COORDINATES (A.U.)
---------------------------
 C      0   0   0     0.000000000000     0.00000000     0.00000000
 C      1   0   0     2.862773123905     0.00000000     0.00000000
 O      2   1   0     2.301422729914   121.54452257     0.00000000
 N      2   1   3     2.549934015038   117.51923357   179.90768336
 C      4   2   1     2.742030570854   128.36339833   357.95811650
 C      5   4   2     2.892342655772   104.27600966   177.99707034
 C      6   5   4     2.885451849182   103.08009283    28.35271010
 C      4   2   1     2.750136792617   119.95787993   183.21510412
 H      1   2   3     2.056350115641   108.08290861   299.66970056
 H      1   2   3     2.047184891774   113.71949166   177.93502904
 H      1   2   3     2.055855884712   108.31939281    55.75955076
 H      5   4   2     2.073414218792   110.37171719   296.79866174
 H      5   4   2     2.066881703609   111.35611980    57.61925659
 H      6   5   4     2.056203189791   112.09662276   150.26964116
 H      6   5   4     2.060700299302   110.01179104   271.29186495
 H      7   6   5     2.060952604385   110.18525105    78.54915321
 H      7   6   5     2.055013111086   112.87368980   200.47143491
 H      8   4   2     2.062014217452   109.50614067    35.77451377
 H      8   4   2     2.071732181565   109.80617682   277.15953877

---------------------
BASIS SET INFORMATION
---------------------
There are 4 groups of distinct atoms

 Group   1 Type C   : 7s4p1d contracted to 3s2p1d pattern {511/31/1}
 Group   2 Type O   : 7s4p1d contracted to 3s2p1d pattern {511/31/1}
 Group   3 Type N   : 7s4p1d contracted to 3s2p1d pattern {511/31/1}
 Group   4 Type H   : 4s contracted to 2s pattern {31}

Atom   0C    basis set group =>   1
Atom   1C    basis set group =>   1
Atom   2O    basis set group =>   2
Atom   3N    basis set group =>   3
Atom   4C    basis set group =>   1
Atom   5C    basis set group =>   1
Atom   6C    basis set group =>   1
Atom   7C    basis set group =>   1
Atom   8H    basis set group =>   4
Atom   9H    basis set group =>   4
Atom  10H    basis set group =>   4
Atom  11H    basis set group =>   4
Atom  12H    basis set group =>   4
Atom  13H    basis set group =>   4
Atom  14H    basis set group =>   4
Atom  15H    basis set group =>   4
Atom  16H    basis set group =>   4
Atom  17H    basis set group =>   4
Atom  18H    basis set group =>   4
---------------------------------
AUXILIARY/J BASIS SET INFORMATION
---------------------------------
There are 4 groups of distinct atoms

 Group   1 Type C   : 12s5p4d2f1g contracted to 6s4p3d1f1g pattern {711111/2111/211/2/1}
 Group   2 Type O   : 12s5p4d2f1g contracted to 6s4p3d1f1g pattern {711111/2111/211/2/1}
 Group   3 Type N   : 12s5p4d2f1g contracted to 6s4p3d1f1g pattern {711111/2111/211/2/1}
 Group   4 Type H   : 5s2p1d contracted to 3s1p1d pattern {311/2/1}

Atom   0C    basis set group =>   1
Atom   1C    basis set group =>   1
Atom   2O    basis set group =>   2
Atom   3N    basis set group =>   3
Atom   4C    basis set group =>   1
Atom   5C    basis set group =>   1
Atom   6C    basis set group =>   1
Atom   7C    basis set group =>   1
Atom   8H    basis set group =>   4
Atom   9H    basis set group =>   4
Atom  10H    basis set group =>   4
Atom  11H    basis set group =>   4
Atom  12H    basis set group =>   4
Atom  13H    basis set group =>   4
Atom  14H    basis set group =>   4
Atom  15H    basis set group =>   4
Atom  16H    basis set group =>   4
Atom  17H    basis set group =>   4
Atom  18H    basis set group =>   4

Checking for AutoStart:
The File: sp.gbw exists
Trying to determine its content:
     ... Fine, the file contains calculation information
     ... Fine, the calculation information was read
     ... Fine, the file contains a basis set
     ... Fine, the basis set was read
     ... Fine, the file contains a geometry
     ... Fine, the geometry was read
     ... Fine, the file contains a set of orbitals
     ... Fine, the orbitals can be read
     => possible old guess file was deleted
     => GBW file was renamed to GES file
     => GES file is set as startup file
     => Guess is set to MORead
     ... now leaving AutoStart

------------------------------------------------------------------------------
                             ORCA STARTUP CALCULATIONS
                           -- RI-GTO INTEGRALS CHOSEN --
------------------------------------------------------------------------------
------------------------------------------------------------------------------
                   ___                                                        
                  /   \      - P O W E R E D   B Y -                         
                 /     \                                                     
                 |  |  |   _    _      __       _____    __    __             
                 |  |  |  | |  | |    /  \     |  _  \  |  |  /  |          
                  \  \/   | |  | |   /    \    | | | |  |  | /  /          
                 / \  \   | |__| |  /  /\  \   | |_| |  |  |/  /          
                |  |  |   |  __  | /  /__\  \  |    /   |      \           
                |  |  |   | |  | | |   __   |  |    \   |  |\   \          
                \     /   | |  | | |  |  |  |  | |\  \  |  | \   \       
                 \___/    |_|  |_| |__|  |__|  |_| \__\ |__|  \__/        
                                                                              
                      - O R C A' S   B I G   F R I E N D -                    
                                      &                                       
                       - I N T E G R A L  F E E D E R -                       
                                                                              
 v1 FN, 2020, v2 2021, v3 2022-2024                                           
------------------------------------------------------------------------------


----------------------
SHARK INTEGRAL PACKAGE
----------------------

Number of atoms                             ...     19
Number of basis functions                   ...    134
Number of shells                            ...     70
Maximum angular momentum                    ...      2
Integral batch strategy                     ... SHARK/LIBINT Hybrid
RI-J (if used) integral strategy            ... SPLIT-RIJ (Revised 2003 algorithm where possible)
Printlevel                                  ...      1
Contraction scheme used                     ... SEGMENTED contraction
Prescreening option                         ... SCHWARTZ
   Thresh                                   ... 1.000e-09
   Tcut                                     ... 1.000e-10
   Tpresel                                  ... 1.000e-10 
Coulomb Range Separation                    ... NOT USED
Exchange Range Separation                   ... NOT USED
Multipole approximations                    ... NOT USED
Finite Nucleus Model                        ... NOT USED
CABS basis                                  ... NOT available
Auxiliary Coulomb fitting basis             ... AVAILABLE
   # of basis functions in Aux-J            ...    513
   # of shells in Aux-J                     ...    175
   Maximum angular momentum in Aux-J        ...      4
Auxiliary J/K fitting basis                 ... NOT available
Auxiliary Correlation fitting basis         ... NOT available
Auxiliary 'external' fitting basis          ... NOT available

Checking pre-screening integrals            ... done (  0.0 sec) Dimension = 70
Check shell pair data                       ... done (  0.0 sec)
Shell pair information
Shell pair cut-off parameter TPreSel        ...   1.0e-10
Total number of shell pairs                 ...      2485
Shell pairs after pre-screening             ...      2370
Total number of primitive shell pairs       ...     10007
Primitive shell pairs kept                  ...      6780
          la=0 lb=0:   1015 shell pairs
          la=1 lb=0:    718 shell pairs
          la=1 lb=1:    135 shell pairs
          la=2 lb=0:    342 shell pairs
          la=2 lb=1:    126 shell pairs
          la=2 lb=2:     34 shell pairs

Calculating one electron integrals          ... done (  0.0 sec)
Calculating RI/J V-Matrix + Cholesky decomp.... done (  0.0 sec)
Calculating Nuclear repulsion               ... done (  0.0 sec) ENN=    394.614406779103 Eh

Diagonalization of the overlap matrix:
Smallest eigenvalue                        ... 1.748e-03
Time for diagonalization                   ...    0.001 sec
Threshold for overlap eigenvalues          ... 1.000e-07
Number of eigenvalues below threshold      ... 0
Time for construction of square roots      ...    0.000 sec
Total time needed                          ...    0.002 sec

-------------------
DFT GRID GENERATION
-------------------

General Integration Accuracy     IntAcc      ... 4.159
Radial Grid Type                 RadialGrid  ... OptM3 with GC (2021)
Angular Grid (max. ang.)         AngularGrid ... 3 (Lebedev-194)
Angular grid pruning method      GridPruning ... 4 (adaptive)
Weight generation scheme         WeightScheme... mBecke (2022)
Basis function cutoff            BFCut       ... 1.0000e-10
Integration weight cutoff        WCut        ... 1.0000e-14
Partially contracted basis set               ... off
Rotationally invariant grid construction     ... off
Angular grids for H and He will be reduced by one unit

Total number of grid points                  ...    41411
Total number of batches                      ...      659
Average number of points per batch           ...       62
Average number of grid points per atom       ...     2180
Initializing property integral containers    ... done (  0.0 sec)

SHARK setup successfully completed in   0.2 seconds

Maximum memory used throughout the entire STARTUP-calculation: 21.1 MB
-------------------------------------------------------------------------------
                                 ORCA GUESS
                   Start orbitals & Density for SCF / CASSCF
-------------------------------------------------------------------------------

------------
SCF SETTINGS
------------
Hamiltonian:
 Density Functional     Method          .... DFT(GTOs)
 Exchange Functional    Exchange        .... PBE
   PBE kappa parameter   XKappa         ....  0.804000
   PBE mue parameter    XMuePBE         ....  0.219520
 Correlation Functional Correlation     .... PBE
   PBE beta parameter  CBetaPBE         ....  0.066725
 LDA part of GGA corr.  LDAOpt          .... PW91-LDA
 Gradients option       PostSCFGGA      .... off
   NL short-range parameter             ....  6.400000
 RI-approximation to the Coulomb term is turned on
   Number of AuxJ basis functions       .... 513


General Settings:
 Integral files         IntName         .... sp
 Hartree-Fock type      HFTyp           .... RHF
 Total Charge           Charge          ....    0
 Multiplicity           Mult            ....    1
 Number of Electrons    NEL             ....   62
 Basis Dimension        Dim             ....  134
 Nuclear Repulsion      ENuc            ....    394.6144067791 Eh

Convergence Acceleration:
 AO-DIIS                CNVDIIS         .... on
   Start iteration      DIISMaxIt       ....    12
   Startup error        DIISStart       ....  0.200000
   # of expansion vecs  DIISMaxEq       ....     5
   Bias factor          DIISBfac        ....   1.050
   Max. coefficient     DIISMaxC        ....  10.000
 MO-DIIS                CNVKDIIS        .... off
 Trust-Rad. Augm. Hess. CNVTRAH         .... auto
   Auto Start mean grad. ratio tolernc. ....  1.125000
   Auto Start start iteration           ....     1
   Auto Start num. interpolation iter.  ....    10
   Max. Number of Micro iterations      ....    24
   Max. Number of Macro iterations      .... Maxiter - #DIIS iter
   Number of Davidson start vectors     ....     2
   Converg. threshold    (grad. norm)   ....   1.000e-04
   Grad. Scal. Fac. for Micro threshold ....   0.100
   Minimum threshold for Micro iter.    ....   1.000e-02
   NR start threshold (gradient norm)   ....   1.000e-04
   Initial trust radius                 ....   0.400
   Minimum AH scaling param. (alpha)    ....   1.000
   Maximum AH scaling param. (alpha)    .... 1000.000
   Quad. conv. algorithm                .... NR
   White noise on init. David. guess    .... on
   Maximum white noise                  ....   0.010
   Pseudo random numbers                .... off
   Inactive MOs                         .... canonical
   Orbital update algorithm             .... Taylor
   Preconditioner                       .... Diag
   Full preconditioner red. dimension   ....   250
 SOSCF                  CNVSOSCF        .... on
   Start iteration      SOSCFMaxIt      ....   150
   Startup grad/error   SOSCFStart      ....  0.003300
   Hessian update       SOSCFHessUp     .... L-BFGS
 Level Shifting         CNVShift        .... on
   Level shift para.    LevelShift      ....    0.2500
   Turn off err/grad.   ShiftErr        ....    0.0010
 Zerner damping         CNVZerner       .... off
 Static damping         CNVDamp         .... on
   Fraction old density DampFac         ....    0.7000
   Max. Damping (<1)    DampMax         ....    0.9800
   Min. Damping (>=0)   DampMin         ....    0.0000
   Turn off err/grad.   DampErr         ....    0.1000

SCF Procedure:
 Maximum # iterations   MaxIter         ....   125
 SCF integral mode      SCFMode         .... Direct
   Integral package                     .... SHARK and LIBINT hybrid scheme
 Reset frequency        DirectResetFreq ....    20
 Integral Threshold     Thresh          ....  1.000e-09 Eh
 Primitive CutOff       TCut            ....  1.000e-10 Eh

Convergence Tolerance:
 Convergence Check Mode ConvCheckMode   .... Total+1el-Energy
 Convergence forced     ConvForced      .... 0
 Energy Change          TolE            ....  1.000e-05 Eh
 1-El. energy change                    ....  1.000e-02 Eh
 Orbital Gradient       TolG            ....  1.000e-04
 Orbital Rotation angle TolX            ....  1.000e-04
 DIIS Error             TolErr          ....  5.000e-04

---------------------
INITIAL GUESS: MOREAD
---------------------
Guess MOs are being read from file: sp.ges
Input Geometry matches current geometry (good)
Input basis set matches current basis set (good)
Occupation numbers will be reassigned to an Aufbau configuration
MOs were renormalized
MOs were reorthogonalized (Cholesky)
                      ------------------
                      INITIAL GUESS DONE (   0.0 sec)
                      ------------------
             **** ENERGY FILE WAS UPDATED (sp.en.tmp) ****
Finished Guess after   0.0 sec
Maximum memory used throughout the entire GUESS-calculation: 10.1 MB

-------------------------------------------------------------------------------------------
                                      ORCA LEAN-SCF
                              memory conserving SCF solver
-------------------------------------------------------------------------------------------

----------------------------------------D-I-I-S--------------------------------------------
Iteration    Energy (Eh)           Delta-E    RMSDP     MaxDP     DIISErr   Damp  Time(sec)
-------------------------------------------------------------------------------------------
               ***  Starting incremental Fock matrix formation  ***
                              *** Initializing SOSCF ***
---------------------------------------S-O-S-C-F--------------------------------------
Iteration    Energy (Eh)           Delta-E    RMSDP     MaxDP     MaxGrad    Time(sec)
--------------------------------------------------------------------------------------
    1    -364.4979394441177192     0.00e+00  1.27e-05  2.64e-04  2.91e-05     0.3
               *** Restarting incremental Fock matrix formation ***
    2    -364.4979394582315990    -1.41e-08  1.53e-05  3.91e-04  5.03e-05     0.3
    3    -364.4979391612808968     2.97e-07  1.11e-05  2.54e-04  1.31e-04     0.2
                 **** Energy Check signals convergence ****

               *****************************************************
               *                     SUCCESS                       *
               *           SCF CONVERGED AFTER   3 CYCLES          *
               *****************************************************

             **** ENERGY FILE WAS UPDATED (sp.en.tmp) ****

----------------
TOTAL SCF ENERGY
----------------

Total Energy       :       -364.49793916128090 Eh           -9918.49317 eV

Components:
Nuclear Repulsion  :        394.61440677910309 Eh           10738.00392 eV
Electronic Energy  :       -759.11234594038399 Eh          -20656.49709 eV
One Electron Energy:      -1275.78392690409328 Eh          -34715.84557 eV
Two Electron Energy:        516.67158096370929 Eh           14059.34848 eV

Virial components:
Potential Energy   :       -725.93481513959432 Eh          -19753.69058 eV
Kinetic Energy     :        361.43687597831337 Eh            9835.19741 eV
Virial Ratio       :          2.00846915017922

DFT components:
N(Alpha)           :       30.999842383605 electrons
N(Beta)            :       30.999842383605 electrons
N(Total)           :       61.999684767209 electrons
E(X)               :      -49.680564531131 Eh       
E(C)               :       -2.075393335395 Eh       
E(XC)              :      -51.755957866527 Eh       

---------------
SCF CONVERGENCE
---------------

  Last Energy change         ...   -2.9695e-07  Tolerance :   1.0000e-05
  Last MAX-Density change    ...    2.5405e-04  Tolerance :   1.0000e-03
  Last RMS-Density change    ...    1.1115e-05  Tolerance :   1.0000e-04
  Last DIIS Error            ...    1.7105e-04  Tolerance :   5.0000e-04
  Last Orbital Gradient      ...    1.3109e-04  Tolerance :   1.0000e-04
  Last Orbital Rotation      ...    1.4824e-04  Tolerance :   1.0000e-04


----------------
ORBITAL ENERGIES
----------------

  NO   OCC          E(Eh)            E(eV) 
   0   2.0000     -18.699275      -508.8331 
   1   2.0000     -14.015689      -381.3863 
   2   2.0000      -9.967502      -271.2295 
   3   2.0000      -9.931085      -270.2386 
   4   2.0000      -9.916309      -269.8365 
   5   2.0000      -9.902578      -269.4628 
   6   2.0000      -9.898035      -269.3392 
   7   2.0000      -9.880958      -268.8745 
   8   2.0000      -0.925895       -25.1949 
   9   2.0000      -0.853973       -23.2378 
  10   2.0000      -0.723383       -19.6842 
  11   2.0000      -0.675617       -18.3845 
  12   2.0000      -0.647946       -17.6315 
  13   2.0000      -0.574327       -15.6282 
  14   2.0000      -0.537782       -14.6338 
  15   2.0000      -0.496925       -13.5220 
  16   2.0000      -0.462882       -12.5957 
  17   2.0000      -0.424738       -11.5577 
  18   2.0000      -0.401136       -10.9155 
  19   2.0000      -0.391382       -10.6500 
  20   2.0000      -0.384888       -10.4733 
  21   2.0000      -0.376991       -10.2585 
  22   2.0000      -0.359697        -9.7879 
  23   2.0000      -0.345585        -9.4039 
  24   2.0000      -0.324198        -8.8219 
  25   2.0000      -0.317114        -8.6291 
  26   2.0000      -0.313932        -8.5425 
  27   2.0000      -0.303663        -8.2631 
  28   2.0000      -0.293471        -7.9858 
  29   2.0000      -0.196289        -5.3413 
  30   2.0000      -0.186682        -5.0799 
  31   0.0000      -0.000811        -0.0221 
  32   0.0000       0.022734         0.6186 
  33   0.0000       0.056687         1.5425 
  34   0.0000       0.059127         1.6089 
  35   0.0000       0.078077         2.1246 
  36   0.0000       0.092984         2.5302 
  37   0.0000       0.102093         2.7781 
  38   0.0000       0.104140         2.8338 
  39   0.0000       0.118214         3.2168 
  40   0.0000       0.122281         3.3274 
  41   0.0000       0.129569         3.5257 
*Only the first 10 virtual orbitals were printed.

                    ********************************
                    * MULLIKEN POPULATION ANALYSIS *
                    ********************************

-----------------------
MULLIKEN ATOMIC CHARGES
-----------------------
   0 C :   -0.274938
   1 C :    0.050221
   2 O :   -0.240118
   3 N :   -0.269515
   4 C :   -0.035470
   5 C :   -0.191416
   6 C :   -0.189141
   7 C :   -0.016334
   8 H :    0.126078
   9 H :    0.104817
  10 H :    0.126355
  11 H :    0.098041
  12 H :    0.106158
  13 H :    0.101909
  14 H :    0.097134
  15 H :    0.097516
  16 H :    0.101833
  17 H :    0.112415
  18 H :    0.094456
Sum of atomic charges:   -0.0000000

--------------------------------
MULLIKEN REDUCED ORBITAL CHARGES
--------------------------------
  0 C s       :     3.042558  s :     3.042558
      pz      :     1.098211  p :     3.206670
      px      :     1.080503
      py      :     1.027957
      dz2     :     0.005437  d :     0.025710
      dxz     :     0.007696
      dyz     :     0.001717
      dx2y2   :     0.003881
      dxy     :     0.006980

  1 C s       :     3.063598  s :     3.063598
      pz      :     0.885570  p :     2.771419
      px      :     0.928360
      py      :     0.957489
      dz2     :     0.005859  d :     0.114762
      dxz     :     0.018203
      dyz     :     0.017292
      dx2y2   :     0.041431
      dxy     :     0.031977

  2 O s       :     3.746154  s :     3.746154
      pz      :     1.420882  p :     4.476859
      px      :     1.669586
      py      :     1.386391
      dz2     :     0.001932  d :     0.017104
      dxz     :     0.001137
      dyz     :     0.004247
      dx2y2   :     0.004573
      dxy     :     0.005215

  3 N s       :     3.416289  s :     3.416289
      pz      :     1.618077  p :     3.827184
      px      :     1.100850
      py      :     1.108258
      dz2     :     0.002479  d :     0.026041
      dxz     :     0.004066
      dyz     :     0.003579
      dx2y2   :     0.007969
      dxy     :     0.007950

  4 C s       :     3.029986  s :     3.029986
      pz      :     1.051851  p :     2.955561
      px      :     0.977460
      py      :     0.926250
      dz2     :     0.007952  d :     0.049923
      dxz     :     0.006201
      dyz     :     0.014888
      dx2y2   :     0.008101
      dxy     :     0.012781

  5 C s       :     3.063537  s :     3.063537
      pz      :     1.056116  p :     3.092267
      px      :     1.030446
      py      :     1.005705
      dz2     :     0.009563  d :     0.035612
      dxz     :     0.005551
      dyz     :     0.005344
      dx2y2   :     0.006060
      dxy     :     0.009095

  6 C s       :     3.072133  s :     3.072133
      pz      :     1.049677  p :     3.081276
      px      :     1.035805
      py      :     0.995794
      dz2     :     0.011153  d :     0.035733
      dxz     :     0.004374
      dyz     :     0.004816
      dx2y2   :     0.006165
      dxy     :     0.009225

  7 C s       :     3.035865  s :     3.035865
      pz      :     1.063395  p :     2.931121
      px      :     0.941692
      py      :     0.926034
      dz2     :     0.009810  d :     0.049348
      dxz     :     0.006462
      dyz     :     0.011534
      dx2y2   :     0.007710
      dxy     :     0.013831

  8 H s       :     0.873922  s :     0.873922

  9 H s       :     0.895183  s :     0.895183

 10 H s       :     0.873645  s :     0.873645

 11 H s       :     0.901959  s :     0.901959

 12 H s       :     0.893842  s :     0.893842

 13 H s       :     0.898091  s :     0.898091

 14 H s       :     0.902866  s :     0.902866

 15 H s       :     0.902484  s :     0.902484

 16 H s       :     0.898167  s :     0.898167

 17 H s       :     0.887585  s :     0.887585

 18 H s       :     0.905544  s :     0.905544


------------------------
MULLIKEN OVERLAP CHARGES
------------------------
B(  0-C ,  1-C ) :   0.7416 B(  0-C ,  2-O ) :  -0.1832 B(  0-C ,  3-N ) :  -0.3169 
B(  0-C ,  8-H ) :   0.6762 B(  0-C ,  9-H ) :   0.6283 B(  0-C , 10-H ) :   0.6797 
B(  1-C ,  2-O ) :   1.4446 B(  1-C ,  3-N ) :   0.6041 B(  1-C ,  7-C ) :  -0.0760 
B(  2-O ,  3-N ) :  -0.2317 B(  3-N ,  4-C ) :   0.6744 B(  3-N ,  5-C ) :  -0.0993 
B(  3-N ,  6-C ) :  -0.1080 B(  3-N ,  7-C ) :   0.7040 B(  3-N , 11-H ) :  -0.0784 
B(  3-N , 12-H ) :  -0.0541 B(  3-N , 17-H ) :  -0.0703 B(  3-N , 18-H ) :  -0.0758 
B(  4-C ,  5-C ) :   0.8089 B(  4-C ,  6-C ) :  -0.1646 B(  4-C ,  7-C ) :  -0.2181 
B(  4-C , 11-H ) :   0.7272 B(  4-C , 12-H ) :   0.7097 B(  5-C ,  6-C ) :   0.8261 
B(  5-C ,  7-C ) :  -0.1406 B(  5-C , 13-H ) :   0.6873 B(  5-C , 14-H ) :   0.6907 
B(  5-C , 15-H ) :  -0.0622 B(  6-C ,  7-C ) :   0.7865 B(  6-C , 14-H ) :  -0.0579 
B(  6-C , 15-H ) :   0.7005 B(  6-C , 16-H ) :   0.7029 B(  7-C , 17-H ) :   0.7090 
B(  7-C , 18-H ) :   0.7435 B( 11-H , 12-H ) :  -0.0964 B( 13-H , 14-H ) :  -0.0593 
B( 15-H , 16-H ) :  -0.0605 B( 17-H , 18-H ) :  -0.0791 


                     *******************************
                     * LOEWDIN POPULATION ANALYSIS *
                     *******************************

----------------------
LOEWDIN ATOMIC CHARGES
----------------------
   0 C :   -0.365363
   1 C :    0.009347
   2 O :   -0.207563
   3 N :   -0.056295
   4 C :   -0.148242
   5 C :   -0.229483
   6 C :   -0.231669
   7 C :   -0.142266
   8 H :    0.143730
   9 H :    0.120352
  10 H :    0.143462
  11 H :    0.112247
  12 H :    0.117071
  13 H :    0.124092
  14 H :    0.123591
  15 H :    0.122594
  16 H :    0.124727
  17 H :    0.125798
  18 H :    0.113871

-------------------------------
LOEWDIN REDUCED ORBITAL CHARGES
-------------------------------
  0 C s       :     2.953796  s :     2.953796
      pz      :     1.138927  p :     3.345464
      px      :     1.120087
      py      :     1.086450
      dz2     :     0.014248  d :     0.066103
      dxz     :     0.018868
      dyz     :     0.003480
      dx2y2   :     0.010184
      dxy     :     0.019323

  1 C s       :     2.837230  s :     2.837230
      pz      :     0.872524  p :     2.884146
      px      :     0.973940
      py      :     1.037681
      dz2     :     0.014430  d :     0.269278
      dxz     :     0.037327
      dyz     :     0.032733
      dx2y2   :     0.105218
      dxy     :     0.079570

  2 O s       :     3.549365  s :     3.549365
      pz      :     1.426366  p :     4.627771
      px      :     1.695610
      py      :     1.505795
      dz2     :     0.004215  d :     0.030427
      dxz     :     0.001530
      dyz     :     0.005617
      dx2y2   :     0.008682
      dxy     :     0.010382

  3 N s       :     3.084182  s :     3.084182
      pz      :     1.566922  p :     3.906477
      px      :     1.175135
      py      :     1.164419
      dz2     :     0.005320  d :     0.065636
      dxz     :     0.008057
      dyz     :     0.006020
      dx2y2   :     0.021565
      dxy     :     0.024674

  4 C s       :     2.906136  s :     2.906136
      pz      :     1.116879  p :     3.125691
      px      :     1.019216
      py      :     0.989596
      dz2     :     0.018368  d :     0.116416
      dxz     :     0.011539
      dyz     :     0.036117
      dx2y2   :     0.019818
      dxy     :     0.030574

  5 C s       :     2.911615  s :     2.911615
      pz      :     1.109622  p :     3.231131
      px      :     1.058365
      py      :     1.063144
      dz2     :     0.022558  d :     0.086737
      dxz     :     0.012336
      dyz     :     0.012179
      dx2y2   :     0.018693
      dxy     :     0.020971

  6 C s       :     2.910341  s :     2.910341
      pz      :     1.103732  p :     3.233751
      px      :     1.071034
      py      :     1.058986
      dz2     :     0.026656  d :     0.087577
      dxz     :     0.009841
      dyz     :     0.011162
      dx2y2   :     0.018506
      dxy     :     0.021411

  7 C s       :     2.904513  s :     2.904513
      pz      :     1.121670  p :     3.122451
      px      :     1.005462
      py      :     0.995320
      dz2     :     0.022098  d :     0.115301
      dxz     :     0.013970
      dyz     :     0.027901
      dx2y2   :     0.017646
      dxy     :     0.033686

  8 H s       :     0.856270  s :     0.856270

  9 H s       :     0.879648  s :     0.879648

 10 H s       :     0.856538  s :     0.856538

 11 H s       :     0.887753  s :     0.887753

 12 H s       :     0.882929  s :     0.882929

 13 H s       :     0.875908  s :     0.875908

 14 H s       :     0.876409  s :     0.876409

 15 H s       :     0.877406  s :     0.877406

 16 H s       :     0.875273  s :     0.875273

 17 H s       :     0.874202  s :     0.874202

 18 H s       :     0.886129  s :     0.886129


---------------------------------
LOEWDIN BOND ORDERS (THRESH 0.050000)
---------------------------------
B(  0-C ,  1-C ) :   1.0810 B(  0-C ,  2-O ) :   0.1060 B(  0-C ,  3-N ) :   0.0667 
B(  0-C ,  8-H ) :   0.9204 B(  0-C ,  9-H ) :   0.9258 B(  0-C , 10-H ) :   0.9213 
B(  1-C ,  2-O ) :   2.1162 B(  1-C ,  3-N ) :   1.3548 B(  1-C ,  4-C ) :   0.0655 
B(  1-C ,  7-C ) :   0.0727 B(  2-O ,  3-N ) :   0.2227 B(  3-N ,  4-C ) :   1.0544 
B(  3-N ,  5-C ) :   0.0574 B(  3-N ,  6-C ) :   0.0597 B(  3-N ,  7-C ) :   1.0393 
B(  4-C ,  5-C ) :   1.0819 B(  4-C ,  6-C ) :   0.0615 B(  4-C ,  7-C ) :   0.0601 
B(  4-C , 11-H ) :   0.9073 B(  4-C , 12-H ) :   0.9088 B(  5-C ,  6-C ) :   1.0859 
B(  5-C ,  7-C ) :   0.0660 B(  5-C , 13-H ) :   0.9101 B(  5-C , 14-H ) :   0.9070 
B(  6-C ,  7-C ) :   1.0883 B(  6-C , 15-H ) :   0.9068 B(  6-C , 16-H ) :   0.9092 
B(  7-C , 17-H ) :   0.9036 B(  7-C , 18-H ) :   0.9068 

------------------------------------------
LOEWDIN REDUCED ORBITAL POPULATIONS PER MO
-------------------------------------------
THRESHOLD FOR PRINTING IS 0.1%%
                      0         1         2         3         4         5   
                 -18.69928 -14.01569  -9.96750  -9.93109  -9.91631  -9.90258
                   2.00000   2.00000   2.00000   2.00000   2.00000   2.00000
                  --------  --------  --------  --------  --------  --------
 1 C  s               0.0       0.0      99.3       0.0       0.0       0.0
 2 O  s              99.9       0.0       0.0       0.0       0.0       0.0
 2 O  py              0.0       0.0       0.2       0.0       0.0       0.0
 3 N  s               0.0      99.7       0.0       0.0       0.0       0.0
 3 N  px              0.0       0.0       0.2       0.0       0.0       0.0
 4 C  s               0.0       0.0       0.0      99.6       0.0       0.0
 5 C  s               0.0       0.0       0.0       0.0       0.0      99.6
 7 C  s               0.0       0.0       0.0       0.0      99.6       0.0

                      6         7         8         9        10        11   
                  -9.89804  -9.88096  -0.92589  -0.85397  -0.72338  -0.67562
                   2.00000   2.00000   2.00000   2.00000   2.00000   2.00000
                  --------  --------  --------  --------  --------  --------
 0 C  s               0.0      99.7       1.5       0.0       2.0       6.8
 0 C  px              0.0       0.0       0.5       0.1       0.4       0.1
 0 C  py              0.0       0.0       1.6       0.1       0.1       0.0
 1 C  s               0.0       0.0      23.0       0.3       2.8       0.7
 1 C  px              0.0       0.0       0.1      10.2       4.7       1.8
 1 C  py              0.0       0.1       6.0       5.4       4.1       3.1
 1 C  dz2             0.0       0.0       0.6       0.0       0.0       0.0
 1 C  dx2y2           0.0       0.0       0.1       0.7       0.3       0.0
 1 C  dxy             0.0       0.0       0.5       0.2       0.1       0.0
 2 O  s               0.0       0.0      34.4      15.7       3.4       0.0
 2 O  px              0.0       0.0       1.4       0.1       0.1       0.2
 2 O  py              0.0       0.0       4.3       1.2       0.2       0.1
 2 O  dxy             0.0       0.0       0.1       0.0       0.0       0.0
 3 N  s               0.0       0.0      13.3      24.1       7.2       0.7
 3 N  px              0.0       0.0       1.2       2.2       6.5       0.1
 3 N  py              0.0       0.0       0.2       0.2       0.2      13.9
 3 N  dxy             0.0       0.0       0.0       0.0       0.0       0.2
 4 C  s               0.0       0.0       1.7       9.1       1.3      15.4
 4 C  px              0.0       0.0       0.4       0.3       6.5       0.3
 4 C  py              0.0       0.0       1.1       3.6       0.0       0.5
 4 C  dxy             0.0       0.0       0.0       0.1       0.2       0.0
 5 C  s               0.0       0.0       0.3       3.2      16.7       7.1
 5 C  pz              0.0       0.0       0.0       0.1       0.2       0.0
 5 C  px              0.0       0.0       0.3       1.6       0.1       1.0
 5 C  py              0.1       0.0       0.0       0.2       1.4       2.2
 6 C  s              99.6       0.0       0.3       2.9      17.1       1.5
 6 C  pz              0.0       0.0       0.0       0.2       0.4       0.0
 6 C  px              0.0       0.0       0.3       1.3       0.1       1.6
 6 C  py              0.0       0.0       0.0       0.3       1.3       3.0
 6 C  dx2y2           0.0       0.0       0.0       0.0       0.0       0.1
 7 C  s               0.0       0.0       2.2       7.0       2.5      15.2
 7 C  pz              0.0       0.0       0.0       0.0       0.1       0.0
 7 C  px              0.1       0.0       0.9       0.1       5.1       0.1
 7 C  py              0.0       0.0       1.1       3.5       0.0       0.2
 7 C  dxy             0.0       0.0       0.1       0.1       0.2       0.0
 8 H  s               0.0       0.1       0.2       0.0       0.3       1.4
 9 H  s               0.0       0.1       0.2       0.0       0.5       2.1
10 H  s               0.0       0.1       0.2       0.0       0.3       1.4
11 H  s               0.0       0.0       0.2       1.1       0.2       3.8
12 H  s               0.0       0.0       0.2       1.1       0.1       4.1
13 H  s               0.0       0.0       0.0       0.4       2.9       1.7
14 H  s               0.0       0.0       0.0       0.4       3.1       1.5
15 H  s               0.1       0.0       0.0       0.4       3.0       0.3
16 H  s               0.1       0.0       0.0       0.3       3.0       0.4
17 H  s               0.0       0.0       0.5       0.6       0.3       3.5
18 H  s               0.0       0.0       0.3       0.8       0.5       3.2

                     12        13        14        15        16        17   
                  -0.64795  -0.57433  -0.53778  -0.49693  -0.46288  -0.42474
                   2.00000   2.00000   2.00000   2.00000   2.00000   2.00000
                  --------  --------  --------  --------  --------  --------
 0 C  s              29.5       3.9       1.1       0.4       0.2       1.0
 0 C  pz              0.0       0.0       0.0       0.0       0.7       0.1
 0 C  px              0.0       1.2       0.6       1.3       0.5       2.7
 0 C  py              0.1       0.6       0.1       0.0       0.5      24.9
 0 C  dxy             0.0       0.1       0.0       0.0       0.0       0.5
 1 C  s               3.0       3.4       0.0       0.7       0.1       5.8
 1 C  pz              0.1       0.0       0.0       0.0       1.9       1.3
 1 C  px              2.0       9.5       0.0       1.6       0.3       5.6
 1 C  py              9.3       0.1       0.1       0.1       0.6       6.2
 1 C  dx2y2           0.0       0.3       0.0       0.0       0.0       0.0
 1 C  dxy             0.4       0.0       0.2       0.0       0.1       0.0
 2 O  s               1.9       1.3       0.3       0.4       0.0       2.9
 2 O  pz              0.0       0.0       0.0       0.0       0.4       0.4
 2 O  px              0.1       0.9       0.1       0.6       0.3       0.7
 2 O  py              0.3       0.1       0.0       0.0       0.1       7.2
 2 O  dx2y2           0.0       0.0       0.0       0.0       0.0       0.1
 3 N  s               1.0       0.7       0.0       2.6       0.0       0.9
 3 N  pz              0.0       0.0       0.7       0.0       7.9       1.6
 3 N  px              1.5      21.1       0.1      10.5       0.0       0.0
 3 N  py              1.1       0.1      10.5       0.2       5.0       1.3
 3 N  dx2y2           0.0       0.3       0.0       0.0       0.0       0.1
 3 N  dxy             0.1       0.0       0.1       0.0       0.0       0.0
 4 C  s               5.6       4.8       1.3       4.4       0.0       0.0
 4 C  pz              0.0       0.0       1.1       0.0      14.1       2.0
 4 C  px              0.1       0.9       7.5       0.0       2.5       1.3
 4 C  py              0.1       0.1       0.1      19.5       0.3       1.6
 4 C  dz2             0.0       0.0       0.0       0.3       0.0       0.0
 4 C  dx2y2           0.0       0.2       0.1       0.1       0.0       0.0
 5 C  s               0.0       7.3       9.5       0.1       0.0       0.1
 5 C  pz              0.1       0.0       2.7       0.0      12.6       0.2
 5 C  px              1.2       5.6       0.7       0.1       0.0       1.6
 5 C  py              2.2       0.3       4.1       4.3       2.3       0.0
 5 C  dx2y2           0.1       0.1       0.0       0.0       0.0       0.0
 6 C  s               7.5       2.8      11.8       0.1       0.1       0.5
 6 C  pz              0.0       0.0       3.0       0.0      10.6       0.5
 6 C  px              0.0       5.3       0.9       0.0       0.8       6.2
 6 C  py              0.3       1.8       3.2       4.5       1.9       0.3
 6 C  dx2y2           0.0       0.1       0.0       0.0       0.0       0.0
 7 C  s               2.4       6.2       2.2       5.3       0.0       0.8
 7 C  pz              0.1       0.1       2.0       0.1       9.6       0.0
 7 C  px              1.7       0.0       6.4       0.0       3.7       2.3
 7 C  py              0.3       0.1       0.1      15.1       0.2       0.4
 7 C  dz2             0.0       0.0       0.0       0.2       0.0       0.0
 7 C  dx2y2           0.1       0.1       0.1       0.1       0.0       0.0
 7 C  dxy             0.1       0.0       0.1       0.1       0.0       0.1
 8 H  s               7.0       1.7       0.5       0.5       0.7       1.0
 9 H  s               6.5       1.4       0.1       0.0       0.1       8.0
10 H  s               7.0       1.7       0.6       0.5       0.1       2.4
11 H  s               1.1       1.4       1.3       5.7       4.2       0.1
12 H  s               1.2       1.6       0.4       7.5       2.0       2.4
13 H  s               0.0       3.7       4.7       0.4       2.4       0.1
14 H  s               0.0       2.6       6.1       0.0       3.3       0.1
15 H  s               1.7       1.0       7.0       0.0       2.7       0.9
16 H  s               2.1       1.5       5.9       0.5       2.3       2.7
17 H  s               0.5       1.5       0.8       7.0       1.2       0.2
18 H  s               0.6       2.0       1.6       4.7       3.4       0.4

                     18        19        20        21        22        23   
                  -0.40114  -0.39138  -0.38489  -0.37699  -0.35970  -0.34559
                   2.00000   2.00000   2.00000   2.00000   2.00000   2.00000
                  --------  --------  --------  --------  --------  --------
 0 C  pz             10.8       6.4       5.3       4.5      17.1       0.9
 0 C  px              1.3       0.0       0.3      11.5       6.4      20.6
 0 C  py              1.8       0.1       0.6       9.5       0.1       0.2
 0 C  dz2             0.0       0.0       0.0       0.1       0.0       0.3
 0 C  dxz             0.1       0.0       0.0       0.0       0.3       0.0
 0 C  dx2y2           0.0       0.0       0.0       0.0       0.0       0.2
 1 C  s               0.9       0.1       0.4       0.0       0.0       0.1
 1 C  pz              9.9       5.9       1.4       1.3       0.6       0.1
 1 C  px              0.4       0.0       1.5       2.6       0.0       5.6
 1 C  py              0.1       0.1       2.2       0.2       0.5       0.7
 1 C  dxz             0.0       0.0       0.0       0.0       0.2       0.0
 1 C  dx2y2           0.0       0.0       0.0       0.2       0.1       0.2
 1 C  dxy             0.2       0.0       0.1       0.1       0.0       0.0
 2 O  s               2.8       0.2       1.7       1.6       0.3       0.5
 2 O  pz              3.1       2.7       0.5       0.6       0.2       0.1
 2 O  px              0.4       0.3       3.4       0.1       0.3       0.4
 2 O  py              4.5       0.1       1.8       3.4       0.5       4.2
 3 N  s               0.1       0.0       0.4       1.3       0.1       0.0
 3 N  pz              7.9       2.0       0.1       0.2       6.3       0.2
 3 N  px              0.0       0.0       1.5       2.9       0.0       6.1
 3 N  py              5.3       0.6       7.7       0.6       0.1       5.7
 3 N  dyz             0.0       0.2       0.0       0.0       0.0       0.0
 3 N  dx2y2           0.0       0.0       0.1       0.2       0.0       0.1
 3 N  dxy             0.0       0.0       0.0       0.0       0.0       0.3
 4 C  s               0.2       0.0       0.3       0.2       0.1       0.3
 4 C  pz              6.1      14.0       2.9       0.0       5.9       0.2
 4 C  px              3.9       0.3       3.5       1.3       0.1       3.7
 4 C  py              2.0       0.3       4.0       0.5       0.0       4.9
 4 C  dz2             0.0       0.0       0.1       0.0       0.0       0.1
 4 C  dxz             0.1       0.0       0.0       0.0       0.1       0.0
 4 C  dyz             0.0       0.2       0.0       0.0       0.0       0.0
 4 C  dx2y2           0.0       0.0       0.0       0.1       0.0       0.2
 4 C  dxy             0.2       0.0       0.4       0.1       0.0       0.0
 5 C  s               0.3       0.0       0.3       0.3       0.0       0.2
 5 C  pz              1.4      12.2       0.0       0.0       7.7       0.5
 5 C  px              4.6       2.0       7.3       5.3       0.1       7.8
 5 C  py              0.3       0.1       4.4       2.0       0.3       0.0
 5 C  dxz             0.0       0.0       0.1       0.0       0.1       0.0
 5 C  dxy             0.0       0.0       0.1       0.0       0.0       0.0
 6 C  s               0.3       0.1       0.4       0.1       0.0       0.0
 6 C  pz              6.4       1.5       8.6       0.1       5.5       0.1
 6 C  px              0.3       1.6       0.0      13.2       0.0       0.4
 6 C  py              0.2       1.2       0.4       2.7       2.4       0.0
 6 C  dx2y2           0.0       0.1       0.0       0.0       0.0       0.1
 6 C  dxy             0.0       0.0       0.1       0.1       0.0       0.0
 7 C  s               0.2       0.1       0.5       0.0       0.0       0.3
 7 C  pz              0.0      16.6       4.7       1.6       7.3       0.5
 7 C  px              0.4       0.0       1.1       3.7       0.1       1.2
 7 C  py              2.8       0.2       6.0       0.2       0.0       8.8
 7 C  dz2             0.0       0.1       0.0       0.0       0.1       0.1
 7 C  dx2y2           0.0       0.0       0.1       0.0       0.0       0.0
 7 C  dxy             0.0       0.0       0.0       0.4       0.0       0.2
 8 H  s               2.1       2.4       2.4       6.2       2.8       6.3
 9 H  s               1.4       0.1       0.1       9.7       1.3       6.3
10 H  s               3.8       1.5       0.7       0.1      12.4       3.5
11 H  s               0.9       4.2       4.2       0.3       3.4       1.2
12 H  s               3.5       4.4       0.0       0.4       1.0       1.7
13 H  s               0.5       3.1       6.3       2.3       1.2       1.0
14 H  s               2.1       4.1       0.5       0.0       4.3       0.6
15 H  s               3.8       0.8       2.8       0.2       3.1       0.1
16 H  s               0.5       0.1       0.5       6.9       1.9       0.3
17 H  s               1.1       1.5       7.4       0.3       0.8       1.1
18 H  s               0.6       7.9       0.1       0.3       3.8       1.4

                     24        25        26        27        28        29   
                  -0.32420  -0.31711  -0.31393  -0.30366  -0.29347  -0.19629
                   2.00000   2.00000   2.00000   2.00000   2.00000   2.00000
                  --------  --------  --------  --------  --------  --------
 0 C  s               0.0       0.1       0.1       0.0       0.0       0.0
 0 C  pz              0.1       0.0       0.5       2.5       8.0       0.0
 0 C  px              0.0       3.4       3.2       0.0       0.2       0.0
 0 C  py              7.8       0.4       0.2       0.0       0.1       0.1
 0 C  dxz             0.0       0.0       0.0       0.1       0.4       0.0
 0 C  dxy             0.1       0.0       0.0       0.0       0.0       0.0
 1 C  s               0.7       0.1       0.0       0.0       0.0       0.0
 1 C  pz              0.0       0.0       0.3       4.5      16.0       0.2
 1 C  px              1.1       0.0       0.9       0.0       0.2       0.0
 1 C  py             11.3       0.4       0.7       0.0       0.1       0.0
 1 C  dxz             0.0       0.0       0.0       0.0       0.0       1.5
 1 C  dyz             0.0       0.0       0.0       0.2       0.6       0.7
 1 C  dx2y2           0.2       0.0       0.1       0.0       0.0       0.1
 1 C  dxy             0.3       0.0       0.1       0.0       0.0       0.0
 2 O  s               9.7       0.3       0.0       0.0       0.0       0.0
 2 O  pz              0.0       0.0       0.3       7.5      26.1      27.3
 2 O  px             14.7       0.3       0.0       0.1       0.0       1.9
 2 O  py             30.5       0.4       0.1       0.1       0.1       0.7
 2 O  dyz             0.0       0.0       0.0       0.0       0.1       0.0
 2 O  dxy             0.2       0.0       0.0       0.0       0.0       0.0
 3 N  s               0.1       0.3       0.2       0.0       0.0       0.0
 3 N  pz              0.0       0.0       0.0       1.0       2.8      46.8
 3 N  px              0.5       0.3       0.6       0.0       0.0       0.0
 3 N  py              4.2       0.4       0.5       0.0       0.0       0.1
 3 N  dxz             0.0       0.0       0.0       0.0       0.2       0.0
 3 N  dx2y2           0.0       0.1       0.1       0.0       0.0       0.0
 3 N  dxy             0.4       0.0       0.0       0.0       0.0       0.0
 4 C  s               0.1       0.1       0.5       0.1       0.0       0.0
 4 C  pz              0.0       0.1       0.0       7.6       0.1       1.7
 4 C  px              0.3      15.1       2.2       0.1       0.0       0.0
 4 C  py              5.5       3.4       1.6       0.0       0.0       0.0
 4 C  dz2             0.0       0.1       0.0       0.1       0.0       0.1
 4 C  dxz             0.0       0.0       0.0       0.1       0.0       0.1
 4 C  dyz             0.0       0.0       0.0       0.3       0.0       1.1
 4 C  dx2y2           0.0       0.1       0.0       0.0       0.0       0.0
 4 C  dxy             0.1       0.1       0.1       0.0       0.0       0.0
 5 C  s               0.0       0.0       0.1       0.1       0.1       0.0
 5 C  pz              0.1       0.1       0.3      16.1       1.2       0.0
 5 C  px              0.0       6.4       6.7       0.0       0.0       0.1
 5 C  py              0.2      21.1       6.7       0.1       0.7       0.1
 5 C  dz2             0.0       0.1       0.0       0.6       0.1       0.0
 5 C  dxz             0.0       0.0       0.0       0.2       0.0       0.0
 5 C  dyz             0.0       0.2       0.1       0.0       0.0       0.0
 5 C  dx2y2           0.1       0.3       0.0       0.0       0.0       0.0
 5 C  dxy             0.0       0.0       0.5       0.0       0.0       0.0
 6 C  s               0.1       0.1       0.1       0.1       0.0       0.0
 6 C  pz              0.3       0.0       0.4      11.9       5.4       0.1
 6 C  px              0.1       1.1      19.1       0.7       0.1       0.4
 6 C  py              0.1      23.9       4.2       0.4       0.0       0.3
 6 C  dz2             0.0       0.0       0.0       0.7       0.3       0.0
 6 C  dxz             0.0       0.0       0.1       0.0       0.1       0.0
 6 C  dyz             0.0       0.2       0.1       0.0       0.0       0.0
 6 C  dx2y2           0.0       0.1       0.2       0.0       0.0       0.0
 6 C  dxy             0.0       0.3       0.3       0.0       0.0       0.0
 7 C  s               0.0       0.1       0.4       0.0       0.0       0.0
 7 C  pz              0.0       0.0       0.2       1.9       9.4       1.6
 7 C  px              0.1       0.7      21.8       0.0       0.4       0.0
 7 C  py              4.1       0.5       5.0       0.1       0.3       0.0
 7 C  dz2             0.0       0.0       0.0       0.1       0.2       0.1
 7 C  dxz             0.0       0.0       0.2       0.1       0.0       0.2
 7 C  dyz             0.0       0.0       0.1       0.0       0.3       0.8
 7 C  dx2y2           0.0       0.0       0.2       0.0       0.0       0.0
 7 C  dxy             0.0       0.3       0.0       0.0       0.0       0.0
 8 H  s               0.0       0.5       1.2       1.1       4.2       0.0
 9 H  s               3.2       1.2       0.3       0.0       0.0       0.0
10 H  s               0.1       0.6       0.2       1.1       4.5       0.1
11 H  s               0.7       0.4       0.0       5.7       0.1       4.0
12 H  s               0.9       4.5       0.5       3.6       0.0       2.7
13 H  s               0.3       0.4       9.2       2.7       0.1       0.0
14 H  s               0.0       0.3       0.1      13.5       0.9       0.1
15 H  s               0.0       0.1       0.3      10.2       5.1       0.1
16 H  s               0.0       9.5       2.6       1.9       0.9       0.1
17 H  s               0.8       1.1       6.0       1.0       4.0       1.8
18 H  s               0.4       0.2       0.2       1.3       6.3       4.3

                     30        31        32        33        34        35   
                  -0.18668  -0.00081   0.02273   0.05669   0.05913   0.07808
                   2.00000   0.00000   0.00000   0.00000   0.00000   0.00000
                  --------  --------  --------  --------  --------  --------
 0 C  s               1.2       0.0       1.8      12.7       0.7       3.8
 0 C  pz              0.1       0.8       0.0       0.1       0.4       0.0
 0 C  px              1.6       0.0       0.0       0.4       0.0       1.4
 0 C  py              5.2       0.0       0.1       2.7       0.4       0.0
 0 C  dxz             0.0       1.3       0.0       0.0       0.2       0.0
 0 C  dyz             0.0       0.4       0.0       0.0       0.1       0.0
 1 C  s               0.2       0.0       0.4       0.2       0.0       0.5
 1 C  pz              0.0      37.0       0.2       0.5       4.8       0.0
 1 C  px              0.5       0.1       0.0       0.0       0.0       0.0
 1 C  py              0.4       0.1       0.2       0.5       0.1       0.2
 1 C  dz2             0.0       0.0       0.2       0.1       0.0       0.2
 1 C  dxz             0.0       0.0       0.0       0.0       0.1       0.0
 1 C  dyz             0.1       1.0       0.0       0.0       0.1       0.0
 1 C  dx2y2           2.9       0.0       0.0       0.0       0.0       0.0
 1 C  dxy             1.8       0.0       0.0       0.0       0.0       0.0
 2 O  s               0.0       0.0       0.1       0.2       0.0       0.2
 2 O  pz              2.0      20.8       0.2       0.2       1.4       0.0
 2 O  px             58.3       0.1       0.0       0.2       0.0       0.0
 2 O  py             15.1       0.1       0.0       0.1       0.0       0.0
 2 O  dyz             0.0       0.3       0.0       0.0       0.1       0.0
 3 N  s               1.5       0.0       0.3       0.1       0.0       0.8
 3 N  pz              0.8       8.4       0.1       0.4       2.8       0.1
 3 N  px              3.3       0.0       0.0       0.1       0.0       0.0
 3 N  py              0.1       0.0       0.0       0.1       0.0       0.8
 3 N  dxz             0.0       1.1       0.0       0.0       0.0       0.0
 3 N  dx2y2           0.0       0.0       0.3       0.0       0.0       0.0
 4 C  s               0.1       0.0       6.2       3.1       0.2       2.8
 4 C  pz              0.0       1.6       0.3       0.0       3.9       0.2
 4 C  px              0.4       0.1       0.5       0.4       0.1       1.6
 4 C  py              0.2       0.1       3.0       2.3       0.5       2.0
 4 C  dz2             0.0       0.0       0.3       0.0       0.0       0.1
 4 C  dxz             0.0       0.0       0.1       0.1       0.4       0.0
 4 C  dyz             0.0       0.8       0.0       0.0       0.1       0.0
 4 C  dx2y2           0.0       0.0       0.1       0.1       0.0       0.2
 4 C  dxy             0.0       0.0       0.0       0.1       0.0       0.3
 5 C  s               0.1       0.2       6.5       3.1       0.0       6.1
 5 C  pz              0.0       0.3       0.6       1.1       7.4       0.0
 5 C  px              0.3       0.1       1.5       0.1       0.3       0.9
 5 C  py              0.1       0.2       0.9       0.4       0.7       0.7
 5 C  dz2             0.0       0.0       0.1       0.0       0.5       0.0
 5 C  dxz             0.0       0.2       0.0       0.1       0.6       0.0
 5 C  dyz             0.0       0.0       0.1       0.0       0.2       0.1
 5 C  dxy             0.0       0.0       0.2       0.1       0.0       0.0
 6 C  s               0.0       0.1       5.6       2.6       1.4       4.3
 6 C  pz              0.0       0.1       0.9       0.0       5.7       0.0
 6 C  px              0.0       0.1       0.6       1.1       1.1       2.1
 6 C  py              0.1       0.3       0.4       0.9       0.0       0.3
 6 C  dz2             0.0       0.0       0.0       0.0       0.7       0.0
 6 C  dxz             0.0       0.1       0.0       0.1       0.3       0.1
 6 C  dyz             0.0       0.1       0.1       0.1       0.1       0.1
 6 C  dxy             0.0       0.0       0.2       0.0       0.0       0.1
 7 C  s               0.0       0.1       2.8       0.6       0.1       3.6
 7 C  pz              0.2       0.4       0.3       0.8       1.7       0.5
 7 C  px              0.3       0.0       0.3       0.1       0.2       0.0
 7 C  py              0.7       0.0       0.5       0.3       0.3       3.6
 7 C  dz2             0.0       0.1       0.0       0.0       0.0       0.2
 7 C  dxz             0.0       0.0       0.2       0.0       0.5       0.0
 7 C  dyz             0.0       0.6       0.0       0.0       0.1       0.0
 7 C  dx2y2           0.0       0.0       0.1       0.0       0.0       0.0
 8 H  s               0.1       4.7       1.1      12.0       0.3       5.1
 9 H  s               1.2       0.0       1.7      13.3       1.2       0.2
10 H  s               0.1       4.4       1.2       7.9       2.6       6.1
11 H  s               0.1       3.3      12.2       5.3       2.9       2.1
12 H  s               0.1       3.4       8.6       5.0       7.1       8.2
13 H  s               0.2       0.5       9.2       1.0       8.7       9.0
14 H  s               0.0       1.3       8.3       7.2      13.2       4.6
15 H  s               0.0       0.3       7.7       1.0      18.3       2.7
16 H  s               0.0       1.2       5.8       7.3       2.0       9.7
17 H  s               0.4       0.5       3.2       0.3       1.9       6.0
18 H  s               0.1       2.7       4.5       3.2       3.2       8.1

                     36        37        38        39        40        41   
                   0.09298   0.10209   0.10414   0.11821   0.12228   0.12957
                   0.00000   0.00000   0.00000   0.00000   0.00000   0.00000
                  --------  --------  --------  --------  --------  --------
 0 C  s               2.4       0.9       0.0       0.1       0.5       0.0
 0 C  pz              0.1       0.3       0.0       0.6       1.1      21.5
 0 C  px              6.4       1.4       0.4       1.2       3.1       1.1
 0 C  py              2.3       0.3       2.3       1.6       0.7       0.0
 0 C  dz2             0.3       0.0       0.0       0.1       0.3       0.0
 0 C  dxz             0.0       0.0       0.0       0.0       0.0       0.7
 0 C  dyz             0.0       0.0       0.0       0.0       0.0       0.2
 0 C  dx2y2           0.1       0.0       0.0       0.0       0.0       0.0
 0 C  dxy             0.2       0.1       0.3       0.2       0.1       0.0
 1 C  s               0.2       0.0       0.9       0.1       0.6       0.1
 1 C  pz              0.1       0.5       0.0       0.0       0.1       3.3
 1 C  px              0.6       0.1       0.2       0.3       0.4       0.0
 1 C  py              0.1       0.1       0.3       0.8       1.4       0.0
 1 C  dz2             0.1       0.0       0.2       0.0       0.0       0.0
 1 C  dyz             0.0       0.0       0.0       0.0       0.0       0.2
 1 C  dx2y2           0.6       0.1       0.0       0.2       0.0       0.0
 1 C  dxy             0.4       0.1       0.3       0.1       1.2       0.0
 2 O  s               0.0       0.0       0.1       0.5       0.2       0.0
 2 O  pz              0.1       0.4       0.1       0.0       0.0       2.4
 2 O  px              0.0       0.0       0.0       0.4       0.9       0.0
 2 O  py              0.1       0.0       0.2       0.0       0.0       0.1
 3 N  s               2.2       0.1       1.0       2.4       0.9       0.6
 3 N  pz              0.1       0.2       0.0       0.0       0.0       0.2
 3 N  px              0.1       0.2       1.3       1.9       0.1       0.5
 3 N  py              0.6       0.1       2.0       0.1       8.7       0.5
 3 N  dz2             0.2       0.0       0.3       0.2       0.0       0.0
 3 N  dxz             0.0       0.0       0.0       0.0       0.0       0.1
 3 N  dyz             0.0       0.3       0.0       0.2       0.0       0.0
 3 N  dx2y2           0.0       0.0       0.2       0.4       0.0       0.1
 3 N  dxy             0.1       0.0       0.2       0.0       1.8       0.1
 4 C  s               1.5       0.5       0.6       1.1       2.7       0.3
 4 C  pz              1.0       8.6       0.2       3.8       0.3       0.2
 4 C  px              0.2       0.7       5.0       8.4       0.7       1.4
 4 C  py              0.9       0.2       3.0       0.0       9.5       0.1
 4 C  dz2             0.0       0.0       0.1       0.1       1.7       0.0
 4 C  dxz             0.0       0.2       0.0       0.1       0.2       0.0
 4 C  dyz             0.0       0.3       0.0       0.0       0.0       0.0
 4 C  dx2y2           0.0       0.0       0.4       0.7       0.0       0.4
 4 C  dxy             0.0       0.1       1.5       1.2       1.0       0.0
 5 C  s               5.7       0.5       0.9       0.2       0.1       0.0
 5 C  pz              0.1       1.3       0.3       0.3       1.8       0.9
 5 C  px              1.7       0.3       0.9       8.2       0.9       0.9
 5 C  py              0.2       0.1       1.1       0.1       6.2       1.7
 5 C  dz2             0.0       0.0       0.2       0.0       0.0       0.1
 5 C  dxz             0.1       0.4       0.0       0.0       0.0       0.0
 5 C  dyz             0.1       0.1       0.1       0.2       0.6       0.0
 5 C  dx2y2           0.0       0.0       0.6       0.2       1.6       0.2
 5 C  dxy             0.0       0.1       0.2       0.9       0.0       0.1
 6 C  s               0.9       2.0       5.5       2.3       0.0       0.2
 6 C  pz              0.7       2.9       0.4       0.5       0.5       0.1
 6 C  px              0.3       0.3       4.8       1.0       0.8       0.2
 6 C  py              1.4       0.0       0.3       1.8      11.3       0.1
 6 C  dz2             0.0       0.1       0.1       0.3       0.0       0.0
 6 C  dxz             0.0       0.3       0.0       0.0       0.0       0.0
 6 C  dyz             0.1       0.1       0.0       0.1       0.3       0.1
 6 C  dx2y2           0.7       0.0       0.2       0.1       1.3       0.0
 6 C  dxy             0.0       0.0       0.0       1.1       0.2       0.1
 7 C  s               3.5       1.7       5.4       1.8       1.5       0.1
 7 C  pz              0.6       6.7       0.2       1.0       0.5       0.4
 7 C  px              1.6       1.0       1.1       5.5       0.4       1.0
 7 C  py              1.1       0.0       4.0       3.3       2.9       1.5
 7 C  dz2             0.2       0.1       0.1       0.0       0.2       0.0
 7 C  dxz             0.0       0.1       0.1       0.1       0.0       0.0
 7 C  dyz             0.0       0.4       0.1       0.1       0.0       0.0
 7 C  dx2y2           0.0       0.0       0.1       1.0       0.4       0.1
 7 C  dxy             0.5       0.0       0.0       1.1       1.1       0.4
 8 H  s              10.5       2.4       0.4       2.3       3.0      20.7
 9 H  s               6.6       0.6       2.5       4.6       4.5       0.0
10 H  s              10.8       2.7       0.3       0.0       0.1      30.7
11 H  s               0.2      17.1       0.0      13.0       0.6       0.3
12 H  s               8.2       5.0       0.2       0.2       1.0       0.5
13 H  s              10.3       1.1       0.7      13.3       0.7       1.4
14 H  s               3.5       3.3       0.7       0.1       1.4       1.8
15 H  s               3.4      11.1       1.1       0.3       1.1       0.1
16 H  s               0.2       0.2      19.5       3.0      12.9       0.4
17 H  s               5.4       2.4      16.9       4.2       1.7       0.6
18 H  s               0.2      19.5       9.9       0.8       2.1       0.5

[...]
                  --------  --------  --------  --------  --------  --------
 0 C  s               0.0       0.0       0.2       0.1       0.0       0.0
 0 C  py              0.1       0.0       0.2       0.0       0.0       0.1
 0 C  dz2             0.3       0.0       0.6       0.0       0.0       0.0
 0 C  dxz             0.0       0.3       0.0       0.0       0.5       0.0
 0 C  dyz             0.0       1.2       0.0       0.0       0.0       0.0
 0 C  dx2y2           0.9       0.0       0.1       1.0       0.1       2.0
 0 C  dxy             0.0       0.0       0.3       0.2       0.0       0.2
 1 C  s               0.3       0.0       0.3       1.5       0.0       2.4
 1 C  pz              0.0       0.3       0.0       0.0       0.8       0.0
 1 C  px              0.4       0.0       0.3       4.2       0.0       0.9
 1 C  py              0.1       0.0       0.2       0.1       0.0       0.1
 1 C  dz2             0.0       0.3       5.7       0.8       0.1       0.8
 1 C  dxz             0.2      11.9       0.1       0.0       5.3       0.0
 1 C  dyz             0.0       1.9       0.1       0.0      13.7       0.3
 1 C  dx2y2           0.6       0.1       0.2       0.9       0.0      10.2
 1 C  dxy             2.2       0.3       0.2       0.4       0.1       3.5
 2 O  s               0.6       0.0       0.1       0.4       0.0       1.0
 2 O  pz              0.0       0.0       0.0       0.0       1.2       0.0
 2 O  px              0.2       0.0       0.0       0.2       0.0       0.1
 2 O  py              0.3       0.0       0.1       0.6       0.0       0.6
 2 O  dz2            32.1       2.2      13.4       0.4       0.0       4.1
 2 O  dxz             4.5      46.0       0.6       0.0      12.6       0.3
 2 O  dyz             1.4       4.0       0.2       0.3      60.5       0.4
 2 O  dx2y2           3.6       0.1       1.9      14.0       0.3       2.7
 2 O  dxy             4.1       0.6       4.6       7.1       0.1       0.0
 3 N  s               3.2       0.1       5.6       1.7       0.0       0.7
 3 N  px              0.5       0.0       1.1       1.3       0.0       1.0
 3 N  py              0.3       0.0       0.2       0.5       0.0       0.8
 3 N  dz2            17.1       0.4      35.8       1.9       0.2       1.3
 3 N  dxz             0.3      20.9       0.2       0.4       2.2       0.0
 3 N  dyz             0.2       2.4       0.3       0.1       0.7       0.0
 3 N  dx2y2           0.0       0.2       1.8      39.9       0.3      12.4
 3 N  dxy             0.2       0.1       0.8       4.6       0.4      37.0
 4 C  s               0.1       0.0       0.4       0.2       0.0       0.3
 4 C  px              1.1       0.0       0.3       0.8       0.0       0.2
 4 C  py              0.2       0.0       0.4       0.1       0.0       0.8
 4 C  dz2             0.3       0.0       1.4       0.1       0.0       0.4
 4 C  dxz             0.1       0.0       0.0       0.0       0.0       0.0
 4 C  dyz             0.0       2.9       0.1       0.0       0.0       0.1
 4 C  dx2y2           0.9       0.2       0.0       0.5       0.1       5.1
 4 C  dxy             6.0       0.1       2.3       6.4       0.0       0.6
 5 C  s               0.0       0.0       0.2       0.1       0.0       0.0
 5 C  px              0.4       0.0       0.1       0.1       0.0       0.1
 5 C  py              0.5       0.1       0.1       0.0       0.0       0.1
 5 C  dyz             0.4       0.2       0.2       0.0       0.0       0.1
 5 C  dx2y2           5.0       0.4       0.0       1.4       0.0       0.0
 5 C  dxy             0.3       0.0       0.1       0.2       0.0       0.5
 6 C  s               0.0       0.0       0.2       0.0       0.0       0.0
 6 C  px              0.2       0.0       0.5       0.0       0.0       0.1
 6 C  py              0.7       0.1       0.1       0.1       0.0       0.0
 6 C  dz2             0.0       0.0       0.3       0.0       0.0       0.0
 6 C  dxz             0.4       0.0       0.3       0.1       0.0       0.1
 6 C  dyz             1.6       0.1       0.0       0.5       0.0       0.0
 6 C  dx2y2           2.3       0.4       2.4       0.0       0.0       0.4
 6 C  dxy             0.4       0.0       0.1       0.5       0.0       0.0
 7 C  s               0.4       0.0       0.4       0.0       0.0       0.4
 7 C  px              0.5       0.0       1.6       0.0       0.0       0.8
 7 C  py              0.2       0.0       0.7       0.1       0.0       0.7
 7 C  dz2             1.9       0.0       2.0       0.0       0.0       0.4
 7 C  dxz             0.6       0.2       0.5       0.0       0.0       0.1
 7 C  dyz             0.0       1.0       0.2       0.0       0.3       0.0
 7 C  dx2y2           0.9       0.0       1.4       5.4       0.0       0.3
 7 C  dxy             0.0       0.0       8.3       0.3       0.1       4.9
12 H  s               0.0       0.1       0.0       0.0       0.0       0.0
17 H  s               0.1       0.1       0.0       0.0       0.0       0.1
18 H  s               0.1       0.0       0.1       0.0       0.0       0.0

                    132       133   
                   3.40413   3.55829
                   0.00000   0.00000
                  --------  --------
 0 C  s               0.2       0.0
 0 C  px              0.2       0.0
 0 C  py              0.3       0.1
 0 C  dz2             0.2       0.0
 0 C  dx2y2           0.0       0.3
 0 C  dxy             2.0       0.0
 1 C  s               0.1       5.9
 1 C  px              0.5       1.5
 1 C  py              0.6       4.9
 1 C  dz2             0.0       1.0
 1 C  dyz             0.2       0.0
 1 C  dx2y2          14.0       0.7
 1 C  dxy            11.6       7.7
 2 O  s               0.6       5.5
 2 O  px              1.4       0.5
 2 O  py              0.0       3.6
 2 O  dz2             1.4      14.3
 2 O  dyz             0.2       0.2
 2 O  dx2y2          16.7      27.2
 2 O  dxy            29.6      21.8
 3 N  s               0.3       0.0
 3 N  px              1.0       0.1
 3 N  py              0.0       0.2
 3 N  dxz             0.1       0.0
 3 N  dx2y2           7.6       0.1
 3 N  dxy             7.6       3.7
 4 C  s               0.1       0.0
 4 C  px              0.2       0.0
 4 C  py              0.2       0.0
 4 C  dx2y2           0.1       0.2
 4 C  dxy             1.1       0.0
 7 C  py              0.1       0.0
 7 C  dx2y2           1.0       0.2


                      *****************************
                      * MAYER POPULATION ANALYSIS *
                      *****************************

  NA   - Mulliken gross atomic population
  ZA   - Total nuclear charge
  QA   - Mulliken gross atomic charge
  VA   - Mayer's total valence
  BVA  - Mayer's bonded valence
  FA   - Mayer's free valence

  ATOM       NA         ZA         QA         VA         BVA        FA
  0 C      6.2749     6.0000    -0.2749     3.8876     3.8876     0.0000
  1 C      5.9498     6.0000     0.0502     4.3960     4.3960    -0.0000
  2 O      8.2401     8.0000    -0.2401     2.2771     2.2771    -0.0000
  3 N      7.2695     7.0000    -0.2695     3.2814     3.2814    -0.0000
  4 C      6.0355     6.0000    -0.0355     3.9930     3.9930     0.0000
  5 C      6.1914     6.0000    -0.1914     4.1246     4.1246    -0.0000
  6 C      6.1891     6.0000    -0.1891     4.1154     4.1154     0.0000
  7 C      6.0163     6.0000    -0.0163     3.9923     3.9923     0.0000
  8 H      0.8739     1.0000     0.1261     0.9665     0.9665     0.0000
  9 H      0.8952     1.0000     0.1048     0.9676     0.9676     0.0000
 10 H      0.8736     1.0000     0.1264     0.9678     0.9678     0.0000
 11 H      0.9020     1.0000     0.0980     0.9422     0.9422     0.0000
 12 H      0.8938     1.0000     0.1062     0.9426     0.9426     0.0000
 13 H      0.8981     1.0000     0.1019     0.9464     0.9464     0.0000
 14 H      0.9029     1.0000     0.0971     0.9455     0.9455    -0.0000
 15 H      0.9025     1.0000     0.0975     0.9449     0.9449    -0.0000
 16 H      0.8982     1.0000     0.1018     0.9471     0.9471     0.0000
 17 H      0.8876     1.0000     0.1124     0.9750     0.9750    -0.0000
 18 H      0.9055     1.0000     0.0945     0.9505     0.9505     0.0000

  Mayer bond orders larger than 0.100000
B(  0-C ,  1-C ) :   1.0763 B(  0-C ,  8-H ) :   0.9310 B(  0-C ,  9-H ) :   0.9268 
B(  0-C , 10-H ) :   0.9328 B(  1-C ,  2-O ) :   2.0281 B(  1-C ,  3-N ) :   1.1863 
B(  3-N ,  4-C ) :   0.9894 B(  3-N ,  7-C ) :   0.9824 B(  4-C ,  5-C ) :   1.1156 
B(  4-C , 11-H ) :   0.9234 B(  4-C , 12-H ) :   0.9206 B(  5-C ,  6-C ) :   1.1287 
B(  5-C , 13-H ) :   0.9267 B(  5-C , 14-H ) :   0.9194 B(  6-C ,  7-C ) :   1.1041 
B(  6-C , 15-H ) :   0.9217 B(  6-C , 16-H ) :   0.9274 B(  7-C , 17-H ) :   0.9192 
B(  7-C , 18-H ) :   0.9317 

-------
TIMINGS
-------

Total SCF time: 0 days 0 hours 0 min 0 sec 

Total time                  ....       0.886 sec
Sum of individual times     ....       0.876 sec  ( 98.9%)

SCF preparation             ....       0.025 sec  (  2.9%)
Fock matrix formation       ....       0.795 sec  ( 89.8%)
  Startup                   ....       0.001 sec  (  0.1% of F)
  Split-RI-J                ....       0.360 sec  ( 45.2% of F)
  XC integration            ....       0.426 sec  ( 53.6% of F)
    XC Preparation          ....       0.000 sec  (  0.0% of XC)
    Basis function eval.    ....       0.182 sec  ( 42.6% of XC)
    Density eval.           ....       0.093 sec  ( 21.9% of XC)
    XC-Functional eval.     ....       0.031 sec  (  7.4% of XC)
    XC-Potential eval.      ....       0.103 sec  ( 24.2% of XC)
Diagonalization             ....       0.000 sec  (  0.0%)
Density matrix formation    ....       0.001 sec  (  0.1%)
Total Energy calculation    ....       0.000 sec  (  0.0%)
Population analysis         ....       0.044 sec  (  5.0%)
Orbital Transformation      ....       0.002 sec  (  0.3%)
Orbital Orthonormalization  ....       0.000 sec  (  0.0%)
DIIS solution               ....       0.002 sec  (  0.2%)
  MO trafo                  ....       0.000 sec  (  0.0 % of DIIS)
  Orb grad                  ....       0.000 sec  (  0.0 % of DIIS)
  Energy W gradient         ....       0.000 sec  (  0.0 % of DIIS)
  DIIS error                ....       0.000 sec  ( 11.8 % of DIIS)
  DIIS work                 ....       0.002 sec  ( 86.2 % of DIIS)
  Form Q                    ....       0.000 sec  (  0.0 % of DIIS)
  Form QpQm                 ....       0.000 sec  (  0.0 % of DIIS)
  Exp/Cayley                ....       0.000 sec  (  0.0 % of DIIS)
  Orb update                ....       0.000 sec  (  0.0 % of DIIS)
  Wake-sleep                ....       0.000 sec  (  1.9 % of DIIS)
SOSCF solution              ....       0.005 sec  (  0.6%)
  MO trafo                  ....       0.004 sec  ( 72.4 % of SOSCF)
  Orb grad                  ....       0.000 sec  (  0.9 % of SOSCF)
  Rot update                ....       0.000 sec  (  2.6 % of SOSCF)
  Step                      ....       0.001 sec  ( 23.0 % of SOSCF)
Finished LeanSCF after   0.9 sec

Maximum memory used throughout the entire LEANSCF-calculation: 13.2 MB


-------------------------------------------------------------------------------
                          DFT DISPERSION CORRECTION                            
                                                                               
                                DFTD4 V3.4.0                                   
-------------------------------------------------------------------------------
The PBE functional is recognized
Active option DFTDOPT                   ...         5   

-------------------------   ----------------
Dispersion correction           -0.016755783
-------------------------   ----------------

------------------   -----------------
gCP correction             0.084848619
------------------   -----------------

-------------------------   --------------------
FINAL SINGLE POINT ENERGY      -364.429846325842
-------------------------   --------------------


------------------------------------------------------------------------------
                              ORCA PROPERTY CALCULATIONS
------------------------------------------------------------------------------

GBWName                                 ... sp.gbw
Number of atoms                         ...     19
Number of basis functions               ...    134
Max core memory                         ...   1024 MB

Electric properties:
Dipole moment                           ... YES
Quadrupole moment                       ...  NO
Static polarizability (Dipole/Dipole)   ...  NO
Static polarizability (Dipole/Quad.)    ...  NO
Static polarizability (Quad./Quad.)     ...  NO
Static polarizability (Velocity)        ...  NO

Atomic electric properties:
Dipole moment                           ...  NO
Quadrupole moment                       ...  NO
Static polarizability                   ...  NO

Choice of electric origin               ... Center of mass
Position of electric origin             ...    -0.000022    -0.000016    -0.000001

General magnetic properties:
Magnetizability                         ...  NO

EPR properties:
g-Tensor (aka g-matrix)                 ...  NO
Zero-Field splitting spin-orbit         ...  NO
Zero-field splitting spin-spin          ...  NO
Hyperfine couplings                     ...  NO (   0 nuclei)
Quadrupole couplings                    ...  NO (   0 nuclei)
Contact density                         ...  NO (   0 nuclei)

NMR properties:
Chemical shifts                         ...  NO (   0 nuclei)
Spin-rotation constants                 ...  NO (   0 nuclei)
Spin-spin couplings                     ...  NO (   0 nuclei,    0 pairs)

Choice of magnetic origin               ... GIAO
Position of magnetic origin             ...     0.000000     0.000000     0.000000

Properties with geometric perturbations:
SCF Hessian                             ...  NO
IR spectrum                             ...  NO
VCD spectrum                            ...  NO
X-ray spectroscopy properties:
SCF XES/XAS/RIXS spectra                ...  NO


-------------
DIPOLE MOMENT
-------------

Method             : SCF
Type of density    : Electron Density
Multiplicity       :   1
Irrep              :   0
Energy             :  -364.4979391612808968 Eh
Relativity type    : 
Basis              : AO
                                X                 Y                 Z
Electronic contribution:      3.864874598       3.361088449       0.357115655
Nuclear contribution   :     -4.985102583      -4.354635937      -0.409817556
                        -----------------------------------------
Total Dipole Moment    :     -1.120227985      -0.993547488      -0.052701901
                        -----------------------------------------
Magnitude (a.u.)       :      1.498273953
Magnitude (Debye)      :      3.808309738



--------------------
Rotational spectrum 
--------------------
 
Rotational constants in cm-1:             0.138264             0.051491             0.039457 
Rotational constants in MHz :          4145.062579          1543.671851          1182.879422 

Dipole components along the rotational axes: 
x,y,z [a.u.] :    -1.117793     0.996083    -0.056422 
x,y,z [Debye]:    -2.841204     2.531841    -0.143413 

 

Dipole moment calculation done in   0.0 sec 

Maximum memory used throughout the entire PROP-calculation: 8.4 MB

--------------------------------
SUGGESTED CITATIONS FOR THIS RUN
--------------------------------

Below you find a list of papers that are relevant to this ORCA run
We neither can nor want to force you to cite these papers, but we appreciate if you do
You receive ORCA, which is the product of decades of hard work by many enthusiastic individuals, for free
The only thing we kindly ask in return is that you cite our papers,
We deeply appreciate it, if you show your appreciation for ORCA by not just citing the generic ORCA reference.

Please note that relegating all ORCA citations to the supporting information does *not* help us.
SI sections are not indexed - citations you put there will not count into any citation statistics
But we need these citations in order to attract the funding resources that allow us to do what we are doing

Therefore, if you are a happy ORCA user, please consider citing a few of the papers listed below in the main body of your paper

In addition to the list printed below, the program has created the file sp.bibtex that contains the list in bibtex format
You can import this file easily into all common literature databanks and citation aid programs


List of essential papers. We consider these as the minimum necessary citations

  1. Neese,F.
     Software update: the ORCA program system, version 5.0
     WIRES Comput. Molec. Sci., 2022 12(1)e1606
     doi.org/10.1002/wcms.1606

List of papers to cite with high priority. The work reported in these papers was absolutely
necessary for this run to complete.
Our perspective: the developers of density functionals and basis sets usually get cited in chemistry papers
Good! But without the algorithms to do something with them, the functionals or basis sets would not do anything.
Hence, in our opinion, the algorithm design and method developments papers are equally worthy of getting cited

  1. Neese,F.
     An improvement of the resolution of the identity approximation for the formation of the Coulomb matrix
     J. Comp. Chem., 2003 24(14)1740-1747
     doi.org/10.1002/jcc.10318
  2. Neese,F.
     The SHARK Integral Generation and Digestion System
     J. Comp. Chem., 2022  1-16
     doi.org/10.1002/jcc.26942
  3. Caldeweyher,E.; Bannwarth,C.; Grimme,S.
     Extension of the D3 dispersion coefficient model
     J. Chem. Phys., 2017 147 034112
     doi.org/10.1063/1.4993215
  4. Caldeweyher,E.; Ehlert,S.; Hansen,A.; Neugebauer,H.; Spicher,S.; Bannwarth,C.; Grimme,S.
     A generally applicable atomic-charge dependent London dispersion correction
     J. Chem. Phys., 2019 150 154122
     doi.org/10.1063/1.5090222
  5. Caldeweyher,E.; Mewes,J.; Ehlert,S.; Grimme,S.
     Extension and evaluation of the D4 London-dispersion model for periodic systems
     Phys. Chem. Chem. Phys., 2020 22(16)8499-8512
     doi.org/10.1039/D0CP00502A
  6. Wittmann,L.; Gordiy,I.; Friede,M.; Helmich-Paris,B.; Grimme,S.; Hansen,A.; Bursch,M.
     Extension of the D3 and D4 London Dispersion Corrections to the full Actinides Series
     Phys. Chem. Chem. Phys., 2024 26(32)21379-21394
     doi.org/https://doi.org/10.1039/D4CP01514B 

List of suggested additional citations. These are papers that are important in the 'surrounding' of 
of this run, or papers that preceded the highly important papers. If you like your results we are grateful for a citation.

  1. Neese,F.
     The ORCA program system
     WIRES Comput. Molec. Sci., 2012 2(1)73-78
     doi.org/10.1002/wcms.81
  2. Neese,F.
     Software update: the ORCA program system, version 4.0
     WIRES Comput. Molec. Sci., 2018 8(1)1-6
     doi.org/10.1002/wcms.1327
  3. Neese,F.; Wennmohs,F.; Becker,U.; Riplinger,C.
     The ORCA quantum chemistry program package
     J. Chem. Phys., 2020 152 Art. No. L224108
     doi.org/10.1063/5.0004608

List of optional additional citations

  1. Neese,F.
     Approximate second-order SCF convergence for spin unrestricted wavefunctions
     Chem. Phys. Lett., 2000 325(1-3)93-98
     doi.org/10.1016/s0009-2614(00)00662-x

Timings for individual modules:

Sum of individual times          ...        1.226 sec (=   0.020 min)
Startup calculation              ...        0.251 sec (=   0.004 min)  20.5 %
SCF iterations                   ...        0.941 sec (=   0.016 min)  76.7 %
Property calculations            ...        0.034 sec (=   0.001 min)   2.8 %
                             ****ORCA TERMINATED NORMALLY****
TOTAL RUN TIME: 0 days 0 hours 0 minutes 1 seconds 294 msec
