 Entering Gaussian System
 *********************************************
 Gaussian 98:
 frequency output generated by the xtb code
 *********************************************
                         Standard orientation:
 --------------------------------------------------------------------
  Center     Atomic     Atomic              Coordinates (Angstroms)
  Number     Number      Type              X           Y           Z
 --------------------------------------------------------------------
    1          6             0        1.255703   -0.295786   -0.000292
    2          6             0       -0.008474    0.535502   -0.152547
    3          8             0       -1.083863   -0.177656    0.422370
    4          1             0        2.101939    0.228084   -0.435267
    5          1             0        1.448776   -0.480493    1.052588
    6          1             0        1.128392   -1.252025   -0.499776
    7          1             0       -0.203924    0.726161   -1.218301
    8          1             0        0.119018    1.505007    0.351635
    9          1             0       -1.891349    0.337939    0.333368
 --------------------------------------------------------------------
     1 basis functions        1 primitive gaussians
     1 alpha electrons        1 beta electrons

 Harmonic frequencies (cm**-1), IR intensities (km*mol⁻¹),
 Raman scattering activities (A**4/amu), Raman depolarization ratios,
 reduced masses (AMU), force constants (mDyne/A) and normal coordinates:
                      1                      2                      3
                        a                      a                      a 
 Frequencies --   201.5962               294.4009               394.1412
 Red. masses --     1.1390                 1.0839                 2.8286
 Frc consts  --     0.0000                 0.0000                 0.0000
 IR Inten    --     5.8359               156.6747                12.3179
 Raman Activ --     0.0000                 0.0000                 0.0000
 Depolar     --     0.0000                 0.0000                 0.0000
 Atom AN      X      Y      Z        X      Y      Z        X      Y      Z
   1   6     0.00   0.00   0.01     0.02   0.04   0.09     0.42   0.07  -0.12
   2   6     0.04   0.10   0.20    -0.02  -0.06  -0.11     0.04  -0.37   0.17
   3   8    -0.05  -0.12  -0.24    -0.04  -0.10  -0.19    -0.54   0.20   0.01
   4   1    -0.10  -0.24  -0.48     0.02   0.05   0.09    -0.03   0.22  -0.10
   5   1     0.34   0.38   0.01    -0.06   0.00   0.04     0.28   0.02  -0.06
   6   1    -0.25  -0.18   0.41     0.07   0.02   0.00     0.28   0.02  -0.07
   7   1     0.04   0.13   0.07    -0.00  -0.04  -0.04     0.04  -0.10   0.04
   8   1     0.00  -0.02   0.15    -0.02  -0.01  -0.05     0.04  -0.10   0.04
   9   1     0.02   0.04   0.08     0.17   0.41   0.83    -0.03   0.20  -0.09
                      4                      5                      6
                        a                      a                      a 
 Frequencies --   837.1365               930.2598              1040.4336
 Red. masses --     1.0922                 2.0727                 1.9134
 Frc consts  --     0.0000                 0.0000                 0.0000
 IR Inten    --     1.2801                 9.3301                27.1475
 Raman Activ --     0.0000                 0.0000                 0.0000
 Depolar     --     0.0000                 0.0000                 0.0000
 Atom AN      X      Y      Z        X      Y      Z        X      Y      Z
   1   6    -0.02  -0.06  -0.12     0.44   0.02  -0.10    -0.25   0.40  -0.15
   2   6    -0.04  -0.10  -0.21     0.08   0.30  -0.17     0.35  -0.34   0.10
   3   8     0.02   0.04   0.08    -0.40  -0.19   0.18    -0.04  -0.12   0.07
   4   1     0.03   0.07   0.14     0.42  -0.39   0.11     0.10  -0.12   0.04
   5   1    -0.30   0.34   0.09    -0.17  -0.03   0.02    -0.30   0.09   0.00
   6   1     0.36  -0.19   0.22    -0.16  -0.01   0.06    -0.29   0.10   0.02
   7   1    -0.18   0.44   0.07    -0.11   0.06  -0.01     0.01  -0.09   0.04
   8   1     0.26  -0.25   0.32    -0.11   0.07  -0.01     0.01  -0.09   0.04
   9   1    -0.00  -0.01  -0.02    -0.09  -0.04   0.04     0.26   0.35  -0.23
                      7                      8                      9
                        a                      a                      a 
 Frequencies --  1128.1696              1152.2971              1239.9787
 Red. masses --     2.9096                 1.5093                 1.3023
 Frc consts  --     0.0000                 0.0000                 0.0000
 IR Inten    --    52.4327                15.1471               106.6748
 Raman Activ --     0.0000                 0.0000                 0.0000
 Depolar     --     0.0000                 0.0000                 0.0000
 Atom AN      X      Y      Z        X      Y      Z        X      Y      Z
   1   6    -0.27  -0.01   0.06     0.05   0.13   0.27    -0.01  -0.24   0.12
   2   6     0.56   0.24  -0.23    -0.09  -0.21  -0.43    -0.02   0.30  -0.14
   3   8    -0.33  -0.25   0.19     0.03   0.07   0.15     0.00  -0.23   0.11
   4   1    -0.23   0.21  -0.06    -0.03  -0.06  -0.12    -0.13   0.11  -0.03
   5   1     0.09   0.05  -0.01     0.23  -0.24  -0.03     0.18  -0.02   0.00
   6   1     0.09   0.02  -0.06    -0.26   0.16  -0.12     0.17  -0.04  -0.04
   7   1     0.24   0.01  -0.07     0.23   0.37  -0.08    -0.27   0.08   0.01
   8   1     0.25   0.03  -0.05    -0.18  -0.25   0.32    -0.27   0.08   0.01
   9   1    -0.13  -0.13   0.09     0.00   0.00   0.01     0.39   0.50  -0.33
                     10                     11                     12
                        a                      a                      a 
 Frequencies --  1265.1913              1365.5498              1404.6126
 Red. masses --     1.1069                 1.2945                 1.2905
 Frc consts  --     0.0000                 0.0000                 0.0000
 IR Inten    --     0.7150                 9.5068                11.3879
 Raman Activ --     0.0000                 0.0000                 0.0000
 Depolar     --     0.0000                 0.0000                 0.0000
 Atom AN      X      Y      Z        X      Y      Z        X      Y      Z
   1   6    -0.05  -0.12  -0.25    -0.09   0.13  -0.05     0.38  -0.19   0.01
   2   6     0.02   0.04   0.08    -0.40   0.13   0.02    -0.21   0.06   0.01
   3   8     0.02   0.05   0.09     0.00  -0.17   0.08    -0.01  -0.08   0.04
   4   1     0.02   0.04   0.08     0.19  -0.22   0.07    -0.26   0.37  -0.13
   5   1    -0.17   0.18   0.01     0.17  -0.12  -0.06    -0.40   0.16   0.11
   6   1     0.18  -0.13   0.09     0.19  -0.05   0.08    -0.44   0.07  -0.06
   7   1     0.61  -0.02  -0.10     0.48  -0.02  -0.11     0.23   0.04  -0.05
   8   1    -0.61   0.03   0.12     0.49  -0.00  -0.08     0.23   0.02  -0.08
   9   1     0.00   0.01   0.02     0.16   0.20  -0.13     0.08   0.10  -0.06
                     13                     14                     15
                        a                      a                      a 
 Frequencies --  1474.1818              1493.7191              1495.5459
 Red. masses --     1.0536                 1.0685                 1.0702
 Frc consts  --     0.0000                 0.0000                 0.0000
 IR Inten    --     2.0167                 6.2315                 0.5688
 Raman Activ --     0.0000                 0.0000                 0.0000
 Depolar     --     0.0000                 0.0000                 0.0000
 Atom AN      X      Y      Z        X      Y      Z        X      Y      Z
   1   6     0.04   0.09   0.19     0.01   0.09  -0.05     0.08   0.15  -0.09
   2   6     0.01   0.02   0.04     0.06  -0.19   0.08     0.02   0.15  -0.08
   3   8    -0.00  -0.00  -0.00    -0.03  -0.03   0.02     0.01   0.01  -0.01
   4   1    -0.13  -0.31  -0.63    -0.07   0.09  -0.03    -0.14   0.21  -0.07
   5   1    -0.44  -0.14   0.07    -0.05  -0.33  -0.05    -0.15  -0.54  -0.08
   6   1     0.41   0.07  -0.21     0.02  -0.16   0.30    -0.02  -0.25   0.51
   7   1     0.02  -0.02   0.00     0.04   0.58   0.09    -0.07  -0.33  -0.05
   8   1    -0.02   0.02  -0.01    -0.09   0.28  -0.51     0.01  -0.15   0.30
   9   1     0.00   0.00   0.00    -0.00  -0.00   0.00     0.00   0.00  -0.00
                     16                     17                     18
                        a                      a                      a 
 Frequencies --  2853.1603              2886.3039              3048.1363
 Red. masses --     1.0966                 1.0439                 1.0557
 Frc consts  --     0.0000                 0.0000                 0.0000
 IR Inten    --    87.8138                70.6536                26.8671
 Raman Activ --     0.0000                 0.0000                 0.0000
 Depolar     --     0.0000                 0.0000                 0.0000
 Atom AN      X      Y      Z        X      Y      Z        X      Y      Z
   1   6     0.00   0.00   0.01     0.01   0.00  -0.00     0.19   0.07  -0.08
   2   6    -0.05  -0.13  -0.26     0.02  -0.17   0.08     0.01   0.00  -0.00
   3   8    -0.00  -0.00  -0.01    -0.02  -0.01   0.01    -0.00  -0.00   0.00
   4   1     0.00   0.00   0.00    -0.02  -0.01   0.01    -0.73  -0.46   0.38
   5   1    -0.01   0.01  -0.03     0.00  -0.00   0.02    -0.00   0.04  -0.16
   6   1    -0.00  -0.03  -0.01    -0.00  -0.02  -0.01     0.05   0.17   0.07
   7   1     0.12  -0.13   0.65    -0.12   0.08  -0.68     0.00  -0.00   0.01
   8   1     0.07   0.60   0.29     0.09   0.59   0.35    -0.00  -0.01  -0.00
   9   1     0.00   0.00   0.01    -0.00  -0.00   0.00     0.00  -0.00  -0.00
                     19                     20                     21
                        a                      a                      a 
 Frequencies --  3052.3856              3056.3370              3567.5559
 Red. masses --     1.0944                 1.0655                 1.0657
 Frc consts  --     0.0000                 0.0000                 0.0000
 IR Inten    --    28.2479                24.9330                 6.3622
 Raman Activ --     0.0000                 0.0000                 0.0000
 Depolar     --     0.0000                 0.0000                 0.0000
 Atom AN      X      Y      Z        X      Y      Z        X      Y      Z
   1   6    -0.06  -0.15  -0.25     0.03   0.20  -0.13    -0.00  -0.00   0.00
   2   6    -0.00  -0.01  -0.02    -0.00   0.01  -0.01    -0.00   0.00  -0.00
   3   8    -0.00   0.00   0.00     0.00  -0.00   0.00    -0.20   0.13  -0.02
   4   1     0.02  -0.00  -0.05    -0.17  -0.09   0.08    -0.00   0.00  -0.00
   5   1     0.10  -0.13   0.60     0.13  -0.09   0.71     0.00  -0.00   0.01
   6   1     0.09   0.65   0.32    -0.07  -0.52  -0.31    -0.00  -0.01  -0.00
   7   1     0.00  -0.00   0.03     0.00  -0.00   0.03     0.00  -0.00   0.00
   8   1     0.01   0.03   0.02    -0.00  -0.02  -0.01     0.00  -0.00   0.00
   9   1     0.00  -0.00  -0.00    -0.01   0.00  -0.00     0.82  -0.52   0.09
