 Entering Gaussian System
 *********************************************
 Gaussian 98:
 frequency output generated by the xtb code
 *********************************************
                         Standard orientation:
 --------------------------------------------------------------------
  Center     Atomic     Atomic              Coordinates (Angstroms)
  Number     Number      Type              X           Y           Z
 --------------------------------------------------------------------
    1          6             0        1.848367   -1.471711   -0.000752
    2          6             0        0.567298   -0.693470   -0.000111
    3          6             0       -0.641882   -1.382887   -0.000086
    4          6             0       -1.830432   -0.676302    0.000141
    5          7             0       -1.880837    0.645074    0.000436
    6          6             0       -0.735900    1.301046    0.000517
    7          6             0        0.521187    0.702959    0.000229
    8          6             0        1.755438    1.552674    0.000123
    9          1             0        1.889568   -2.115751    0.877066
   10          1             0        1.890996   -2.111741   -0.881447
   11          1             0        2.720220   -0.826508    0.001350
   12          1             0       -0.647080   -2.463036   -0.000231
   13          1             0       -2.786235   -1.183623    0.000251
   14          1             0       -0.823735    2.380899    0.000634
   15          1             0        2.360790    1.354623   -0.883865
   16          1             0        1.486080    2.606016    0.002056
   17          1             0        2.362935    1.351937    0.882008
 --------------------------------------------------------------------
     1 basis functions        1 primitive gaussians
     1 alpha electrons        1 beta electrons

 Harmonic frequencies (cm**-1), IR intensities (km*mol⁻¹),
 Raman scattering activities (A**4/amu), Raman depolarization ratios,
 reduced masses (AMU), force constants (mDyne/A) and normal coordinates:
                      1                      2                      3
                        a                      a                      a 
 Frequencies --  -124.8046               147.1025               170.2389
 Red. masses --     1.0243                 2.3651                 1.1957
 Frc consts  --     0.0000                 0.0000                 0.0000
 IR Inten    --     0.3724                 0.3401                 0.4965
 Raman Activ --     0.0000                 0.0000                 0.0000
 Depolar     --     0.0000                 0.0000                 0.0000
 Atom AN      X      Y      Z        X      Y      Z        X      Y      Z
   1   6     0.00   0.00  -0.00    -0.00  -0.00  -0.34     0.00   0.00  -0.18
   2   6    -0.00  -0.00   0.06     0.00  -0.00   0.07    -0.00   0.00  -0.09
   3   6    -0.00  -0.00   0.08     0.00  -0.00   0.36    -0.00  -0.00   0.05
   4   6    -0.00   0.00   0.03     0.00  -0.00   0.23    -0.00  -0.00   0.18
   5   7    -0.00   0.00  -0.01     0.00   0.00  -0.32    -0.00  -0.00   0.00
   6   6     0.00   0.00  -0.02     0.00   0.00  -0.33    -0.00   0.00  -0.16
   7   6    -0.00  -0.00  -0.02     0.00  -0.00   0.02    -0.00   0.00  -0.09
   8   6     0.00  -0.00  -0.08    -0.00   0.00   0.33     0.00  -0.00   0.24
   9   1    -0.24  -0.43  -0.31     0.07  -0.06  -0.14     0.04   0.03  -0.03
  10   1     0.24   0.43  -0.30    -0.07   0.06  -0.14    -0.04  -0.03  -0.03
  11   1    -0.00  -0.00   0.54     0.00  -0.00  -0.13    -0.00   0.00  -0.11
  12   1    -0.00  -0.00   0.04     0.00  -0.00   0.17    -0.00  -0.00   0.03
  13   1    -0.00   0.00   0.01     0.00  -0.00   0.13    -0.00  -0.00   0.12
  14   1     0.00   0.00  -0.01     0.00   0.00  -0.19    -0.00   0.00  -0.09
  15   1     0.03  -0.06   0.01    -0.07   0.21   0.00     0.31  -0.31   0.36
  16   1     0.00   0.00  -0.09    -0.00  -0.00   0.36    -0.00   0.00  -0.39
  17   1    -0.03   0.06   0.01     0.07  -0.20   0.00    -0.31   0.30   0.36
                      4                      5                      6
                        a                      a                      a 
 Frequencies --   238.7020               308.6946               387.1334
 Red. masses --     2.9468                 2.6895                 2.8630
 Frc consts  --     0.0000                 0.0000                 0.0000
 IR Inten    --     0.0664                 0.2293                 0.0269
 Raman Activ --     0.0000                 0.0000                 0.0000
 Depolar     --     0.0000                 0.0000                 0.0000
 Atom AN      X      Y      Z        X      Y      Z        X      Y      Z
   1   6     0.00   0.00  -0.26     0.19   0.53   0.00    -0.31  -0.11   0.00
   2   6    -0.00  -0.00   0.33    -0.12   0.00  -0.00     0.02   0.37   0.00
   3   6    -0.00  -0.00   0.33    -0.07  -0.06  -0.00     0.21   0.08   0.00
   4   6    -0.00   0.00  -0.30    -0.06   0.01   0.00     0.09  -0.22  -0.00
   5   7    -0.00   0.00  -0.32    -0.07   0.01   0.00    -0.07  -0.24   0.00
   6   6    -0.00   0.00   0.30    -0.08   0.06  -0.00    -0.21   0.09   0.00
   7   6    -0.00  -0.00   0.34    -0.13  -0.02  -0.00    -0.05   0.36  -0.00
   8   6     0.00  -0.00  -0.19     0.20  -0.52  -0.00     0.31  -0.12  -0.00
   9   1     0.13  -0.02  -0.10     0.14   0.16   0.00    -0.20  -0.04  -0.00
  10   1    -0.13   0.02  -0.10     0.14   0.16   0.00    -0.20  -0.04   0.00
  11   1     0.00   0.00  -0.18    -0.03   0.25   0.00     0.02  -0.19   0.00
  12   1    -0.00  -0.00   0.12    -0.03  -0.02  -0.00     0.16   0.02   0.00
  13   1    -0.00   0.00  -0.24    -0.02   0.01   0.00     0.05  -0.11  -0.00
  14   1    -0.00   0.00   0.13    -0.02   0.02  -0.00    -0.15   0.02   0.00
  15   1    -0.02  -0.16  -0.03     0.03  -0.23  -0.00     0.06  -0.14   0.00
  16   1     0.00   0.00  -0.24     0.20  -0.11   0.00     0.26   0.01   0.00
  17   1     0.02   0.15  -0.03     0.03  -0.23   0.00     0.06  -0.14  -0.00
                      7                      8                      9
                        a                      a                      a 
 Frequencies --   395.3848               490.0464               504.6312
 Red. masses --     2.6709                 5.1627                 3.8440
 Frc consts  --     0.0000                 0.0000                 0.0000
 IR Inten    --     1.9385                 2.5739                 4.8262
 Raman Activ --     0.0000                 0.0000                 0.0000
 Depolar     --     0.0000                 0.0000                 0.0000
 Atom AN      X      Y      Z        X      Y      Z        X      Y      Z
   1   6     0.00   0.00   0.04     0.32  -0.28  -0.00    -0.00   0.00   0.03
   2   6    -0.00  -0.00  -0.34     0.33  -0.04  -0.00    -0.00   0.00  -0.53
   3   6    -0.00  -0.00   0.40     0.23   0.22  -0.00    -0.00  -0.00  -0.03
   4   6    -0.00   0.00  -0.20     0.17   0.21   0.00    -0.00  -0.00   0.32
   5   7    -0.00   0.00  -0.05    -0.32   0.21  -0.00     0.00  -0.00  -0.46
   6   6     0.00  -0.00   0.31    -0.24   0.11   0.00     0.00  -0.00   0.21
   7   6    -0.00  -0.00  -0.51    -0.26  -0.05   0.00     0.00   0.00   0.40
   8   6    -0.00  -0.00   0.07    -0.25  -0.24  -0.00     0.00   0.00  -0.02
   9   1    -0.08   0.04   0.04     0.04  -0.08  -0.00    -0.15   0.08   0.07
  10   1     0.08  -0.04   0.04     0.04  -0.08   0.00     0.15  -0.08   0.07
  11   1    -0.00   0.00   0.06     0.14  -0.15   0.00    -0.00   0.00   0.11
  12   1    -0.00  -0.00   0.34    -0.01   0.06   0.00     0.00  -0.00   0.04
  13   1    -0.00   0.00  -0.11     0.10  -0.03   0.00    -0.00  -0.00   0.24
  14   1     0.00  -0.00   0.32    -0.00   0.03   0.00    -0.00  -0.00   0.10
  15   1     0.11   0.09   0.08    -0.09  -0.12   0.00    -0.10  -0.08  -0.06
  16   1    -0.00  -0.00   0.11     0.01  -0.05  -0.00     0.00   0.00  -0.08
  17   1    -0.11  -0.09   0.08    -0.09  -0.12  -0.00     0.10   0.08  -0.06
                     10                     11                     12
                        a                      a                      a 
 Frequencies --   585.4555               687.8768               778.6421
 Red. masses --     6.2392                 4.7522                 4.2027
 Frc consts  --     0.0000                 0.0000                 0.0000
 IR Inten    --     0.7026                 5.1332                 2.9550
 Raman Activ --     0.0000                 0.0000                 0.0000
 Depolar     --     0.0000                 0.0000                 0.0000
 Atom AN      X      Y      Z        X      Y      Z        X      Y      Z
   1   6     0.23  -0.07  -0.00     0.00   0.00   0.06     0.31  -0.26  -0.00
   2   6     0.15   0.01   0.00     0.00  -0.00   0.40    -0.11  -0.18   0.00
   3   6    -0.15   0.36   0.00    -0.00   0.00  -0.34    -0.16  -0.41   0.00
   4   6    -0.43  -0.03  -0.00     0.00  -0.00   0.35    -0.04  -0.02   0.00
   5   7    -0.38  -0.03   0.00    -0.00   0.00  -0.42    -0.06   0.00  -0.00
   6   6    -0.07  -0.40  -0.00     0.00  -0.00   0.35    -0.21   0.41   0.00
   7   6     0.23   0.01   0.00    -0.00   0.00  -0.38    -0.12   0.19   0.00
   8   6     0.34   0.14  -0.00    -0.00   0.00  -0.06     0.30   0.26  -0.00
   9   1     0.09  -0.02   0.00     0.11  -0.06  -0.04     0.15  -0.07   0.00
  10   1     0.09  -0.02  -0.00    -0.11   0.06  -0.04     0.15  -0.07  -0.00
  11   1     0.04   0.01  -0.00     0.00  -0.00  -0.05     0.04  -0.01   0.00
  12   1    -0.04   0.10   0.00    -0.00   0.00  -0.10    -0.11  -0.12  -0.00
  13   1    -0.08  -0.08  -0.00     0.00  -0.00   0.18    -0.05   0.06  -0.00
  14   1    -0.01  -0.11  -0.00     0.00  -0.00   0.20    -0.14   0.11  -0.00
  15   1     0.09   0.04  -0.00     0.08   0.06   0.03     0.07   0.03   0.00
  16   1     0.10   0.04  -0.00    -0.00  -0.00   0.04     0.17   0.09   0.00
  17   1     0.09   0.04  -0.00    -0.08  -0.06   0.03     0.07   0.03  -0.00
                     13                     14                     15
                        a                      a                      a 
 Frequencies --   815.2767               849.5977               899.9622
 Red. masses --     1.2406                 5.0941                 1.2427
 Frc consts  --     0.0000                 0.0000                 0.0000
 IR Inten    --     2.3853                11.8496                 0.2166
 Raman Activ --     0.0000                 0.0000                 0.0000
 Depolar     --     0.0000                 0.0000                 0.0000
 Atom AN      X      Y      Z        X      Y      Z        X      Y      Z
   1   6    -0.00   0.00  -0.05     0.28  -0.12  -0.00     0.00   0.00  -0.01
   2   6    -0.00   0.00  -0.08     0.04   0.15   0.00     0.00   0.00  -0.01
   3   6     0.00   0.00   0.26    -0.15   0.24   0.00    -0.00   0.00  -0.23
   4   6     0.00  -0.00   0.25    -0.43  -0.19  -0.00    -0.00  -0.00  -0.08
   5   7     0.00  -0.00  -0.09     0.48  -0.23  -0.00     0.00  -0.00   0.01
   6   6     0.00  -0.00   0.22     0.12   0.20  -0.00     0.00  -0.00   0.38
   7   6     0.00  -0.00  -0.09    -0.05   0.15  -0.00    -0.00  -0.00  -0.02
   8   6    -0.00  -0.00  -0.05    -0.28  -0.11   0.00    -0.00  -0.00  -0.02
   9   1    -0.10   0.06   0.04     0.04  -0.04  -0.00    -0.01   0.01   0.00
  10   1     0.10  -0.06   0.04     0.04  -0.04   0.00     0.01  -0.01   0.00
  11   1    -0.00   0.00   0.06     0.12  -0.09  -0.00     0.00  -0.00   0.00
  12   1     0.00   0.00  -0.56     0.07   0.06   0.00     0.00  -0.00   0.50
  13   1    -0.00   0.00  -0.52    -0.19   0.08   0.00    -0.00  -0.00   0.05
  14   1     0.00  -0.00  -0.39    -0.08   0.04   0.00    -0.00   0.00  -0.73
  15   1     0.08   0.06   0.03    -0.09  -0.10   0.00     0.03   0.02   0.01
  16   1    -0.00  -0.00   0.05     0.01  -0.01  -0.00    -0.00  -0.00   0.02
  17   1    -0.08  -0.06   0.03    -0.10  -0.10  -0.00    -0.03  -0.02   0.01
                     16                     17                     18
                        a                      a                      a 
 Frequencies --   917.3148              1003.0532              1008.9948
 Red. masses --     1.3546                 1.4567                 1.3863
 Frc consts  --     0.0000                 0.0000                 0.0000
 IR Inten    --     0.0419                 8.9436                 7.6179
 Raman Activ --     0.0000                 0.0000                 0.0000
 Depolar     --     0.0000                 0.0000                 0.0000
 Atom AN      X      Y      Z        X      Y      Z        X      Y      Z
   1   6     0.00   0.00  -0.01    -0.25  -0.31  -0.00    -0.07  -0.06  -0.00
   2   6    -0.00  -0.00   0.02    -0.02  -0.10   0.00    -0.04  -0.06   0.00
   3   6     0.00  -0.00   0.28     0.12   0.31  -0.00     0.01  -0.06  -0.00
   4   6    -0.00   0.00  -0.40     0.06  -0.02  -0.00     0.07   0.11  -0.00
   5   7    -0.00   0.00  -0.01     0.06  -0.13  -0.00     0.02   0.00  -0.00
   6   6    -0.00  -0.00   0.19    -0.04   0.15   0.00     0.14  -0.27  -0.00
   7   6    -0.00  -0.00  -0.06    -0.04   0.02  -0.00    -0.03   0.11   0.00
   8   6     0.00  -0.00  -0.03     0.03  -0.07   0.00    -0.23   0.33  -0.00
   9   1    -0.01   0.01   0.01     0.34  -0.00   0.03     0.09   0.00   0.01
  10   1     0.01  -0.01   0.01     0.34  -0.00  -0.03     0.09   0.00  -0.01
  11   1     0.00  -0.00   0.01    -0.44   0.43   0.00    -0.10   0.10   0.00
  12   1    -0.00   0.00  -0.44     0.09   0.09   0.00    -0.04  -0.01   0.00
  13   1     0.00  -0.00   0.69     0.07  -0.09   0.00     0.01   0.04   0.00
  14   1     0.00   0.00  -0.20    -0.10   0.03  -0.00     0.13  -0.07   0.00
  15   1     0.04   0.03   0.01     0.02   0.05  -0.01    -0.16  -0.34   0.02
  16   1    -0.00  -0.00   0.02    -0.06  -0.03  -0.00     0.55   0.23   0.00
  17   1    -0.04  -0.03   0.01     0.02   0.05   0.01    -0.16  -0.34  -0.02
                     19                     20                     21
                        a                      a                      a 
 Frequencies --  1024.2658              1033.0857              1112.6831
 Red. masses --     1.4085                 1.4913                 1.5770
 Frc consts  --     0.0000                 0.0000                 0.0000
 IR Inten    --    15.8639                 0.1843                 3.0361
 Raman Activ --     0.0000                 0.0000                 0.0000
 Depolar     --     0.0000                 0.0000                 0.0000
 Atom AN      X      Y      Z        X      Y      Z        X      Y      Z
   1   6    -0.00   0.00  -0.28     0.00  -0.00   0.32     0.01   0.09   0.00
   2   6     0.00   0.00   0.23    -0.00   0.00  -0.30     0.02  -0.13  -0.00
   3   6    -0.00   0.00  -0.08     0.00   0.00   0.03    -0.14   0.27   0.00
   4   6    -0.00  -0.00  -0.02    -0.00  -0.00   0.01     0.26   0.15   0.00
   5   7     0.00   0.00   0.01     0.00  -0.00  -0.01     0.23  -0.30  -0.00
   6   6    -0.00   0.00  -0.09    -0.00   0.00  -0.01    -0.12  -0.07  -0.00
   7   6     0.00  -0.00   0.25     0.00  -0.00   0.27    -0.10  -0.03   0.00
   8   6     0.00  -0.00  -0.32     0.00  -0.00  -0.29     0.07   0.05   0.00
   9   1    -0.29   0.20   0.10     0.31  -0.23  -0.11    -0.08   0.00  -0.01
  10   1     0.29  -0.20   0.10    -0.31   0.23  -0.11    -0.08   0.00   0.01
  11   1    -0.00   0.00   0.16     0.00   0.00  -0.18     0.05  -0.05  -0.00
  12   1    -0.00   0.00   0.10     0.00   0.00  -0.01    -0.69   0.08   0.00
  13   1     0.00  -0.00   0.06     0.00  -0.00  -0.02     0.13  -0.05  -0.00
  14   1    -0.00   0.00   0.11    -0.00   0.00  -0.01    -0.30  -0.04   0.00
  15   1     0.34   0.21   0.11     0.30   0.19   0.10     0.02   0.01   0.00
  16   1    -0.00  -0.00   0.17    -0.00  -0.00   0.15     0.03   0.02  -0.00
  17   1    -0.33  -0.21   0.11    -0.30  -0.19   0.10     0.02   0.01  -0.00
                     22                     23                     24
                        a                      a                      a 
 Frequencies --  1162.1699              1207.9174              1261.9756
 Red. masses --     3.0959                 1.4988                 1.7021
 Frc consts  --     0.0000                 0.0000                 0.0000
 IR Inten    --     8.6901                 6.1773                 4.5696
 Raman Activ --     0.0000                 0.0000                 0.0000
 Depolar     --     0.0000                 0.0000                 0.0000
 Atom AN      X      Y      Z        X      Y      Z        X      Y      Z
   1   6     0.13  -0.19  -0.00    -0.10   0.08   0.00     0.17   0.03  -0.00
   2   6    -0.24   0.34   0.00     0.22  -0.16  -0.00    -0.44  -0.19   0.00
   3   6    -0.07  -0.18  -0.00     0.12   0.05  -0.00    -0.08   0.18   0.00
   4   6     0.20   0.25   0.00    -0.01   0.15   0.00     0.08   0.27   0.00
   5   7     0.01  -0.00   0.00     0.14  -0.09  -0.00     0.07  -0.06  -0.00
   6   6    -0.03  -0.40  -0.00    -0.22  -0.11  -0.00     0.09  -0.07  -0.00
   7   6     0.14   0.37   0.00    -0.22  -0.23   0.00    -0.13  -0.11   0.00
   8   6    -0.07  -0.20   0.00     0.13   0.10  -0.00     0.07   0.09   0.00
   9   1     0.15  -0.03   0.01    -0.07   0.02   0.00    -0.03  -0.03  -0.02
  10   1     0.15  -0.03  -0.01    -0.07   0.02  -0.00    -0.03  -0.03   0.02
  11   1    -0.01   0.02  -0.00    -0.04   0.03   0.00     0.14  -0.13   0.00
  12   1    -0.02  -0.04   0.00     0.28   0.01  -0.00     0.53   0.05   0.00
  13   1    -0.07   0.30   0.00    -0.32   0.63   0.00     0.21  -0.28  -0.00
  14   1    -0.22  -0.12  -0.00    -0.20  -0.04   0.00    -0.33  -0.05   0.00
  15   1    -0.02   0.03  -0.02     0.04   0.03   0.00     0.01  -0.01   0.01
  16   1    -0.21  -0.10  -0.00     0.08   0.04   0.00     0.03   0.02   0.00
  17   1    -0.02   0.03   0.02     0.04   0.03  -0.00     0.01  -0.01  -0.01
                     25                     26                     27
                        a                      a                      a 
 Frequencies --  1273.4327              1292.0664              1390.1194
 Red. masses --     1.7077                 7.8201                 2.2591
 Frc consts  --     0.0000                 0.0000                 0.0000
 IR Inten    --    14.3708                 5.2571                11.7405
 Raman Activ --     0.0000                 0.0000                 0.0000
 Depolar     --     0.0000                 0.0000                 0.0000
 Atom AN      X      Y      Z        X      Y      Z        X      Y      Z
   1   6    -0.14   0.08   0.00    -0.03   0.06   0.00     0.11  -0.16  -0.00
   2   6     0.27  -0.15  -0.00    -0.05  -0.31  -0.00     0.20   0.10  -0.00
   3   6     0.06  -0.17  -0.00     0.41  -0.04  -0.00     0.08  -0.19  -0.00
   4   6    -0.15   0.00   0.00    -0.26   0.29   0.00    -0.24   0.08   0.00
   5   7    -0.09   0.19   0.00    -0.25  -0.34  -0.00     0.27   0.27   0.00
   6   6     0.08   0.12   0.00     0.43   0.07  -0.00     0.04  -0.26  -0.00
   7   6     0.43   0.02  -0.00    -0.15   0.36   0.00    -0.41   0.10   0.00
   8   6    -0.16  -0.02   0.00     0.02  -0.07  -0.00     0.05  -0.07  -0.00
   9   1    -0.03   0.02  -0.00    -0.06  -0.02  -0.02    -0.19   0.13   0.12
  10   1    -0.03   0.02   0.00    -0.06  -0.02   0.02    -0.19   0.13  -0.12
  11   1    -0.04   0.03  -0.00     0.02  -0.03   0.00    -0.18   0.22   0.00
  12   1    -0.00  -0.05  -0.00    -0.11  -0.02   0.00    -0.04  -0.06  -0.00
  13   1     0.00  -0.09  -0.00    -0.07   0.06   0.00     0.09  -0.28  -0.00
  14   1    -0.71  -0.02   0.00     0.05   0.01  -0.00    -0.12  -0.08  -0.00
  15   1    -0.06  -0.12   0.01    -0.01   0.05  -0.02     0.05   0.15  -0.01
  16   1    -0.01  -0.01   0.00    -0.10  -0.04  -0.00     0.12   0.02  -0.00
  17   1    -0.06  -0.12  -0.01    -0.01   0.05   0.02     0.05   0.15   0.01
                     28                     29                     30
                        a                      a                      a 
 Frequencies --  1403.1678              1404.3899              1470.8230
 Red. masses --     1.2236                 1.6316                 1.3573
 Frc consts  --     0.0000                 0.0000                 0.0000
 IR Inten    --     5.2710                12.2945                 1.9874
 Raman Activ --     0.0000                 0.0000                 0.0000
 Depolar     --     0.0000                 0.0000                 0.0000
 Atom AN      X      Y      Z        X      Y      Z        X      Y      Z
   1   6    -0.10   0.08   0.00     0.32  -0.19  -0.00    -0.07  -0.16  -0.00
   2   6    -0.01   0.00  -0.00    -0.15  -0.05  -0.00    -0.19   0.15  -0.00
   3   6     0.01  -0.01  -0.00    -0.08   0.10   0.00     0.24   0.03   0.00
   4   6    -0.01   0.02   0.00     0.16  -0.02  -0.00    -0.06  -0.10  -0.00
   5   7    -0.01  -0.01  -0.00    -0.19  -0.18  -0.00    -0.06   0.07   0.00
   6   6     0.01  -0.01  -0.00     0.01   0.15   0.00     0.15   0.02  -0.00
   7   6     0.04   0.03   0.00     0.29  -0.02  -0.00    -0.12  -0.22  -0.00
   8   6    -0.37  -0.19   0.00    -0.18  -0.06  -0.00     0.02   0.15  -0.00
   9   1     0.13  -0.08  -0.07    -0.35   0.20   0.18     0.16   0.35   0.26
  10   1     0.13  -0.08   0.07    -0.36   0.20  -0.18     0.15   0.35  -0.26
  11   1     0.09  -0.13  -0.00    -0.19   0.28   0.00     0.16  -0.23   0.00
  12   1    -0.01  -0.00   0.00     0.05   0.03   0.00    -0.16   0.01  -0.00
  13   1     0.00  -0.00   0.00    -0.04   0.15   0.00    -0.06   0.05  -0.00
  14   1    -0.04  -0.01  -0.00     0.05   0.05   0.00    -0.12  -0.01   0.00
  15   1     0.39   0.26   0.23     0.07   0.03   0.06     0.16  -0.16   0.15
  16   1     0.42   0.10  -0.00     0.14   0.03   0.00    -0.14  -0.02   0.00
  17   1     0.39   0.26  -0.23     0.07   0.03  -0.06     0.16  -0.15  -0.15
                     31                     32                     33
                        a                      a                      a 
 Frequencies --  1473.8582              1485.3358              1492.8742
 Red. masses --     1.0563                 2.3746                 1.0560
 Frc consts  --     0.0000                 0.0000                 0.0000
 IR Inten    --     8.5700                 5.0011                 0.2927
 Raman Activ --     0.0000                 0.0000                 0.0000
 Depolar     --     0.0000                 0.0000                 0.0000
 Atom AN      X      Y      Z        X      Y      Z        X      Y      Z
   1   6     0.00   0.00  -0.18     0.17   0.00   0.00     0.00  -0.00   0.13
   2   6     0.00  -0.00  -0.03    -0.35   0.17   0.00     0.00   0.00   0.03
   3   6    -0.00  -0.00   0.01     0.31   0.12  -0.00    -0.00  -0.00  -0.00
   4   6     0.00   0.00   0.00     0.04  -0.36  -0.00    -0.00   0.00  -0.00
   5   7     0.00   0.00  -0.00    -0.12   0.24   0.00     0.00  -0.00  -0.00
   6   6    -0.00  -0.00   0.00     0.26   0.00  -0.00    -0.00  -0.00  -0.00
   7   6     0.00   0.00  -0.02    -0.12  -0.23  -0.00    -0.00   0.00  -0.03
   8   6    -0.00  -0.00  -0.13     0.05   0.00  -0.00    -0.00   0.00  -0.18
   9   1     0.35   0.12   0.06    -0.06  -0.22  -0.15    -0.25  -0.09  -0.05
  10   1    -0.35  -0.13   0.06    -0.06  -0.22   0.15     0.25   0.09  -0.05
  11   1    -0.00   0.00   0.58    -0.07   0.13  -0.00    -0.00   0.00  -0.43
  12   1     0.00  -0.00  -0.00    -0.20   0.04   0.00     0.00  -0.00  -0.00
  13   1     0.00  -0.00  -0.00    -0.12   0.15   0.00     0.00  -0.00   0.00
  14   1     0.00  -0.00   0.00    -0.23  -0.03   0.00     0.00   0.00   0.00
  15   1    -0.01  -0.27   0.05    -0.08   0.09  -0.08    -0.01  -0.38   0.07
  16   1     0.00  -0.00   0.43     0.15   0.04   0.00    -0.00  -0.00   0.58
  17   1     0.00   0.27   0.05    -0.08   0.09   0.08     0.01   0.37   0.06
                     34                     35                     36
                        a                      a                      a 
 Frequencies --  1496.7665              1567.0661              1584.8416
 Red. masses --     1.0844                 7.5647                 7.3347
 Frc consts  --     0.0000                 0.0000                 0.0000
 IR Inten    --     5.5813                17.0166                74.6873
 Raman Activ --     0.0000                 0.0000                 0.0000
 Depolar     --     0.0000                 0.0000                 0.0000
 Atom AN      X      Y      Z        X      Y      Z        X      Y      Z
   1   6     0.12   0.05  -0.00     0.02  -0.04   0.00     0.04  -0.01   0.00
   2   6    -0.02  -0.00  -0.00     0.15   0.54   0.00    -0.30  -0.01   0.00
   3   6     0.07  -0.01  -0.00    -0.08  -0.20  -0.00     0.49  -0.06  -0.00
   4   6    -0.05   0.00   0.00    -0.11   0.39   0.00    -0.29   0.25   0.00
   5   7     0.07   0.05   0.00    -0.14  -0.37  -0.00     0.25   0.00  -0.00
   6   6    -0.06  -0.05  -0.00     0.17   0.16   0.00    -0.51  -0.00   0.00
   7   6    -0.06   0.06   0.00    -0.03  -0.45  -0.00     0.34  -0.15  -0.00
   8   6    -0.03   0.18   0.00     0.03   0.06   0.00    -0.03  -0.01  -0.00
   9   1    -0.13  -0.22  -0.15     0.02  -0.09  -0.06    -0.01  -0.01  -0.01
  10   1    -0.13  -0.22   0.15     0.02  -0.09   0.06    -0.01  -0.01   0.01
  11   1    -0.15   0.21   0.00    -0.08   0.10   0.00     0.01  -0.01  -0.00
  12   1    -0.01  -0.00   0.00    -0.01  -0.05  -0.00    -0.12  -0.01   0.00
  13   1     0.00  -0.03   0.00     0.06  -0.08  -0.00     0.01  -0.11  -0.00
  14   1     0.05  -0.01  -0.00    -0.05   0.02   0.00     0.13   0.03  -0.00
  15   1     0.31  -0.31   0.28    -0.01  -0.01  -0.00    -0.06   0.01  -0.04
  16   1    -0.36  -0.08  -0.01     0.05   0.02  -0.00     0.07   0.02   0.00
  17   1     0.31  -0.32  -0.28    -0.01  -0.01   0.00    -0.06   0.01   0.04
                     37                     38                     39
                        a                      a                      a 
 Frequencies --  3003.9379              3007.3212              3013.3822
 Red. masses --     1.0930                 1.0921                 1.0568
 Frc consts  --     0.0000                 0.0000                 0.0000
 IR Inten    --    26.6562                21.5112                20.3412
 Raman Activ --     0.0000                 0.0000                 0.0000
 Depolar     --     0.0000                 0.0000                 0.0000
 Atom AN      X      Y      Z        X      Y      Z        X      Y      Z
   1   6     0.00   0.00   0.00     0.00  -0.00  -0.29     0.00   0.02   0.00
   2   6    -0.00   0.00  -0.00     0.00  -0.00  -0.01    -0.00   0.00   0.00
   3   6    -0.00   0.00  -0.00    -0.00   0.00   0.00    -0.00  -0.00  -0.00
   4   6     0.00  -0.00   0.00    -0.00  -0.00   0.00     0.00  -0.00  -0.00
   5   7    -0.00  -0.00  -0.00    -0.00   0.00  -0.00    -0.00  -0.00   0.00
   6   6     0.00  -0.00   0.00     0.00   0.00   0.00     0.00  -0.01  -0.00
   7   6    -0.00  -0.00   0.01    -0.00   0.00  -0.00    -0.01  -0.00  -0.00
   8   6    -0.00   0.00   0.29    -0.00   0.00   0.00    -0.20   0.10  -0.00
   9   1    -0.00   0.00  -0.01     0.02  -0.41   0.53     0.00  -0.03   0.04
  10   1     0.00  -0.00  -0.01    -0.02   0.42   0.54     0.00  -0.03  -0.04
  11   1    -0.00  -0.00   0.00     0.00   0.00  -0.04    -0.01  -0.02   0.00
  12   1     0.00  -0.00   0.00     0.00  -0.00  -0.00     0.00   0.00   0.00
  13   1     0.00   0.00   0.00     0.00   0.00  -0.00     0.00   0.00  -0.00
  14   1     0.00   0.00   0.00     0.00  -0.00  -0.00    -0.00   0.02   0.00
  15   1     0.39  -0.14  -0.54     0.00  -0.00  -0.01     0.35  -0.12  -0.57
  16   1     0.00  -0.00   0.04     0.00  -0.00   0.00     0.01  -0.11  -0.00
  17   1    -0.39   0.14  -0.53    -0.00   0.00  -0.00     0.36  -0.12   0.58
                     40                     41                     42
                        a                      a                      a 
 Frequencies --  3019.7047              3041.3029              3045.8242
 Red. masses --     1.0528                 1.0739                 1.0676
 Frc consts  --     0.0000                 0.0000                 0.0000
 IR Inten    --    14.3529                 7.1922                56.8428
 Raman Activ --     0.0000                 0.0000                 0.0000
 Depolar     --     0.0000                 0.0000                 0.0000
 Atom AN      X      Y      Z        X      Y      Z        X      Y      Z
   1   6    -0.00  -0.21   0.00    -0.00  -0.00   0.00     0.00   0.01  -0.00
   2   6     0.00  -0.01   0.00    -0.00  -0.00  -0.00    -0.00  -0.00   0.00
   3   6    -0.00   0.01  -0.00     0.00   0.00   0.00     0.00   0.00   0.00
   4   6    -0.00  -0.00  -0.00    -0.00  -0.00  -0.00     0.00  -0.00  -0.00
   5   7    -0.00   0.00   0.00     0.00   0.01   0.00     0.00   0.01   0.00
   6   6    -0.00   0.00  -0.00    -0.02   0.22   0.00    -0.02   0.14   0.00
   7   6    -0.00   0.00   0.00     0.00   0.00  -0.00     0.00   0.01   0.00
   8   6    -0.02   0.01  -0.00     0.02  -0.12  -0.00    -0.04   0.20   0.00
   9   1    -0.02   0.39  -0.58    -0.00   0.00  -0.01     0.00  -0.01   0.02
  10   1    -0.02   0.38   0.57    -0.00   0.00   0.01     0.00  -0.01  -0.02
  11   1     0.03   0.00   0.00     0.01   0.01   0.00    -0.01  -0.01  -0.00
  12   1     0.00  -0.04   0.00    -0.00  -0.01  -0.00    -0.00  -0.01  -0.00
  13   1     0.01   0.00  -0.00     0.01   0.00  -0.00    -0.00  -0.00   0.00
  14   1     0.00  -0.00   0.00     0.07  -0.81  -0.00     0.04  -0.52  -0.00
  15   1     0.02  -0.01  -0.04     0.04  -0.03  -0.05    -0.04   0.04   0.05
  16   1     0.01  -0.03  -0.00    -0.14   0.50   0.00     0.21  -0.78  -0.00
  17   1     0.02  -0.01   0.04     0.04  -0.03   0.05    -0.04   0.04  -0.05
                     43                     44                     45
                        a                      a                      a 
 Frequencies --  3056.8584              3075.4551              3080.4117
 Red. masses --     1.0774                 1.0688                 1.0839
 Frc consts  --     0.0000                 0.0000                 0.0000
 IR Inten    --    28.0981                 9.1135                53.2984
 Raman Activ --     0.0000                 0.0000                 0.0000
 Depolar     --     0.0000                 0.0000                 0.0000
 Atom AN      X      Y      Z        X      Y      Z        X      Y      Z
   1   6    -0.00   0.00  -0.00    -0.20  -0.14  -0.00    -0.05  -0.04  -0.00
   2   6    -0.00   0.00   0.00    -0.01  -0.00  -0.00     0.01  -0.01  -0.00
   3   6    -0.00   0.05   0.00     0.00   0.07   0.00    -0.00  -0.26  -0.00
   4   6    -0.23  -0.11   0.00     0.02   0.01  -0.00    -0.06  -0.03   0.00
   5   7    -0.01  -0.01  -0.00     0.00   0.00  -0.00     0.00   0.00   0.00
   6   6     0.00  -0.00  -0.00    -0.00  -0.00  -0.00     0.00   0.00   0.00
   7   6     0.00  -0.00  -0.00    -0.00  -0.00   0.00    -0.00   0.00   0.00
   8   6     0.00   0.00   0.00    -0.00   0.00  -0.00    -0.00   0.00   0.00
   9   1     0.00  -0.01   0.01    -0.02  -0.04   0.03    -0.01   0.00  -0.01
  10   1     0.00  -0.01  -0.01    -0.02  -0.04  -0.03    -0.01   0.00   0.01
  11   1     0.01   0.01   0.00     0.74   0.57   0.00     0.19   0.14   0.00
  12   1    -0.00  -0.23  -0.00    -0.00  -0.22  -0.00     0.01   0.91   0.00
  13   1     0.83   0.44  -0.00    -0.06  -0.03   0.00     0.19   0.10  -0.00
  14   1    -0.00   0.01   0.00     0.00   0.00   0.00     0.00  -0.01  -0.00
  15   1    -0.00   0.00   0.00     0.01  -0.00  -0.01     0.00  -0.00  -0.00
  16   1     0.00  -0.01  -0.00     0.00  -0.01  -0.00     0.00  -0.01  -0.00
  17   1    -0.00   0.00  -0.00     0.01  -0.00   0.01     0.00  -0.00   0.00
