14
 energy: -20.782319683214 gnorm: 0.028123893169 xtb: 6.7.1 (41059b4)
C           -2.26255013245688        0.28783581334136        0.63607269096077
C           -1.30403018668485        0.51782622647704       -0.54027158330326
C            0.01005242714080       -0.17291737451791       -0.27637839089230
O            0.18155114816008       -1.36953283208728       -0.30680791273755
O            0.98426042178182        0.71343775749108        0.04575083123614
C            2.25886887866409        0.11606869653494        0.36723914244292
H           -3.23233926652408        0.74797308153216        0.43040041765848
H           -2.41347033494080       -0.78177643685260        0.80141536926904
H           -1.86441438102052        0.72750320756900        1.55506809505652
H           -1.14116074173962        1.58531649580649       -0.70562833267736
H           -1.72422774936455        0.07868472391512       -1.45015365439925
H            2.63349820789042       -0.46078285861498       -0.48201231578017
H            2.16050050538650       -0.54533610713052        1.23190846678694
H            2.92346758638439        0.94993104062397        0.59199930126584
14
 energy: -20.783057260161 gnorm: 0.010286243006 xtb: 6.7.1 (41059b4)
C           -2.25903517360120        0.28866563424997        0.63214048454825
C           -1.30189035262095        0.51519597960072       -0.53902968646350
C            0.00755496100270       -0.18028435777767       -0.26107611907696
O            0.18072184464027       -1.36909667879097       -0.30210473223649
O            0.98000631821648        0.69664730876730        0.05227120420398
C            2.25264975355388        0.12082571094030        0.36494808093390
H           -3.22271420180743        0.74929107704729        0.42284450584278
H           -2.40746233345778       -0.77733771590414        0.79341832717998
H           -1.85698891776085        0.72623005934284        1.54474632002776
H           -1.12715944265316        1.58065323095120       -0.69090988465476
H           -1.72881644088164        0.08222059996028       -1.44664428191209
H            2.62152217571201       -0.45336626030952       -0.48597058230731
H            2.15786502985131       -0.54042478554709        1.22740913359008
H            2.91375316248315        0.95501163155736        0.58655935521117
14
 energy: -20.783178159226 gnorm: 0.004276810320 xtb: 6.7.1 (41059b4)
C           -2.25519609153798        0.28998766314334        0.63235608420809
C           -1.30020942453862        0.51454089061597       -0.54004074001889
C            0.00903389967534       -0.18628885655038       -0.26849087447877
O            0.17908284223635       -1.37453196214539       -0.29959658188529
O            0.97475091659033        0.68585827048973        0.05203785325512
C            2.24428948505082        0.12426291909694        0.36554630987097
H           -3.21705866106855        0.75022895972427        0.42411561691665
H           -2.40309241387383       -0.77451847731177        0.79239994210073
H           -1.85081198247644        0.72635513337645        1.54206423606432
H           -1.11582492531600        1.57823680148740       -0.68589877037498
H           -1.73236483379077        0.08667699739505       -1.44580467921108
H            2.61897322654670       -0.44755785129752       -0.48428272622598
H            2.15712940606261       -0.53916320214780        1.22697423196674
H            2.90130493911684        0.96014414821158        0.58722222269915
14
 energy: -20.783198238736 gnorm: 0.001205013435 xtb: 6.7.1 (41059b4)
C           -2.25507647533967        0.29029858563800        0.63217979985745
C           -1.30001520024094        0.51468165724680       -0.54085596063433
C            0.00720712384024       -0.18988349916113       -0.26471893336967
O            0.17729691206384       -1.37912017977755       -0.30042623278894
O            0.97204626586730        0.68229355144096        0.05317129327695
C            2.24206660189197        0.12565865406119        0.36463296809748
H           -3.21681148891706        0.75104178421800        0.42388643676559
H           -2.40315373066464       -0.77440442979550        0.79258388393196
H           -1.85017153724685        0.72681954880932        1.54182585792435
H           -1.11075850434985        1.57788286525707       -0.68404365136322
H           -1.73188512019998        0.09031677606395       -1.44811065417211
H            2.62073257695740       -0.44639710790300       -0.48416717288871
H            2.16123815359207       -0.53841958206083        1.22706020525995
H            2.89729080542297        0.96346281005059        0.58558428499004
14
 energy: -20.783201599617 gnorm: 0.000949661815 xtb: 6.7.1 (41059b4)
C           -2.25549368171298        0.29083220987089        0.63241625713048
C           -1.30018882089899        0.51413928628226       -0.54116444950842
C            0.00691118581437       -0.19246402772998       -0.26709695767866
O            0.17520425713797       -1.38257058920637       -0.30263062149705
O            0.97114393421827        0.68010093183175        0.05246889364487
C            2.24181970269716        0.12635891235541        0.36499387515187
H           -3.21786583830953        0.75193309198432        0.42495899573188
H           -2.40377851958318       -0.77422953662326        0.79357941698542
H           -1.84963598143869        0.72789931653480        1.54201303774620
H           -1.10843803867077        1.57705833210084       -0.68326782508429
H           -1.73349281276185        0.09270316516144       -1.44911838537066
H            2.62434972174347       -0.44568667443650       -0.48290421423763
H            2.16418302444754       -0.53808688564273        1.22815238409512
H            2.89528824999399        0.96624390160499        0.58620171777763
14
 energy: -20.783202148898 gnorm: 0.000123636728 xtb: 6.7.1 (41059b4)
C           -2.25531872159406        0.29077614525522        0.63244196364304
C           -1.30016973322871        0.51411104317740       -0.54100301299917
C            0.00681561387153       -0.19267986905320       -0.26709337624030
O            0.17497428874825       -1.38241494306980       -0.30329342685309
O            0.97133341126867        0.67986052130379        0.05236142746586
C            2.24213227714489        0.12620811833727        0.36505600099328
H           -3.21754928503600        0.75170518289245        0.42456281083148
H           -2.40377756867722       -0.77409581793324        0.79394350264125
H           -1.84995039699020        0.72811741287739        1.54200232563300
H           -1.10853073883012        1.57708081203250       -0.68305600899701
H           -1.73361330598822        0.09270100519882       -1.44892397514189
H            2.62445844456253       -0.44560707180509       -0.48286886329468
H            2.16391973165662       -0.53780195407903        1.22828493200618
H            2.89528236576881        0.96627084895338        0.58618782519882
14
 energy: -20.783202193903 gnorm: 0.000032905033 xtb: 6.7.1 (41059b4)
C           -2.25525418281208        0.29087613073106        0.63248560045550
C           -1.30016375028472        0.51408616506277       -0.54095324633871
C            0.00675946670736       -0.19296562376962       -0.26725738027823
O            0.17496808312025       -1.38263893389359       -0.30388365912553
O            0.97121045932874        0.67961822971325        0.05237304192189
C            2.24210099051276        0.12617445117711        0.36512233074309
H           -3.21755847353367        0.75155223021538        0.42446024154336
H           -2.40348216877356       -0.77396401139956        0.79421621670127
H           -1.84996587648214        0.72848376777915        1.54191668521723
H           -1.10836688008350        1.57703406329154       -0.68288618798582
H           -1.73374564950930        0.09281147021147       -1.44886065461955
H            2.62458882307246       -0.44549107614911       -0.48275730680529
H            2.16392771873042       -0.53773906120241        1.22837169689676
H            2.89498782268377        0.96639363232043        0.58625474656080
