      -----------------------------------------------------------      
     |                   =====================                   |     
     |                           x T B                           |     
     |                   =====================                   |     
     |                         S. Grimme                         |     
     |          Mulliken Center for Theoretical Chemistry        |     
     |                    University of Bonn                     |     
      -----------------------------------------------------------      

   * xtb version 6.7.1 (41059b4) compiled by 'michael@archlinux' on 2025-03-24

   xtb is free software: you can redistribute it and/or modify it under
   the terms of the GNU Lesser General Public License as published by
   the Free Software Foundation, either version 3 of the License, or
   (at your option) any later version.
   
   xtb is distributed in the hope that it will be useful,
   but WITHOUT ANY WARRANTY; without even the implied warranty of
   MERCHANTABILITY or FITNESS FOR A PARTICULAR PURPOSE.  See the
   GNU Lesser General Public License for more details.
   
   Cite this work as:
   * C. Bannwarth, E. Caldeweyher, S. Ehlert, A. Hansen, P. Pracht,
     J. Seibert, S. Spicher, S. Grimme, WIREs Comput. Mol. Sci., 2020, 11,
     e01493. DOI: 10.1002/wcms.1493
   
   for GFN2-xTB:
   * C. Bannwarth, S. Ehlert and S. Grimme., J. Chem. Theory Comput., 2019,
     15, 1652-1671. DOI: 10.1021/acs.jctc.8b01176
   for GFN1-xTB:
   * S. Grimme, C. Bannwarth, P. Shushkov, J. Chem. Theory Comput., 2017,
     13, 1989-2009. DOI: 10.1021/acs.jctc.7b00118
   for GFN0-xTB:
   * P. Pracht, E. Caldeweyher, S. Ehlert, S. Grimme, ChemRxiv, 2019, preprint.
     DOI: 10.26434/chemrxiv.8326202.v1
   for GFN-FF:
   * S. Spicher and S. Grimme, Angew. Chem. Int. Ed., 2020, 59, 15665-15673.
     DOI: 10.1002/anie.202004239
   
   for ALPB and GBSA implicit solvation:
   * S. Ehlert, M. Stahn, S. Spicher, S. Grimme, J. Chem. Theory Comput.,
     2021, 17, 4250-4261. DOI: 10.1021/acs.jctc.1c00471
   
   for ddCOSMO and CPCM-X implicit solvation:
   * M. Stahn, S. Ehlert, S. Grimme, J. Phys. Chem. A,
     2023, XX, XXXX-XXXX. DOI: 10.1021/acs.jpca.3c04382
   
   for DFT-D4:
   * E. Caldeweyher, C. Bannwarth and S. Grimme, J. Chem. Phys., 2017,
     147, 034112. DOI: 10.1063/1.4993215
   * E. Caldeweyher, S. Ehlert, A. Hansen, H. Neugebauer, S. Spicher,
     C. Bannwarth and S. Grimme, J. Chem. Phys., 2019, 150, 154122.
     DOI: 10.1063/1.5090222
   * E. Caldeweyher, J.-M. Mewes, S. Ehlert and S. Grimme, Phys. Chem. Chem. Phys.
     2020, 22, 8499-8512. DOI: 10.1039/D0CP00502A
   
   for sTDA-xTB:
   * S. Grimme and C. Bannwarth, J. Chem. Phys., 2016, 145, 054103.
     DOI: 10.1063/1.4959605
   
   in the mass-spec context:
   * V. Asgeirsson, C. Bauer and S. Grimme, Chem. Sci., 2017, 8, 4879.
     DOI: 10.1039/c7sc00601b
   * J. Koopman and S. Grimme, ACS Omega 2019, 4, 12, 15120-15133.
     DOI: 10.1021/acsomega.9b02011
   
   for metadynamics refer to:
   * S. Grimme, J. Chem. Theory Comput., 2019, 155, 2847-2862
     DOI: 10.1021/acs.jctc.9b00143
   
   for SPH calculations refer to:
   * S. Spicher and S. Grimme, J. Chem. Theory Comput., 2021, 17, 1701-1714
     DOI: 10.1021/acs.jctc.0c01306
   
   for ONIOM refer to:
   * C. Plett, A. Katbashev, S. Ehlert, S. Grimme, M. Bursch,
     Phys. Chem. Chem. Phys., 2023, 25, 17860-17868. DOI: 10.1039/D3CP02178E
   
   for DIPRO refer to:
   * J. Kohn, N. Gildemeister, S. Grimme, D. Fazzi, A. Hansen,
     J. Chem. Phys., 2023, just accepted.
   
   for PTB refer to:
   * S. Grimme, M. Mueller, A. Hansen, J. Chem. Phys., 2023, 158, 124111.
     DOI: 10.1063/5.0137838
   
   with help from (in alphabetical order)
   P. Atkinson, C. Bannwarth, F. Bohle, G. Brandenburg, E. Caldeweyher
   M. Checinski, S. Dohm, S. Ehlert, S. Ehrlich, I. Gerasimov, C. Hölzer
   A. Katbashev, J. Kohn, J. Koopman, C. Lavigne, S. Lehtola, F. März, M. Müller,
   F. Musil, H. Neugebauer, J. Pisarek, C. Plett, P. Pracht, F. Pultar,
   J. Seibert, P. Shushkov, S. Spicher, M. Stahn, M. Steiner, T. Strunk,
   J. Stückrath, T. Rose, and J. Unsleber
   
 * started run on 2025/04/09 at 02:30:18.700     
   ID    Z sym.   atoms
    1    6 C      1, 2, 4, 6, 8
    2    1 H      3, 5, 7, 9, 15-20
    3    8 O      10-14

           -------------------------------------------------
          |                Calculation Setup                |
           -------------------------------------------------

          program call               : /usr/bin/xtb xtb_opt.coord --opt normal --orca -I xtb_opt-xcontrol-inp
          coordinate file            : xtb_opt.coord
          omp threads                :                    16

           -------------------------------------------------
          |                   Orca driver                   |
           -------------------------------------------------
orca executable           : /home/michael/Documents/CHEM4561/orca_avx2/orca
orca input file           : xtb_opt.inp
orca input line           : 
orca parallel             : true
orca number of threads    : 16
                         * ORCA takes the control...
  ------------------------------------------------------------------------

                                 *****************
                                 * O   R   C   A *
                                 *****************

                                            #,                                       
                                            ###                                      
                                            ####                                     
                                            #####                                    
                                            ######                                   
                                           ########,                                 
                                     ,,################,,,,,                         
                               ,,#################################,,                 
                          ,,##########################################,,             
                       ,#########################################, ''#####,          
                    ,#############################################,,   '####,        
                  ,##################################################,,,,####,       
                ,###########''''           ''''###############################       
              ,#####''   ,,,,##########,,,,          '''####'''          '####       
            ,##' ,,,,###########################,,,                        '##       
           ' ,,###''''                  '''############,,,                           
         ,,##''                                '''############,,,,        ,,,,,,###''
      ,#''                                            '''#######################'''  
     '                                                          ''''####''''         
             ,#######,   #######,   ,#######,      ##                                
            ,#'     '#,  ##    ##  ,#'     '#,    #''#        ,####,   ,####,        
            ##       ##  ##   ,#'  ##            #'  '#       #'       #'  '#        
            ##       ##  #######   ##           ,######,      #####,   #    #        
            '#,     ,#'  ##    ##  '#,     ,#' ,#      #,     #,   #   #,  ,#        
             '#######'   ##     ##  '#######'  #'      '#     '####' # '####'        



                #########################################################
                #                        -***-                          #
                #          Department of theory and spectroscopy        #
                #                                                       #
                #                      Frank Neese                      #
                #                                                       #
                #     Directorship, Architecture, Infrastructure        #
                #                    SHARK, DRIVERS                     #
                #        Core code/Algorithms in most modules           #
                #                                                       #
                #        Max Planck Institute fuer Kohlenforschung      #
                #                Kaiser Wilhelm Platz 1                 #
                #                 D-45470 Muelheim/Ruhr                 #
                #                      Germany                          #
                #                                                       #
                #                  All rights reserved                  #
                #                        -***-                          #
                #########################################################


                         Program Version 6.0.1  -  RELEASE   -


 With contributions from (in alphabetic order):
[Max-Planck-Institut fuer Kohlenforschung]                               
  Daniel Aravena         : Magnetic Suceptibility                        
  Michael Atanasov       : Ab Initio Ligand Field Theory (pilot matlab implementation)
  Alexander A. Auer      : GIAO ZORA, VPT2 properties, NMR spectrum      
  Ute Becker             : All parallelization in ORCA, NUMFREQ, NUMCALC 
  Giovanni Bistoni       : ED, misc. LED, open-shell LED, HFLD           
  Martin Brehm           : Molecular dynamics                            
  Dmytro Bykov           : pre 5.0 version of the SCF Hessian            
  Marcos Casanova-Páez   : Triplet and SCS-CIS(D). UHF-(DLPNO)-IP/EA/STEOM-CCSD. UHF-CVS-IP/STEOM-CCSD   
  Vijay G. Chilkuri      : MRCI spin determinant printing, contributions to CSF-ICE 
  Pauline Colinet        : FMM embedding                                 
  Dipayan Datta          : RHF DLPNO-CCSD density                        
  Achintya Kumar Dutta   : EOM-CC, STEOM-CC                              
  Nicolas Foglia         : Exact transition moments, OPA infrastructure, MCD improvements    
  Dmitry Ganyushin       : Spin-Orbit,Spin-Spin,Magnetic field MRCI      
  Miquel Garcia-Rates    : C-PCM and meta-GGA Hessian, CCSD/C-PCM, Gaussian charge scheme 
  Tiago L. C. Gouveia    : GS-ROHF, GS-ROCIS                             
  Yang Guo               : DLPNO-NEVPT2, F12-NEVPT2, CIM, IAO-localization        
  Andreas Hansen         : Spin unrestricted coupled pair/coupled cluster methods 
  Ingolf Harden          : AUTO-CI MPn and infrastructure                
  Benjamin Helmich-Paris : MC-RPA, TRAH-(SCF,CASSCF), AVAS, COSX integrals, SCF dyn. polar. 
  Lee Huntington         : MR-EOM, pCC                                   
  Robert Izsak           : Overlap fitted RIJCOSX, COSX-SCS-MP3, EOM     
  Riya Kayal             : Wick's Theorem for AUTO-CI, AUTO-CI UHF-CCSDT 
  Emily Kempfer          : AUTO-CI, RHF CISDT and CCSDT                  
  Christian Kollmar      : KDIIS, OOCD, Brueckner-CCSD(T), CCSD density, CASPT2, CASPT2-K, improved NEVPT2 
  Axel Koslowski         : Symmetry handling                             
  Simone Kossmann        : meta-GGA functionals, TD-DFT gradient, OOMP2, (MP2 Hessian; deprecated post 5.0) 
  Lucas Lang             : DCDCAS                                        
  Marvin Lechner         : AUTO-CI (C++ implementation), FIC-MRCC        
  Spencer Leger          : CASSCF response                               
  Dagmar Lenk            : GEPOL surface, SMD, ORCA-2-JSON               
  Dimitrios Liakos       : Extrapolation schemes; Compound Job, initial MDCI parallelization 
  Dimitrios Manganas     : Further ROCIS development; embedding schemes. LFT, Crystal Embedding 
  Dimitrios Pantazis     : SARC Basis sets                               
  Anastasios Papadopoulos: AUTO-CI, single reference methods and gradients 
  Taras Petrenko         : pre 6.0 DFT Hessian and TD-DFT gradient, (ASA, deprecated), ECA, 1-Electron XAS/XES, NRVS 
  Peter Pinski           : DLPNO-MP2, DLPNO-MP2 Gradient                 
  Christoph Reimann      : Effective Core Potentials                     
  Marius Retegan         : Local ZFS, SOC                                
  Christoph Riplinger    : Optimizer, TS searches, QM/MM, DLPNO-CCSD(T), (RO)-DLPNO pert. Triples 
  Michael Roemelt        : Original ROCIS implementation                 
  Masaaki Saitow         : Open-shell DLPNO-CCSD energy and density      
  Barbara Sandhoefer     : DKH picture change effects                    
  Kantharuban Sivalingam : CASSCF convergence/infrastructure, NEVPT2 and variants, FIC-MRCI 
  Bernardo de Souza      : ESD, SOC TD-DFT                               
  Georgi L. Stoychev     : AutoAux, RI-MP2 NMR, DLPNO-MP2 response, X2C  
  Van Anh Tran           : RI-MP2 g-tensors                              
  Willem Van den Heuvel  : Paramagnetic NMR                              
  Zikuan Wang            : NOTCH, Electric field optimization            
  Frank Wennmohs         : Technical directorship and infrastructure     
  Hang Xu                : AUTO-CI-Response properties                   
                                                                         
[FACCTs GmbH]                                                            
  Markus Bursch, Miquel Garcia-Rates, Christoph Riplinger, Bernardo de Souza, Georgi L. Stoychev 
                                                                 
  APM, Basis sets (HGBS, AHGBS, def-TZVP (Ac-Lr), def2-XVPD (La-Lu)), CI-OPT, improved COSX, DLPNO-Multilevel,           
  DOCKER, DRACO, updates on ESD, GOAT, IRC, LR-CPCM, MBIS, meta-GGA TD-DFT gradient, ML-optimized integration grids, 
  MM, NACMEs, nearIR, NEB, NEB-TS, NL-DFT gradient (VV10), 2- and 3-layer-ONIOM, interface openCOSMO-RS, QMMM,   
  Crystal-QMMM, SF, symmetry and pop. for TD-DFT, r2SCAN hybrids, SOLVATOR                                   
                                                                         
[Other institutions]                                                     
  V. Asgeirsson          : NEB                                           
  Christoph Bannwarth    : sTDA-DFT, sTD-DFT, PBEh-3c, B97-3c, D3        
  Sebastian Ehlert       : rSCAN, r2SCAN, r2SCAN-3c, D4, dhf basis sets  
  Marvin Friede          : D4 for Fr, Ra, Ac-Lr                          
  Lars Goerigk           : TD-DFT with DH, B97 family of functionals     
  Stefan Grimme          : VdW corrections, initial TS optimization, DFT functionals, gCP, sTDA/sTD-DF 
  Waldemar Hujo          : DFT-NL                                        
  H. Jonsson             : NEB                                           
  Holger Kruse           : gCP                                           
  Marcel Mueller         : wB97X-3c, vDZP basis set                      
  Hagen Neugebauer       : wr2SCAN                                       
  Tobias Risthaus        : range-separated hybrid DFT                    
  Lukas Wittmann         : regularized MP2, r2SCAN double-hybrids, wr2SCAN        
                                                                         
We gratefully acknowledge several colleagues who have allowed us to      
interface, adapt or use parts of their codes:                            
  Ed Valeev, F. Pavosevic, A. Kumar             : LibInt (2-el integral package), F12 methods 
  Garnet Chan, S. Sharma, J. Yang, R. Olivares  : DMRG                   
  Ulf Ekstrom                                   : XCFun DFT Library      
  Mihaly Kallay                                 : mrcc  (arbitrary order and MRCC methods)
  Frank Weinhold                                : gennbo (NPA and NBO analysis)           
  Simon Mueller                                 : openCOSMO-RS                            
  Christopher J. Cramer and Donald G. Truhlar   : smd solvation model                     
  S Lehtola, MJT Oliveira, MAL Marques          : LibXC Library                           
  Liviu Ungur et al                             : ANISO software                          


 Your calculation uses the libint2 library for the computation of 2-el integrals
 For citations please refer to: http://libint.valeyev.net

 Your ORCA version has been built with support for libXC version: 6.2.2
 For citations please refer to: https://libxc.gitlab.io

 This ORCA versions uses:
   CBLAS   interface :  Fast vector & matrix operations
   LAPACKE interface :  Fast linear algebra routines
   SCALAPACK package :  Parallel linear algebra routines
   Shared memory     :  Shared parallel matrices
   BLAS/LAPACK       :  OpenBLAS 0.3.27  USE64BITINT DYNAMIC_ARCH NO_AFFINITY Zen SINGLE_THREADED
        Core in use  :  Zen
   Copyright (c) 2011-2014, The OpenBLAS Project




***************************************
The coordinates will be read from file: xtb_opt.xyz
***************************************


Your calculation utilizes the geometrical counterpoise correction gCP
Please cite in your paper:
H.Kruse, S. Grimme J.Chem.Phys., 136, (2012), 154101 
   

Your calculation utilizes the atom-pairwise dispersion correction
based on EEQ partial charges (D4)


================================================================================

----- Orbital basis set information -----
Your calculation utilizes the basis: def2-mTZVPP
   Stefan Grimme, Andreas Hansen, Sebastian Ehlert, and Jan-Michael Mewes 
   J. Chem. Phys. 154, 064103 (2021). DOI: 10.1063/5.0040021

----- AuxJ basis set information -----
Your calculation utilizes the auxiliary basis: def2/J
   F. Weigend, Phys. Chem. Chem. Phys. 8, 1057 (2006).

================================================================================
                                        WARNINGS
                       Please study these warnings very carefully!
================================================================================

WARNING: Old DensityContainer found on disk!
         Will remove this file - 
         If you want to keep old densities, please start your calculation with a different basename. 



WARNING: SCAN, rSCAN, or r2SCAN functional requested.
  ===> : libXC variant has now been activated.



================================================================================
                                       INPUT FILE
================================================================================
NAME = xtb_opt.inp
|  1> ! r2scan-3c def2/J RI DEFGRID2 scfconv7 ENGRAD tightSCF miniprint
|  2> * xyzfile 0 1 xtb_opt.xyz
|  3> 
|  4>                          ****END OF INPUT****
================================================================================

                     *******************************
                     * Energy+Gradient Calculation *
                     *******************************

---------------------------------
CARTESIAN COORDINATES (ANGSTROEM)
---------------------------------
  C      0.578705    1.728137   -0.043019
  C      1.381124    0.445583   -0.257076
  H      1.603379    0.313726   -1.327653
  C      0.560639   -0.742876    0.215076
  H      0.403160   -0.661186    1.301778
  C     -0.789122   -0.742262   -0.490059
  H     -0.606267   -0.822782   -1.575361
  C     -1.500804    0.592650   -0.267291
  H     -2.403489    0.648099   -0.889865
  O     -0.677183    1.658032   -0.731210
  O     -1.810679    0.711136    1.100227
  O     -1.625038   -1.795031   -0.044542
  O      1.187037   -1.985753   -0.109946
  O      2.587648    0.445008    0.516866
  H      1.100534    2.594872   -0.460533
  H      0.431240    1.887598    1.033917
  H     -2.385708    1.477821    1.206811
  H     -1.093067   -2.599773   -0.077731
  H      2.036784   -2.002047    0.345126
  H      3.222696    1.036600    0.098057

----------------------------
CARTESIAN COORDINATES (A.U.)
----------------------------
  NO LB      ZA    FRAG     MASS         X           Y           Z
   0 C     6.0000    0    12.011    1.093594    3.265705   -0.081294
   1 C     6.0000    0    12.011    2.609946    0.842030   -0.485803
   2 H     1.0000    0     1.008    3.029948    0.592857   -2.508901
   3 C     6.0000    0    12.011    1.059454   -1.403833    0.406434
   4 H     1.0000    0     1.008    0.761861   -1.249461    2.460003
   5 C     6.0000    0    12.011   -1.491224   -1.402671   -0.926078
   6 H     1.0000    0     1.008   -1.145679   -1.554832   -2.977001
   7 C     6.0000    0    12.011   -2.836109    1.119946   -0.505107
   8 H     1.0000    0     1.008   -4.541935    1.224730   -1.681601
   9 O     8.0000    0    15.999   -1.279690    3.133227   -1.381786
  10 O     8.0000    0    15.999   -3.421688    1.343852    2.079128
  11 O     8.0000    0    15.999   -3.070877   -3.392117   -0.084172
  12 O     8.0000    0    15.999    2.243174   -3.752529   -0.207767
  13 O     8.0000    0    15.999    4.889947    0.840944    0.976736
  14 H     1.0000    0     1.008    2.079708    4.903598   -0.870280
  15 H     1.0000    0     1.008    0.814926    3.567044    1.953821
  16 H     1.0000    0     1.008   -4.508334    2.792677    2.280543
  17 H     1.0000    0     1.008   -2.065598   -4.912860   -0.146890
  18 H     1.0000    0     1.008    3.848963   -3.783320    0.652193
  19 H     1.0000    0     1.008    6.090012    1.958890    0.185302

------------------------------------------------------------------------------
                   ___                                                        
                  /   \      - P O W E R E D   B Y -                         
                 /     \                                                     
                 |  |  |   _    _      __       _____    __    __             
                 |  |  |  | |  | |    /  \     |  _  \  |  |  /  |          
                  \  \/   | |  | |   /    \    | | | |  |  | /  /          
                 / \  \   | |__| |  /  /\  \   | |_| |  |  |/  /          
                |  |  |   |  __  | /  /__\  \  |    /   |      \           
                |  |  |   | |  | | |   __   |  |    \   |  |\   \          
                \     /   | |  | | |  |  |  |  | |\  \  |  | \   \       
                 \___/    |_|  |_| |__|  |__|  |_| \__\ |__|  \__/        
                                                                              
                      - O R C A' S   B I G   F R I E N D -                    
                                      &                                       
                       - I N T E G R A L  F E E D E R -                       
                                                                              
 v1 FN, 2020, v2 2021, v3 2022-2024                                           
------------------------------------------------------------------------------


----------------------
SHARK INTEGRAL PACKAGE
----------------------

Number of atoms                             ...     20
Number of basis functions                   ...    265
Number of shells                            ...    125
Maximum angular momentum                    ...      2
Integral batch strategy                     ... SHARK/LIBINT Hybrid
RI-J (if used) integral strategy            ... SPLIT-RIJ (Revised 2003 algorithm where possible)
Printlevel                                  ...      1
Contraction scheme used                     ... SEGMENTED contraction
Prescreening option                         ... SCHWARTZ
   Thresh                                   ... 3.000e-11
   Tcut                                     ... 1.000e-12
   Tpresel                                  ... 1.000e-12 
Coulomb Range Separation                    ... NOT USED
Exchange Range Separation                   ... NOT USED
Multipole approximations                    ... NOT USED
Finite Nucleus Model                        ... NOT USED
CABS basis                                  ... NOT available
Auxiliary Coulomb fitting basis             ... AVAILABLE
   # of basis functions in Aux-J            ...    600
   # of shells in Aux-J                     ...    200
   Maximum angular momentum in Aux-J        ...      4
Auxiliary J/K fitting basis                 ... NOT available
Auxiliary Correlation fitting basis         ... NOT available
Auxiliary 'external' fitting basis          ... NOT available

Checking pre-screening integrals            ... done (  0.0 sec) Dimension = 125
Check shell pair data                       ... done (  0.0 sec)
Shell pair information
Shell pair cut-off parameter TPreSel        ...   1.0e-12
Total number of shell pairs                 ...      7875
Shell pairs after pre-screening             ...      7141
Total number of primitive shell pairs       ...     27980
Primitive shell pairs kept                  ...     17911
          la=0 lb=0:   2164 shell pairs
          la=1 lb=0:   2547 shell pairs
          la=1 lb=1:    769 shell pairs
          la=2 lb=0:    971 shell pairs
          la=2 lb=1:    574 shell pairs
          la=2 lb=2:    116 shell pairs

Calculating one electron integrals          ... done (  0.0 sec)
Calculating RI/J V-Matrix + Cholesky decomp.... done (  0.0 sec)
Calculating Nuclear repulsion               ... done (  0.0 sec) ENN=    622.582282635416 Eh

Diagonalization of the overlap matrix:
Smallest eigenvalue                        ... 4.212e-05
Time for diagonalization                   ...    0.007 sec
Threshold for overlap eigenvalues          ... 1.000e-07
Number of eigenvalues below threshold      ... 0
Time for construction of square roots      ...    0.003 sec
Total time needed                          ...    0.011 sec

-------------------
DFT GRID GENERATION
-------------------

General Integration Accuracy     IntAcc      ... 4.388
Radial Grid Type                 RadialGrid  ... OptM3 with GC (2021)
Angular Grid (max. ang.)         AngularGrid ... 4 (Lebedev-302)
Angular grid pruning method      GridPruning ... 4 (adaptive)
Weight generation scheme         WeightScheme... mBecke (2022)
Basis function cutoff            BFCut       ... 1.0000e-11
Integration weight cutoff        WCut        ... 1.0000e-14
Partially contracted basis set               ... off
Rotationally invariant grid construction     ... off
Angular grids for H and He will be reduced by one unit
Diffuse basis detected: some atoms will have their outermost
                        angular grid increased by 1.

Total number of grid points                  ...    93560
Total number of batches                      ...     1471
Average number of points per batch           ...       63
Average number of grid points per atom       ...     4678
Initializing property integral containers    ... done (  0.0 sec)

SHARK setup successfully completed in   1.0 seconds

Maximum memory used throughout the entire STARTUP-calculation: 46.1 MB
Occupation numbers will be reassigned to an Aufbau configuration
             **** ENERGY FILE WAS UPDATED (xtb_opt.en.tmp) ****
Finished Guess after   0.1 sec
Maximum memory used throughout the entire GUESS-calculation: 20.9 MB
----------------------------------------D-I-I-S--------------------------------------------
Iteration    Energy (Eh)           Delta-E    RMSDP     MaxDP     DIISErr   Damp  Time(sec)
-------------------------------------------------------------------------------------------
               ***  Starting incremental Fock matrix formation  ***
                              *** Initializing SOSCF ***
---------------------------------------S-O-S-C-F--------------------------------------
Iteration    Energy (Eh)           Delta-E    RMSDP     MaxDP     MaxGrad    Time(sec)
--------------------------------------------------------------------------------------
    1    -572.5732240125254293     0.00e+00  2.23e-06  1.05e-04  3.19e-06     4.2
               *** Restarting incremental Fock matrix formation ***
    2    -572.5732240100998069     2.43e-09  3.81e-06  1.97e-04  1.19e-05     4.2
                  *** Gradient check signals convergence ***

               *****************************************************
               *                     SUCCESS                       *
               *           SCF CONVERGED AFTER   2 CYCLES          *
               *****************************************************

             **** ENERGY FILE WAS UPDATED (xtb_opt.en.tmp) ****

----------------
TOTAL SCF ENERGY
----------------

Total Energy       :       -572.57322401009981 Eh          -15580.50952 eV

Components:
Nuclear Repulsion  :        622.58228263541594 Eh           16941.32519 eV
Electronic Energy  :      -1195.15550664551574 Eh          -32521.83471 eV
One Electron Energy:      -2020.59789049676510 Eh          -54983.26390 eV
Two Electron Energy:        825.44238385124925 Eh           22461.42918 eV

Virial components:
Potential Energy   :      -1142.80727487113245 Eh          -31097.36691 eV
Kinetic Energy     :        570.23405086103264 Eh           15516.85739 eV
Virial Ratio       :          2.00410212814464

DFT components:
N(Alpha)           :       39.999978909914 electrons
N(Beta)            :       39.999978909914 electrons
N(Total)           :       79.999957819828 electrons
E(X)               :      -71.031780115388 Eh       
E(C)               :       -2.656881151815 Eh       
E(XC)              :      -73.688661267203 Eh       

---------------
SCF CONVERGENCE
---------------

  Last Energy change         ...   -2.4256e-09  Tolerance :   1.0000e-07
  Last MAX-Density change    ...    1.9737e-04  Tolerance :   1.0000e-07
  Last RMS-Density change    ...    3.8075e-06  Tolerance :   5.0000e-09
  Last DIIS Error            ...    5.4447e-05  Tolerance :   1.0000e-07
  Last Orbital Gradient      ...    1.1865e-05  Tolerance :   1.0000e-04
  Last Orbital Rotation      ...    2.2465e-05  Tolerance :   1.0000e-04


----------------
ORBITAL ENERGIES
----------------

  NO   OCC          E(Eh)            E(eV) 
   0   2.0000     -18.970869      -516.2236 
   1   2.0000     -18.969246      -516.1794 
   2   2.0000     -18.965126      -516.0673 
   3   2.0000     -18.959883      -515.9247 
   4   2.0000     -18.948792      -515.6229 
   5   2.0000     -10.138218      -275.8749 
   6   2.0000     -10.094375      -274.6819 
   7   2.0000     -10.088783      -274.5297 
   8   2.0000     -10.087844      -274.5042 
   9   2.0000     -10.085891      -274.4510 
  10   2.0000      -1.041004       -28.3272 
  11   2.0000      -1.010153       -27.4877 
  12   2.0000      -0.995512       -27.0893 
  13   2.0000      -0.978131       -26.6163 
  14   2.0000      -0.973021       -26.4773 
  15   2.0000      -0.754548       -20.5323 
  16   2.0000      -0.724583       -19.7169 
  17   2.0000      -0.621735       -16.9183 
  18   2.0000      -0.608533       -16.5590 
  19   2.0000      -0.550855       -14.9895 
  20   2.0000      -0.517733       -14.0882 
  21   2.0000      -0.507927       -13.8214 
  22   2.0000      -0.494005       -13.4426 
  23   2.0000      -0.469083       -12.7644 
  24   2.0000      -0.449935       -12.2434 
  25   2.0000      -0.432170       -11.7600 
  26   2.0000      -0.415728       -11.3125 
  27   2.0000      -0.398598       -10.8464 
  28   2.0000      -0.382620       -10.4116 
  29   2.0000      -0.376219       -10.2374 
  30   2.0000      -0.360547        -9.8110 
  31   2.0000      -0.340432        -9.2636 
  32   2.0000      -0.327582        -8.9140 
  33   2.0000      -0.305858        -8.3228 
  34   2.0000      -0.284693        -7.7469 
  35   2.0000      -0.278700        -7.5838 
  36   2.0000      -0.263949        -7.1824 
  37   2.0000      -0.252555        -6.8724 
  38   2.0000      -0.238942        -6.5019 
  39   2.0000      -0.235897        -6.4191 
  40   0.0000       0.025688         0.6990 
  41   0.0000       0.049768         1.3543 
  42   0.0000       0.062942         1.7128 
  43   0.0000       0.089232         2.4281 
  44   0.0000       0.091680         2.4947 
  45   0.0000       0.112359         3.0574 
  46   0.0000       0.121764         3.3134 
  47   0.0000       0.127775         3.4769 
  48   0.0000       0.145690         3.9644 
  49   0.0000       0.152105         4.1390 
  50   0.0000       0.158699         4.3184 
*Only the first 10 virtual orbitals were printed.
Total SCF time: 0 days 0 hours 0 min 8 sec 
Finished LeanSCF after   8.6 sec

Maximum memory used throughout the entire LEANSCF-calculation: 31.6 MB


-------------------------------------------------------------------------------
                          DFT DISPERSION CORRECTION                            
                                                                               
                                DFTD4 V3.4.0                                   
-------------------------------------------------------------------------------
-------------------------   ----------------
Dispersion correction           -0.006251466
-------------------------   ----------------

------------------   -----------------
gCP correction             0.015991504
------------------   -----------------

-------------------------   --------------------
FINAL SINGLE POINT ENERGY      -572.563483972785
-------------------------   --------------------

------------------------------------------------------------------------------
                         ORCA SCF GRADIENT CALCULATION
------------------------------------------------------------------------------

Nuc. rep. gradient        (SHARK) ... done (  0.0 sec)
HCore & Overlap gradient  (SHARK) ... done (  0.6 sec)
Split-RIJ-J gradient      (SHARK) ... done (  3.2 sec)
XC gradient                       ... done ( 10.8 sec)
Dispersion correction             ... done (  0.0 sec)

-------------------
DISPERSION GRADIENT
-------------------

   1   C   :    0.000009554    0.000062344   -0.000000524
   2   C   :    0.000060452    0.000019011   -0.000011916
   3   H   :    0.000036819    0.000006294   -0.000015526
   4   C   :    0.000018367   -0.000031415    0.000004900
   5   H   :    0.000010498   -0.000023712    0.000019362
   6   C   :   -0.000038404   -0.000030960   -0.000019805
   7   H   :   -0.000020068   -0.000026381   -0.000025595
   8   C   :   -0.000044499    0.000031369   -0.000007998
   9   H   :   -0.000037731    0.000011304   -0.000007293
  10   O   :   -0.000037107    0.000067995   -0.000026874
  11   O   :   -0.000093579    0.000045620    0.000045336
  12   O   :   -0.000055184   -0.000096321   -0.000008939
  13   O   :    0.000061896   -0.000092758    0.000008778
  14   O   :    0.000111468    0.000024969    0.000011702
  15   H   :    0.000017430    0.000044561   -0.000008955
  16   H   :    0.000006334    0.000036877    0.000012120
  17   H   :   -0.000031891    0.000011358    0.000021240
  18   H   :   -0.000026713   -0.000029778    0.000000458
  19   H   :    0.000017294   -0.000034740   -0.000001542
  20   H   :    0.000035064    0.000004363    0.000011071

Difference to translation invariance:
           :   -0.0000000000   -0.0000000000   -0.0000000000

Difference to rotation invariance:
           :   -0.0000000000    0.0000000000    0.0000000000

Norm of the Dispersion gradient    ...    0.0002984801
RMS gradient                       ...    0.0000385336
MAX gradient                       ...    0.0001114683
gCP correction                   ... done

------------------
CARTESIAN GRADIENT
------------------

   1   C   :   -0.000317363    0.000017538   -0.000158021
   2   C   :    0.000320722    0.000093694    0.000189960
   3   H   :   -0.000064206   -0.000033507   -0.000090418
   4   C   :    0.000137066   -0.000332345   -0.000057244
   5   H   :   -0.000005089    0.000060053    0.000043624
   6   C   :   -0.000142800   -0.000293822   -0.000011336
   7   H   :    0.000004719    0.000033370   -0.000012935
   8   C   :    0.000121017    0.000441177    0.000123249
   9   H   :   -0.000011304   -0.000020516   -0.000068067
  10   O   :    0.000080281   -0.000293029    0.000059241
  11   O   :   -0.000031912    0.000001070   -0.000227487
  12   O   :    0.000393119   -0.000134494    0.000112685
  13   O   :    0.000297543    0.000396702    0.000105712
  14   O   :   -0.000586100   -0.000525894    0.000120650
  15   H   :    0.000055222    0.000043435    0.000062753
  16   H   :    0.000035559    0.000000802    0.000037000
  17   H   :   -0.000016722   -0.000004883    0.000052888
  18   H   :   -0.000285886    0.000179583   -0.000004754
  19   H   :   -0.000364180   -0.000176272   -0.000115642
  20   H   :    0.000380315    0.000547338   -0.000161859

Difference to translation invariance:
           :    0.0000000000    0.0000000000   -0.0000000000

Difference to rotation invariance:
           :   -0.0001288042   -0.0005338723    0.0001290710

Norm of the Cartesian gradient     ...    0.0016627504
RMS gradient                       ...    0.0002146602
MAX gradient                       ...    0.0005860999

-------
TIMINGS
-------

Total SCF gradient time     ....       14.663 sec

Densities                   ....       0.001 sec  (  0.0%)
One electron gradient       ....       0.592 sec  (  4.0%)
RI-J Coulomb gradient       ....       3.235 sec  ( 22.1%)
XC gradient                 ....      10.795 sec  ( 73.6%)

Maximum memory used throughout the entire SCFGRAD-calculation: 41.1 MB

------------------------------------------------------------------------------
                              ORCA PROPERTY CALCULATIONS
------------------------------------------------------------------------------

GBWName                                 ... xtb_opt.gbw
Number of atoms                         ...     20
Number of basis functions               ...    265
Max core memory                         ...   1024 MB

Electric properties:
Dipole moment                           ... YES
Quadrupole moment                       ...  NO
Static polarizability (Dipole/Dipole)   ...  NO
Static polarizability (Dipole/Quad.)    ...  NO
Static polarizability (Quad./Quad.)     ...  NO
Static polarizability (Velocity)        ...  NO

Atomic electric properties:
Dipole moment                           ...  NO
Quadrupole moment                       ...  NO
Static polarizability                   ...  NO

Choice of electric origin               ... Center of mass
Position of electric origin             ...    -0.003957     0.022809     0.015554

General magnetic properties:
Magnetizability                         ...  NO

EPR properties:
g-Tensor (aka g-matrix)                 ...  NO
Zero-Field splitting spin-orbit         ...  NO
Zero-field splitting spin-spin          ...  NO
Hyperfine couplings                     ...  NO (   0 nuclei)
Quadrupole couplings                    ...  NO (   0 nuclei)
Contact density                         ...  NO (   0 nuclei)

NMR properties:
Chemical shifts                         ...  NO (   0 nuclei)
Spin-rotation constants                 ...  NO (   0 nuclei)
Spin-spin couplings                     ...  NO (   0 nuclei,    0 pairs)

Choice of magnetic origin               ... GIAO
Position of magnetic origin             ...     0.000000     0.000000     0.000000

Properties with geometric perturbations:
SCF Hessian                             ...  NO
IR spectrum                             ...  NO
VCD spectrum                            ...  NO
X-ray spectroscopy properties:
SCF XES/XAS/RIXS spectra                ...  NO


-------------
DIPOLE MOMENT
-------------

Method             : SCF
Type of density    : Electron Density
Multiplicity       :   1
Irrep              :   0
Energy             :  -572.5732240100998069 Eh
Relativity type    : 
Basis              : AO
                                X                 Y                 Z
Electronic contribution:     -1.460086686      -0.890969015       0.187691514
Nuclear contribution   :      2.181291240       1.628713642      -0.391107660
                        -----------------------------------------
Total Dipole Moment    :      0.721204555       0.737744627      -0.203416146
                        -----------------------------------------
Magnitude (a.u.)       :      1.051561350
Magnitude (Debye)      :      2.672856536



--------------------
Rotational spectrum 
--------------------
 
Rotational constants in cm-1:             0.056397             0.044821             0.029031 
Rotational constants in MHz :          1690.751529          1343.703413           870.332210 

Dipole components along the rotational axes: 
x,y,z [a.u.] :     0.729058    -0.726654    -0.215010 
x,y,z [Debye]:     1.853118    -1.847008    -0.546513 

 

Dipole moment calculation done in   0.0 sec 

Maximum memory used throughout the entire PROP-calculation: 19.9 MB

--------------------------------
SUGGESTED CITATIONS FOR THIS RUN
--------------------------------

Below you find a list of papers that are relevant to this ORCA run
We neither can nor want to force you to cite these papers, but we appreciate if you do
You receive ORCA, which is the product of decades of hard work by many enthusiastic individuals, for free
The only thing we kindly ask in return is that you cite our papers,
We deeply appreciate it, if you show your appreciation for ORCA by not just citing the generic ORCA reference.

Please note that relegating all ORCA citations to the supporting information does *not* help us.
SI sections are not indexed - citations you put there will not count into any citation statistics
But we need these citations in order to attract the funding resources that allow us to do what we are doing

Therefore, if you are a happy ORCA user, please consider citing a few of the papers listed below in the main body of your paper

In addition to the list printed below, the program has created the file xtb_opt.bibtex that contains the list in bibtex format
You can import this file easily into all common literature databanks and citation aid programs


List of essential papers. We consider these as the minimum necessary citations

  1. Neese,F.
     Software update: the ORCA program system, version 5.0
     WIRES Comput. Molec. Sci., 2022 12(1)e1606
     doi.org/10.1002/wcms.1606
  2. Grimme,S.; Hansen,A.; Ehlert,S.; Mewes,J.
     r2SCAN-3c: A 'Swiss army knife' composite electronic-structure method
     J. Chem. Phys., 2021 154 064103
     doi.org/10.1063/5.0040021

List of papers to cite with high priority. The work reported in these papers was absolutely
necessary for this run to complete.
Our perspective: the developers of density functionals and basis sets usually get cited in chemistry papers
Good! But without the algorithms to do something with them, the functionals or basis sets would not do anything.
Hence, in our opinion, the algorithm design and method developments papers are equally worthy of getting cited

  1. Neese,F.
     An improvement of the resolution of the identity approximation for the formation of the Coulomb matrix
     J. Comp. Chem., 2003 24(14)1740-1747
     doi.org/10.1002/jcc.10318
  2. Neese,F.
     The SHARK Integral Generation and Digestion System
     J. Comp. Chem., 2022  1-16
     doi.org/10.1002/jcc.26942
  3. Lehtola,S.; Steigemann,C.; Oliveira,M.; Marques,M.
     Recent developments in Libxc - A comprehensive library of functionals for density functional theory
     Software X, 2018 7 
     doi.org/10.1016/j.softx.2017.11.002
  4. Caldeweyher,E.; Bannwarth,C.; Grimme,S.
     Extension of the D3 dispersion coefficient model
     J. Chem. Phys., 2017 147 034112
     doi.org/10.1063/1.4993215
  5. Caldeweyher,E.; Ehlert,S.; Hansen,A.; Neugebauer,H.; Spicher,S.; Bannwarth,C.; Grimme,S.
     A generally applicable atomic-charge dependent London dispersion correction
     J. Chem. Phys., 2019 150 154122
     doi.org/10.1063/1.5090222
  6. Caldeweyher,E.; Mewes,J.; Ehlert,S.; Grimme,S.
     Extension and evaluation of the D4 London-dispersion model for periodic systems
     Phys. Chem. Chem. Phys., 2020 22(16)8499-8512
     doi.org/10.1039/D0CP00502A
  7. Wittmann,L.; Gordiy,I.; Friede,M.; Helmich-Paris,B.; Grimme,S.; Hansen,A.; Bursch,M.
     Extension of the D3 and D4 London Dispersion Corrections to the full Actinides Series
     Phys. Chem. Chem. Phys., 2024 26(32)21379-21394
     doi.org/https://doi.org/10.1039/D4CP01514B 

List of suggested additional citations. These are papers that are important in the 'surrounding' of 
of this run, or papers that preceded the highly important papers. If you like your results we are grateful for a citation.

  1. Neese,F.
     The ORCA program system
     WIRES Comput. Molec. Sci., 2012 2(1)73-78
     doi.org/10.1002/wcms.81
  2. Neese,F.
     Software update: the ORCA program system, version 4.0
     WIRES Comput. Molec. Sci., 2018 8(1)1-6
     doi.org/10.1002/wcms.1327
  3. Neese,F.; Wennmohs,F.; Becker,U.; Riplinger,C.
     The ORCA quantum chemistry program package
     J. Chem. Phys., 2020 152 Art. No. L224108
     doi.org/10.1063/5.0004608

List of optional additional citations

  1. Neese,F.
     Approximate second-order SCF convergence for spin unrestricted wavefunctions
     Chem. Phys. Lett., 2000 325(1-3)93-98
     doi.org/10.1016/s0009-2614(00)00662-x

Timings for individual modules:

Sum of individual times          ...       24.523 sec (=   0.409 min)
Startup calculation              ...        1.036 sec (=   0.017 min)   4.2 %
SCF iterations                   ...        8.666 sec (=   0.144 min)  35.3 %
Property calculations            ...        0.080 sec (=   0.001 min)   0.3 %
SCF Gradient evaluation          ...       14.740 sec (=   0.246 min)  60.1 %
                             ****ORCA TERMINATED NORMALLY****
TOTAL RUN TIME: 0 days 0 hours 0 minutes 24 seconds 669 msec
  ------------------------------------------------------------------------
          * successful ORCA run, taking over control again...

         :::::::::::::::::::::::::::::::::::::::::::::::::::::
         ::                  ORCA SUMMARY                   ::
         :::::::::::::::::::::::::::::::::::::::::::::::::::::
         :: total energy            -572.563483972785 Eh    ::
         :: gradient norm              0.001662750414 Eh/a0 ::
         :: HOMO-LUMO gap              0.000000000000 eV    ::
         :::::::::::::::::::::::::::::::::::::::::::::::::::::

      ----------------------------------------------------------- 
     |                       L-ANC optimizer                     |
      ----------------------------------------------------------- 
          low memory version by Sebastian Ehlert

          ...................................................
          :                      SETUP                      :
          :.................................................:
          :   energy convergence        0.5000000E-05 Eh    :
          :   grad. convergence         0.1000000E-02 Eh/a0 :
          :   optimization log               true           :
          :   writing optlog all                1     steps :
          :   Hessian reset                     8     steps :
          :   maximium step len.        1.0000000     a0    :
          :   LBFGS images                      8           :
          ...................................................
 * calculating model hessian...
Using Lindh-Hessian (1995)
 Shifting diagonal of input Hessian by    1.0000000000000000E-002
 Lowest  eigenvalues of input Hessian
    0.000000    0.000000    0.000000    0.000000    0.000000    0.000000
    0.015304    0.015645    0.022627    0.024137    0.025034    0.026302
    0.032498    0.035346    0.041114    0.046092    0.051312    0.055379
 Highest eigenvalues
    1.339097    1.417802    1.467698    1.480472    1.505435    1.592726


........................................................................
.............................. CYCLE    1 ..............................
........................................................................
                         * ORCA takes the control...
  ------------------------------------------------------------------------

                                 *****************
                                 * O   R   C   A *
                                 *****************

                                            #,                                       
                                            ###                                      
                                            ####                                     
                                            #####                                    
                                            ######                                   
                                           ########,                                 
                                     ,,################,,,,,                         
                               ,,#################################,,                 
                          ,,##########################################,,             
                       ,#########################################, ''#####,          
                    ,#############################################,,   '####,        
                  ,##################################################,,,,####,       
                ,###########''''           ''''###############################       
              ,#####''   ,,,,##########,,,,          '''####'''          '####       
            ,##' ,,,,###########################,,,                        '##       
           ' ,,###''''                  '''############,,,                           
         ,,##''                                '''############,,,,        ,,,,,,###''
      ,#''                                            '''#######################'''  
     '                                                          ''''####''''         
             ,#######,   #######,   ,#######,      ##                                
            ,#'     '#,  ##    ##  ,#'     '#,    #''#        ,####,   ,####,        
            ##       ##  ##   ,#'  ##            #'  '#       #'       #'  '#        
            ##       ##  #######   ##           ,######,      #####,   #    #        
            '#,     ,#'  ##    ##  '#,     ,#' ,#      #,     #,   #   #,  ,#        
             '#######'   ##     ##  '#######'  #'      '#     '####' # '####'        



                #########################################################
                #                        -***-                          #
                #          Department of theory and spectroscopy        #
                #                                                       #
                #                      Frank Neese                      #
                #                                                       #
                #     Directorship, Architecture, Infrastructure        #
                #                    SHARK, DRIVERS                     #
                #        Core code/Algorithms in most modules           #
                #                                                       #
                #        Max Planck Institute fuer Kohlenforschung      #
                #                Kaiser Wilhelm Platz 1                 #
                #                 D-45470 Muelheim/Ruhr                 #
                #                      Germany                          #
                #                                                       #
                #                  All rights reserved                  #
                #                        -***-                          #
                #########################################################


                         Program Version 6.0.1  -  RELEASE   -


 With contributions from (in alphabetic order):
[Max-Planck-Institut fuer Kohlenforschung]                               
  Daniel Aravena         : Magnetic Suceptibility                        
  Michael Atanasov       : Ab Initio Ligand Field Theory (pilot matlab implementation)
  Alexander A. Auer      : GIAO ZORA, VPT2 properties, NMR spectrum      
  Ute Becker             : All parallelization in ORCA, NUMFREQ, NUMCALC 
  Giovanni Bistoni       : ED, misc. LED, open-shell LED, HFLD           
  Martin Brehm           : Molecular dynamics                            
  Dmytro Bykov           : pre 5.0 version of the SCF Hessian            
  Marcos Casanova-Páez   : Triplet and SCS-CIS(D). UHF-(DLPNO)-IP/EA/STEOM-CCSD. UHF-CVS-IP/STEOM-CCSD   
  Vijay G. Chilkuri      : MRCI spin determinant printing, contributions to CSF-ICE 
  Pauline Colinet        : FMM embedding                                 
  Dipayan Datta          : RHF DLPNO-CCSD density                        
  Achintya Kumar Dutta   : EOM-CC, STEOM-CC                              
  Nicolas Foglia         : Exact transition moments, OPA infrastructure, MCD improvements    
  Dmitry Ganyushin       : Spin-Orbit,Spin-Spin,Magnetic field MRCI      
  Miquel Garcia-Rates    : C-PCM and meta-GGA Hessian, CCSD/C-PCM, Gaussian charge scheme 
  Tiago L. C. Gouveia    : GS-ROHF, GS-ROCIS                             
  Yang Guo               : DLPNO-NEVPT2, F12-NEVPT2, CIM, IAO-localization        
  Andreas Hansen         : Spin unrestricted coupled pair/coupled cluster methods 
  Ingolf Harden          : AUTO-CI MPn and infrastructure                
  Benjamin Helmich-Paris : MC-RPA, TRAH-(SCF,CASSCF), AVAS, COSX integrals, SCF dyn. polar. 
  Lee Huntington         : MR-EOM, pCC                                   
  Robert Izsak           : Overlap fitted RIJCOSX, COSX-SCS-MP3, EOM     
  Riya Kayal             : Wick's Theorem for AUTO-CI, AUTO-CI UHF-CCSDT 
  Emily Kempfer          : AUTO-CI, RHF CISDT and CCSDT                  
  Christian Kollmar      : KDIIS, OOCD, Brueckner-CCSD(T), CCSD density, CASPT2, CASPT2-K, improved NEVPT2 
  Axel Koslowski         : Symmetry handling                             
  Simone Kossmann        : meta-GGA functionals, TD-DFT gradient, OOMP2, (MP2 Hessian; deprecated post 5.0) 
  Lucas Lang             : DCDCAS                                        
  Marvin Lechner         : AUTO-CI (C++ implementation), FIC-MRCC        
  Spencer Leger          : CASSCF response                               
  Dagmar Lenk            : GEPOL surface, SMD, ORCA-2-JSON               
  Dimitrios Liakos       : Extrapolation schemes; Compound Job, initial MDCI parallelization 
  Dimitrios Manganas     : Further ROCIS development; embedding schemes. LFT, Crystal Embedding 
  Dimitrios Pantazis     : SARC Basis sets                               
  Anastasios Papadopoulos: AUTO-CI, single reference methods and gradients 
  Taras Petrenko         : pre 6.0 DFT Hessian and TD-DFT gradient, (ASA, deprecated), ECA, 1-Electron XAS/XES, NRVS 
  Peter Pinski           : DLPNO-MP2, DLPNO-MP2 Gradient                 
  Christoph Reimann      : Effective Core Potentials                     
  Marius Retegan         : Local ZFS, SOC                                
  Christoph Riplinger    : Optimizer, TS searches, QM/MM, DLPNO-CCSD(T), (RO)-DLPNO pert. Triples 
  Michael Roemelt        : Original ROCIS implementation                 
  Masaaki Saitow         : Open-shell DLPNO-CCSD energy and density      
  Barbara Sandhoefer     : DKH picture change effects                    
  Kantharuban Sivalingam : CASSCF convergence/infrastructure, NEVPT2 and variants, FIC-MRCI 
  Bernardo de Souza      : ESD, SOC TD-DFT                               
  Georgi L. Stoychev     : AutoAux, RI-MP2 NMR, DLPNO-MP2 response, X2C  
  Van Anh Tran           : RI-MP2 g-tensors                              
  Willem Van den Heuvel  : Paramagnetic NMR                              
  Zikuan Wang            : NOTCH, Electric field optimization            
  Frank Wennmohs         : Technical directorship and infrastructure     
  Hang Xu                : AUTO-CI-Response properties                   
                                                                         
[FACCTs GmbH]                                                            
  Markus Bursch, Miquel Garcia-Rates, Christoph Riplinger, Bernardo de Souza, Georgi L. Stoychev 
                                                                 
  APM, Basis sets (HGBS, AHGBS, def-TZVP (Ac-Lr), def2-XVPD (La-Lu)), CI-OPT, improved COSX, DLPNO-Multilevel,           
  DOCKER, DRACO, updates on ESD, GOAT, IRC, LR-CPCM, MBIS, meta-GGA TD-DFT gradient, ML-optimized integration grids, 
  MM, NACMEs, nearIR, NEB, NEB-TS, NL-DFT gradient (VV10), 2- and 3-layer-ONIOM, interface openCOSMO-RS, QMMM,   
  Crystal-QMMM, SF, symmetry and pop. for TD-DFT, r2SCAN hybrids, SOLVATOR                                   
                                                                         
[Other institutions]                                                     
  V. Asgeirsson          : NEB                                           
  Christoph Bannwarth    : sTDA-DFT, sTD-DFT, PBEh-3c, B97-3c, D3        
  Sebastian Ehlert       : rSCAN, r2SCAN, r2SCAN-3c, D4, dhf basis sets  
  Marvin Friede          : D4 for Fr, Ra, Ac-Lr                          
  Lars Goerigk           : TD-DFT with DH, B97 family of functionals     
  Stefan Grimme          : VdW corrections, initial TS optimization, DFT functionals, gCP, sTDA/sTD-DF 
  Waldemar Hujo          : DFT-NL                                        
  H. Jonsson             : NEB                                           
  Holger Kruse           : gCP                                           
  Marcel Mueller         : wB97X-3c, vDZP basis set                      
  Hagen Neugebauer       : wr2SCAN                                       
  Tobias Risthaus        : range-separated hybrid DFT                    
  Lukas Wittmann         : regularized MP2, r2SCAN double-hybrids, wr2SCAN        
                                                                         
We gratefully acknowledge several colleagues who have allowed us to      
interface, adapt or use parts of their codes:                            
  Ed Valeev, F. Pavosevic, A. Kumar             : LibInt (2-el integral package), F12 methods 
  Garnet Chan, S. Sharma, J. Yang, R. Olivares  : DMRG                   
  Ulf Ekstrom                                   : XCFun DFT Library      
  Mihaly Kallay                                 : mrcc  (arbitrary order and MRCC methods)
  Frank Weinhold                                : gennbo (NPA and NBO analysis)           
  Simon Mueller                                 : openCOSMO-RS                            
  Christopher J. Cramer and Donald G. Truhlar   : smd solvation model                     
  S Lehtola, MJT Oliveira, MAL Marques          : LibXC Library                           
  Liviu Ungur et al                             : ANISO software                          


 Your calculation uses the libint2 library for the computation of 2-el integrals
 For citations please refer to: http://libint.valeyev.net

 Your ORCA version has been built with support for libXC version: 6.2.2
 For citations please refer to: https://libxc.gitlab.io

 This ORCA versions uses:
   CBLAS   interface :  Fast vector & matrix operations
   LAPACKE interface :  Fast linear algebra routines
   SCALAPACK package :  Parallel linear algebra routines
   Shared memory     :  Shared parallel matrices
   BLAS/LAPACK       :  OpenBLAS 0.3.27  USE64BITINT DYNAMIC_ARCH NO_AFFINITY Zen SINGLE_THREADED
        Core in use  :  Zen
   Copyright (c) 2011-2014, The OpenBLAS Project




***************************************
The coordinates will be read from file: xtb_opt.xyz
***************************************


Your calculation utilizes the geometrical counterpoise correction gCP
Please cite in your paper:
H.Kruse, S. Grimme J.Chem.Phys., 136, (2012), 154101 
   

Your calculation utilizes the atom-pairwise dispersion correction
based on EEQ partial charges (D4)


================================================================================

----- Orbital basis set information -----
Your calculation utilizes the basis: def2-mTZVPP
   Stefan Grimme, Andreas Hansen, Sebastian Ehlert, and Jan-Michael Mewes 
   J. Chem. Phys. 154, 064103 (2021). DOI: 10.1063/5.0040021

----- AuxJ basis set information -----
Your calculation utilizes the auxiliary basis: def2/J
   F. Weigend, Phys. Chem. Chem. Phys. 8, 1057 (2006).

================================================================================
                                        WARNINGS
                       Please study these warnings very carefully!
================================================================================

WARNING: Old DensityContainer found on disk!
         Will remove this file - 
         If you want to keep old densities, please start your calculation with a different basename. 



WARNING: SCAN, rSCAN, or r2SCAN functional requested.
  ===> : libXC variant has now been activated.



================================================================================
                                       INPUT FILE
================================================================================
NAME = xtb_opt.inp
|  1> ! r2scan-3c def2/J RI DEFGRID2 scfconv7 ENGRAD tightSCF miniprint
|  2> * xyzfile 0 1 xtb_opt.xyz
|  3> 
|  4>                          ****END OF INPUT****
================================================================================

                     *******************************
                     * Energy+Gradient Calculation *
                     *******************************

---------------------------------
CARTESIAN COORDINATES (ANGSTROEM)
---------------------------------
  C      0.578749    1.728360   -0.043025
  C      1.380505    0.445419   -0.256726
  H      1.603466    0.313052   -1.326945
  C      0.559765   -0.742499    0.215968
  H      0.401807   -0.660545    1.302470
  C     -0.789085   -0.741788   -0.490619
  H     -0.605024   -0.821893   -1.575723
  C     -1.501219    0.592363   -0.267047
  H     -2.404117    0.648208   -0.889121
  O     -0.677986    1.658839   -0.730318
  O     -1.810548    0.710383    1.100834
  O     -1.625362   -1.795469   -0.047523
  O      1.186493   -1.986091   -0.107277
  O      2.587442    0.445324    0.517180
  H      1.100329    2.594604   -0.461697
  H      0.431499    1.888415    1.033792
  H     -2.385551    1.477102    1.207334
  H     -1.091345   -2.599413   -0.078738
  H      2.038150   -1.999076    0.345336
  H      3.223620    1.032259    0.095419

----------------------------
CARTESIAN COORDINATES (A.U.)
----------------------------
  NO LB      ZA    FRAG     MASS         X           Y           Z
   0 C     6.0000    0    12.011    1.093678    3.266126   -0.081306
   1 C     6.0000    0    12.011    2.608776    0.841721   -0.485142
   2 H     1.0000    0     1.008    3.030111    0.591583   -2.507563
   3 C     6.0000    0    12.011    1.057802   -1.403121    0.408120
   4 H     1.0000    0     1.008    0.759305   -1.248250    2.461312
   5 C     6.0000    0    12.011   -1.491155   -1.401777   -0.927136
   6 H     1.0000    0     1.008   -1.143330   -1.553152   -2.977684
   7 C     6.0000    0    12.011   -2.836892    1.119405   -0.504646
   8 H     1.0000    0     1.008   -4.543122    1.224935   -1.680196
   9 O     8.0000    0    15.999   -1.281208    3.134752   -1.380100
  10 O     8.0000    0    15.999   -3.421440    1.342430    2.080275
  11 O     8.0000    0    15.999   -3.071489   -3.392945   -0.089805
  12 O     8.0000    0    15.999    2.242147   -3.753168   -0.202725
  13 O     8.0000    0    15.999    4.889557    0.841541    0.977328
  14 H     1.0000    0     1.008    2.079320    4.903090   -0.872482
  15 H     1.0000    0     1.008    0.815415    3.568588    1.953584
  16 H     1.0000    0     1.008   -4.508039    2.791317    2.281531
  17 H     1.0000    0     1.008   -2.062343   -4.912178   -0.148794
  18 H     1.0000    0     1.008    3.851545   -3.777707    0.652590
  19 H     1.0000    0     1.008    6.091760    1.950686    0.180316

------------------------------------------------------------------------------
                   ___                                                        
                  /   \      - P O W E R E D   B Y -                         
                 /     \                                                     
                 |  |  |   _    _      __       _____    __    __             
                 |  |  |  | |  | |    /  \     |  _  \  |  |  /  |          
                  \  \/   | |  | |   /    \    | | | |  |  | /  /          
                 / \  \   | |__| |  /  /\  \   | |_| |  |  |/  /          
                |  |  |   |  __  | /  /__\  \  |    /   |      \           
                |  |  |   | |  | | |   __   |  |    \   |  |\   \          
                \     /   | |  | | |  |  |  |  | |\  \  |  | \   \       
                 \___/    |_|  |_| |__|  |__|  |_| \__\ |__|  \__/        
                                                                              
                      - O R C A' S   B I G   F R I E N D -                    
                                      &                                       
                       - I N T E G R A L  F E E D E R -                       
                                                                              
 v1 FN, 2020, v2 2021, v3 2022-2024                                           
------------------------------------------------------------------------------


----------------------
SHARK INTEGRAL PACKAGE
----------------------

Number of atoms                             ...     20
Number of basis functions                   ...    265
Number of shells                            ...    125
Maximum angular momentum                    ...      2
Integral batch strategy                     ... SHARK/LIBINT Hybrid
RI-J (if used) integral strategy            ... SPLIT-RIJ (Revised 2003 algorithm where possible)
Printlevel                                  ...      1
Contraction scheme used                     ... SEGMENTED contraction
Prescreening option                         ... SCHWARTZ
   Thresh                                   ... 3.000e-11
   Tcut                                     ... 1.000e-12
   Tpresel                                  ... 1.000e-12 
Coulomb Range Separation                    ... NOT USED
Exchange Range Separation                   ... NOT USED
Multipole approximations                    ... NOT USED
Finite Nucleus Model                        ... NOT USED
CABS basis                                  ... NOT available
Auxiliary Coulomb fitting basis             ... AVAILABLE
   # of basis functions in Aux-J            ...    600
   # of shells in Aux-J                     ...    200
   Maximum angular momentum in Aux-J        ...      4
Auxiliary J/K fitting basis                 ... NOT available
Auxiliary Correlation fitting basis         ... NOT available
Auxiliary 'external' fitting basis          ... NOT available

Checking pre-screening integrals            ... done (  0.0 sec) Dimension = 125
Check shell pair data                       ... done (  0.0 sec)
Shell pair information
Shell pair cut-off parameter TPreSel        ...   1.0e-12
Total number of shell pairs                 ...      7875
Shell pairs after pre-screening             ...      7143
Total number of primitive shell pairs       ...     27980
Primitive shell pairs kept                  ...     17914
          la=0 lb=0:   2164 shell pairs
          la=1 lb=0:   2549 shell pairs
          la=1 lb=1:    769 shell pairs
          la=2 lb=0:    971 shell pairs
          la=2 lb=1:    574 shell pairs
          la=2 lb=2:    116 shell pairs

Calculating one electron integrals          ... done (  0.0 sec)
Calculating RI/J V-Matrix + Cholesky decomp.... done (  0.0 sec)
Calculating Nuclear repulsion               ... done (  0.0 sec) ENN=    622.564960416486 Eh

Diagonalization of the overlap matrix:
Smallest eigenvalue                        ... 4.214e-05
Time for diagonalization                   ...    0.010 sec
Threshold for overlap eigenvalues          ... 1.000e-07
Number of eigenvalues below threshold      ... 0
Time for construction of square roots      ...    0.003 sec
Total time needed                          ...    0.015 sec

-------------------
DFT GRID GENERATION
-------------------

General Integration Accuracy     IntAcc      ... 4.388
Radial Grid Type                 RadialGrid  ... OptM3 with GC (2021)
Angular Grid (max. ang.)         AngularGrid ... 4 (Lebedev-302)
Angular grid pruning method      GridPruning ... 4 (adaptive)
Weight generation scheme         WeightScheme... mBecke (2022)
Basis function cutoff            BFCut       ... 1.0000e-11
Integration weight cutoff        WCut        ... 1.0000e-14
Partially contracted basis set               ... off
Rotationally invariant grid construction     ... off
Angular grids for H and He will be reduced by one unit
Diffuse basis detected: some atoms will have their outermost
                        angular grid increased by 1.

Total number of grid points                  ...    93559
Total number of batches                      ...     1471
Average number of points per batch           ...       63
Average number of grid points per atom       ...     4678
Initializing property integral containers    ... done (  0.0 sec)

SHARK setup successfully completed in   1.1 seconds

Maximum memory used throughout the entire STARTUP-calculation: 46.1 MB
Occupation numbers will be reassigned to an Aufbau configuration
             **** ENERGY FILE WAS UPDATED (xtb_opt.en.tmp) ****
Finished Guess after   0.1 sec
Maximum memory used throughout the entire GUESS-calculation: 20.9 MB
----------------------------------------D-I-I-S--------------------------------------------
Iteration    Energy (Eh)           Delta-E    RMSDP     MaxDP     DIISErr   Damp  Time(sec)
-------------------------------------------------------------------------------------------
               ***  Starting incremental Fock matrix formation  ***
                              *** Initializing SOSCF ***
---------------------------------------S-O-S-C-F--------------------------------------
Iteration    Energy (Eh)           Delta-E    RMSDP     MaxDP     MaxGrad    Time(sec)
--------------------------------------------------------------------------------------
    1    -572.5732228999129347     0.00e+00  4.83e-05  1.72e-03  6.18e-05     3.1
               *** Restarting incremental Fock matrix formation ***
    2    -572.5732346887991753    -1.18e-05  2.25e-05  1.21e-03  6.37e-05     3.7
    3    -572.5732349107024675    -2.22e-07  1.10e-05  4.02e-04  9.06e-05     2.1
    4    -572.5732353419059564    -4.31e-07  6.39e-06  2.57e-04  2.22e-05     2.3
                  *** Gradient check signals convergence ***

               *****************************************************
               *                     SUCCESS                       *
               *           SCF CONVERGED AFTER   4 CYCLES          *
               *****************************************************

             **** ENERGY FILE WAS UPDATED (xtb_opt.en.tmp) ****

----------------
TOTAL SCF ENERGY
----------------

Total Energy       :       -572.57323534190596 Eh          -15580.50983 eV

Components:
Nuclear Repulsion  :        622.56496041648620 Eh           16940.85383 eV
Electronic Energy  :      -1195.13819575839216 Eh          -32521.36366 eV
One Electron Energy:      -2020.56114597946407 Eh          -54982.26403 eV
Two Electron Energy:        825.42295022107180 Eh           22460.90037 eV

Virial components:
Potential Energy   :      -1142.80528503404867 Eh          -31097.31276 eV
Kinetic Energy     :        570.23204969214282 Eh           15516.80293 eV
Virial Ratio       :          2.00410567180681

DFT components:
N(Alpha)           :       39.999977720247 electrons
N(Beta)            :       39.999977720247 electrons
N(Total)           :       79.999955440495 electrons
E(X)               :      -71.031443875136 Eh       
E(C)               :       -2.656861019680 Eh       
E(XC)              :      -73.688304894816 Eh       

---------------
SCF CONVERGENCE
---------------

  Last Energy change         ...    4.3120e-07  Tolerance :   1.0000e-07
  Last MAX-Density change    ...    2.5671e-04  Tolerance :   1.0000e-07
  Last RMS-Density change    ...    6.3917e-06  Tolerance :   5.0000e-09
  Last DIIS Error            ...    1.0645e-03  Tolerance :   1.0000e-07
  Last Orbital Gradient      ...    2.2154e-05  Tolerance :   1.0000e-04
  Last Orbital Rotation      ...    7.4622e-05  Tolerance :   1.0000e-04


----------------
ORBITAL ENERGIES
----------------

  NO   OCC          E(Eh)            E(eV) 
   0   2.0000     -18.970875      -516.2237 
   1   2.0000     -18.969257      -516.1797 
   2   2.0000     -18.965159      -516.0682 
   3   2.0000     -18.959993      -515.9276 
   4   2.0000     -18.948897      -515.6257 
   5   2.0000     -10.138249      -275.8758 
   6   2.0000     -10.094491      -274.6851 
   7   2.0000     -10.088795      -274.5301 
   8   2.0000     -10.087858      -274.5046 
   9   2.0000     -10.085934      -274.4522 
  10   2.0000      -1.040918       -28.3248 
  11   2.0000      -1.010196       -27.4888 
  12   2.0000      -0.995513       -27.0893 
  13   2.0000      -0.978057       -26.6143 
  14   2.0000      -0.972952       -26.4754 
  15   2.0000      -0.754678       -20.5358 
  16   2.0000      -0.724610       -19.7176 
  17   2.0000      -0.621721       -16.9179 
  18   2.0000      -0.608573       -16.5601 
  19   2.0000      -0.550902       -14.9908 
  20   2.0000      -0.517666       -14.0864 
  21   2.0000      -0.507998       -13.8233 
  22   2.0000      -0.493908       -13.4399 
  23   2.0000      -0.469102       -12.7649 
  24   2.0000      -0.449850       -12.2410 
  25   2.0000      -0.432258       -11.7623 
  26   2.0000      -0.415727       -11.3125 
  27   2.0000      -0.398613       -10.8468 
  28   2.0000      -0.382683       -10.4133 
  29   2.0000      -0.376245       -10.2382 
  30   2.0000      -0.360641        -9.8135 
  31   2.0000      -0.340439        -9.2638 
  32   2.0000      -0.327748        -8.9185 
  33   2.0000      -0.305915        -8.3244 
  34   2.0000      -0.284794        -7.7496 
  35   2.0000      -0.278760        -7.5855 
  36   2.0000      -0.263957        -7.1826 
  37   2.0000      -0.252599        -6.8736 
  38   2.0000      -0.238970        -6.5027 
  39   2.0000      -0.235939        -6.4202 
  40   0.0000       0.025598         0.6966 
  41   0.0000       0.049746         1.3537 
  42   0.0000       0.062891         1.7114 
  43   0.0000       0.089230         2.4281 
  44   0.0000       0.091574         2.4919 
  45   0.0000       0.112339         3.0569 
  46   0.0000       0.121764         3.3134 
  47   0.0000       0.127709         3.4751 
  48   0.0000       0.145688         3.9644 
  49   0.0000       0.152152         4.1403 
  50   0.0000       0.158683         4.3180 
*Only the first 10 virtual orbitals were printed.
Total SCF time: 0 days 0 hours 0 min 11 sec 
Finished LeanSCF after  11.4 sec

Maximum memory used throughout the entire LEANSCF-calculation: 31.8 MB


-------------------------------------------------------------------------------
                          DFT DISPERSION CORRECTION                            
                                                                               
                                DFTD4 V3.4.0                                   
-------------------------------------------------------------------------------
-------------------------   ----------------
Dispersion correction           -0.006251638
-------------------------   ----------------

------------------   -----------------
gCP correction             0.015996627
------------------   -----------------

-------------------------   --------------------
FINAL SINGLE POINT ENERGY      -572.563490352435
-------------------------   --------------------

------------------------------------------------------------------------------
                         ORCA SCF GRADIENT CALCULATION
------------------------------------------------------------------------------

Nuc. rep. gradient        (SHARK) ... done (  0.0 sec)
HCore & Overlap gradient  (SHARK) ... done (  0.5 sec)
Split-RIJ-J gradient      (SHARK) ... done (  2.5 sec)
XC gradient                       ... done (  9.4 sec)
Dispersion correction             ... done (  0.0 sec)

-------------------
DISPERSION GRADIENT
-------------------

   1   C   :    0.000009627    0.000062413   -0.000000539
   2   C   :    0.000060431    0.000018983   -0.000011893
   3   H   :    0.000036833    0.000006292   -0.000015527
   4   C   :    0.000018309   -0.000031395    0.000004904
   5   H   :    0.000010467   -0.000023696    0.000019391
   6   C   :   -0.000038379   -0.000030960   -0.000019818
   7   H   :   -0.000020073   -0.000026376   -0.000025620
   8   C   :   -0.000044566    0.000031345   -0.000007979
   9   H   :   -0.000037732    0.000011290   -0.000007287
  10   O   :   -0.000037126    0.000067981   -0.000026803
  11   O   :   -0.000093568    0.000045593    0.000045338
  12   O   :   -0.000055106   -0.000096325   -0.000009045
  13   O   :    0.000061942   -0.000092677    0.000008858
  14   O   :    0.000111473    0.000024857    0.000011639
  15   H   :    0.000017424    0.000044568   -0.000008966
  16   H   :    0.000006345    0.000036887    0.000012115
  17   H   :   -0.000031888    0.000011344    0.000021250
  18   H   :   -0.000026744   -0.000029771    0.000000399
  19   H   :    0.000017249   -0.000034753   -0.000001491
  20   H   :    0.000035083    0.000004400    0.000011075

Difference to translation invariance:
           :   -0.0000000000    0.0000000000   -0.0000000000

Difference to rotation invariance:
           :   -0.0000000000    0.0000000000    0.0000000000

Norm of the Dispersion gradient    ...    0.0002984502
RMS gradient                       ...    0.0000385298
MAX gradient                       ...    0.0001114727
gCP correction                   ... done

------------------
CARTESIAN GRADIENT
------------------

   1   C   :   -0.000068698   -0.000005791   -0.000087210
   2   C   :    0.000107244    0.000060132    0.000054838
   3   H   :    0.000008202   -0.000019896   -0.000008142
   4   C   :    0.000018471   -0.000114509   -0.000012128
   5   H   :    0.000037622   -0.000017218    0.000011507
   6   C   :   -0.000067259   -0.000087050    0.000013206
   7   H   :   -0.000006476   -0.000063315    0.000004485
   8   C   :   -0.000004381    0.000093537    0.000003577
   9   H   :    0.000009061   -0.000000930   -0.000025796
  10   O   :    0.000062280   -0.000069307    0.000086839
  11   O   :   -0.000009836    0.000047152   -0.000101396
  12   O   :    0.000075096    0.000138687    0.000052004
  13   O   :   -0.000049345    0.000162202   -0.000052265
  14   O   :    0.000049222    0.000015294   -0.000191530
  15   H   :    0.000005984    0.000023541    0.000018636
  16   H   :   -0.000033937   -0.000006868    0.000009360
  17   H   :   -0.000011028   -0.000004211    0.000012058
  18   H   :   -0.000014441   -0.000066967   -0.000032678
  19   H   :    0.000028302   -0.000116091    0.000077487
  20   H   :   -0.000136082    0.000031610    0.000167147

Difference to translation invariance:
           :    0.0000000000   -0.0000000000    0.0000000000

Difference to rotation invariance:
           :   -0.0001623658   -0.0005533714    0.0001446751

Norm of the Cartesian gradient     ...    0.0005249380
RMS gradient                       ...    0.0000677692
MAX gradient                       ...    0.0001915302

-------
TIMINGS
-------

[...]
ORBITAL ENERGIES
----------------

  NO   OCC          E(Eh)            E(eV) 
   0   2.0000     -18.971171      -516.2318 
   1   2.0000     -18.969286      -516.1805 
   2   2.0000     -18.965143      -516.0678 
   3   2.0000     -18.959978      -515.9272 
   4   2.0000     -18.948681      -515.6198 
   5   2.0000     -10.138306      -275.8773 
   6   2.0000     -10.094855      -274.6950 
   7   2.0000     -10.088848      -274.5315 
   8   2.0000     -10.087911      -274.5060 
   9   2.0000     -10.086082      -274.4563 
  10   2.0000      -1.040766       -28.3207 
  11   2.0000      -1.010296       -27.4916 
  12   2.0000      -0.995428       -27.0870 
  13   2.0000      -0.977911       -26.6103 
  14   2.0000      -0.972857       -26.4728 
  15   2.0000      -0.755010       -20.5449 
  16   2.0000      -0.724705       -19.7202 
  17   2.0000      -0.621653       -16.9160 
  18   2.0000      -0.608574       -16.5601 
  19   2.0000      -0.551093       -14.9960 
  20   2.0000      -0.517487       -14.0815 
  21   2.0000      -0.508314       -13.8319 
  22   2.0000      -0.493680       -13.4337 
  23   2.0000      -0.469006       -12.7623 
  24   2.0000      -0.449690       -12.2367 
  25   2.0000      -0.432574       -11.7709 
  26   2.0000      -0.415744       -11.3130 
  27   2.0000      -0.398690       -10.8489 
  28   2.0000      -0.382637       -10.4121 
  29   2.0000      -0.376262       -10.2386 
  30   2.0000      -0.360873        -9.8199 
  31   2.0000      -0.340252        -9.2587 
  32   2.0000      -0.328196        -8.9307 
  33   2.0000      -0.306025        -8.3274 
  34   2.0000      -0.284931        -7.7534 
  35   2.0000      -0.279021        -7.5925 
  36   2.0000      -0.264002        -7.1839 
  37   2.0000      -0.252705        -6.8764 
  38   2.0000      -0.238915        -6.5012 
  39   2.0000      -0.235990        -6.4216 
  40   0.0000       0.025273         0.6877 
  41   0.0000       0.049603         1.3498 
  42   0.0000       0.062749         1.7075 
  43   0.0000       0.089616         2.4386 
  44   0.0000       0.091347         2.4857 
  45   0.0000       0.112410         3.0588 
  46   0.0000       0.121655         3.3104 
  47   0.0000       0.127544         3.4707 
  48   0.0000       0.145734         3.9656 
  49   0.0000       0.152194         4.1414 
  50   0.0000       0.158637         4.3167 
*Only the first 10 virtual orbitals were printed.
Total SCF time: 0 days 0 hours 0 min 4 sec 
Finished LeanSCF after   4.7 sec

Maximum memory used throughout the entire LEANSCF-calculation: 31.7 MB


-------------------------------------------------------------------------------
                          DFT DISPERSION CORRECTION                            
                                                                               
                                DFTD4 V3.4.0                                   
-------------------------------------------------------------------------------
-------------------------   ----------------
Dispersion correction           -0.006252778
-------------------------   ----------------

------------------   -----------------
gCP correction             0.016005556
------------------   -----------------

-------------------------   --------------------
FINAL SINGLE POINT ENERGY      -572.563498677836
-------------------------   --------------------

------------------------------------------------------------------------------
                         ORCA SCF GRADIENT CALCULATION
------------------------------------------------------------------------------

Nuc. rep. gradient        (SHARK) ... done (  0.0 sec)
HCore & Overlap gradient  (SHARK) ... done (  0.3 sec)
Split-RIJ-J gradient      (SHARK) ... done (  1.7 sec)
XC gradient                       ... done (  6.5 sec)
Dispersion correction             ... done (  0.0 sec)

-------------------
DISPERSION GRADIENT
-------------------

   1   C   :    0.000009734    0.000062601   -0.000000580
   2   C   :    0.000060333    0.000018888   -0.000011835
   3   H   :    0.000036826    0.000006289   -0.000015495
   4   C   :    0.000018078   -0.000031268    0.000004959
   5   H   :    0.000010306   -0.000023594    0.000019458
   6   C   :   -0.000038305   -0.000030904   -0.000019877
   7   H   :   -0.000020086   -0.000026297   -0.000025717
   8   C   :   -0.000044688    0.000031196   -0.000007963
   9   H   :   -0.000037717    0.000011243   -0.000007265
  10   O   :   -0.000037143    0.000067942   -0.000026693
  11   O   :   -0.000093553    0.000045459    0.000045400
  12   O   :   -0.000054910   -0.000096349   -0.000009329
  13   O   :    0.000062150   -0.000092399    0.000009045
  14   O   :    0.000111605    0.000024425    0.000011409
  15   H   :    0.000017402    0.000044617   -0.000008994
  16   H   :    0.000006395    0.000036948    0.000012119
  17   H   :   -0.000031902    0.000011291    0.000021285
  18   H   :   -0.000026787   -0.000029810    0.000000184
  19   H   :    0.000017181   -0.000034753   -0.000001286
  20   H   :    0.000035082    0.000004473    0.000011175

Difference to translation invariance:
           :   -0.0000000000    0.0000000000    0.0000000000

Difference to rotation invariance:
           :    0.0000000000    0.0000000000    0.0000000000

Norm of the Dispersion gradient    ...    0.0002983562
RMS gradient                       ...    0.0000385176
MAX gradient                       ...    0.0001116050
gCP correction                   ... done

------------------
CARTESIAN GRADIENT
------------------

   1   C   :    0.000197972    0.000015858    0.000052144
   2   C   :   -0.000162308   -0.000020140   -0.000070896
   3   H   :    0.000017577   -0.000021690    0.000034396
   4   C   :   -0.000064255    0.000181085    0.000021384
   5   H   :    0.000007595   -0.000012695   -0.000005567
   6   C   :    0.000098536    0.000219761   -0.000013247
   7   H   :    0.000024853   -0.000026262    0.000014758
   8   C   :   -0.000101677   -0.000243973   -0.000104522
   9   H   :    0.000003797    0.000016509    0.000009586
  10   O   :   -0.000035106    0.000111408   -0.000055474
  11   O   :    0.000009551    0.000000520    0.000121398
  12   O   :   -0.000183983   -0.000039201    0.000036593
  13   O   :   -0.000025127   -0.000234899   -0.000067372
  14   O   :    0.000008400   -0.000109620    0.000121170
  15   H   :   -0.000010209   -0.000008916   -0.000011016
  16   H   :   -0.000021466   -0.000002335   -0.000015820
  17   H   :   -0.000000723    0.000010507   -0.000063704
  18   H   :    0.000101874   -0.000006573   -0.000033720
  19   H   :    0.000093156    0.000050136    0.000065647
  20   H   :    0.000041546    0.000120521   -0.000035737

Difference to translation invariance:
           :    0.0000000000    0.0000000000    0.0000000000

Difference to rotation invariance:
           :   -0.0001631354   -0.0005839332    0.0001425140

Norm of the Cartesian gradient     ...    0.0006779162
RMS gradient                       ...    0.0000875186
MAX gradient                       ...    0.0002439727

-------
TIMINGS
-------

Total SCF gradient time     ....        8.615 sec

Densities                   ....       0.001 sec  (  0.0%)
One electron gradient       ....       0.319 sec  (  3.7%)
RI-J Coulomb gradient       ....       1.729 sec  ( 20.1%)
XC gradient                 ....       6.545 sec  ( 76.0%)

Maximum memory used throughout the entire SCFGRAD-calculation: 41.1 MB

------------------------------------------------------------------------------
                              ORCA PROPERTY CALCULATIONS
------------------------------------------------------------------------------

GBWName                                 ... xtb_opt.gbw
Number of atoms                         ...     20
Number of basis functions               ...    265
Max core memory                         ...   1024 MB

Electric properties:
Dipole moment                           ... YES
Quadrupole moment                       ...  NO
Static polarizability (Dipole/Dipole)   ...  NO
Static polarizability (Dipole/Quad.)    ...  NO
Static polarizability (Quad./Quad.)     ...  NO
Static polarizability (Velocity)        ...  NO

Atomic electric properties:
Dipole moment                           ...  NO
Quadrupole moment                       ...  NO
Static polarizability                   ...  NO

Choice of electric origin               ... Center of mass
Position of electric origin             ...    -0.006400     0.022515     0.017468

General magnetic properties:
Magnetizability                         ...  NO

EPR properties:
g-Tensor (aka g-matrix)                 ...  NO
Zero-Field splitting spin-orbit         ...  NO
Zero-field splitting spin-spin          ...  NO
Hyperfine couplings                     ...  NO (   0 nuclei)
Quadrupole couplings                    ...  NO (   0 nuclei)
Contact density                         ...  NO (   0 nuclei)

NMR properties:
Chemical shifts                         ...  NO (   0 nuclei)
Spin-rotation constants                 ...  NO (   0 nuclei)
Spin-spin couplings                     ...  NO (   0 nuclei,    0 pairs)

Choice of magnetic origin               ... GIAO
Position of magnetic origin             ...     0.000000     0.000000     0.000000

Properties with geometric perturbations:
SCF Hessian                             ...  NO
IR spectrum                             ...  NO
VCD spectrum                            ...  NO
X-ray spectroscopy properties:
SCF XES/XAS/RIXS spectra                ...  NO


-------------
DIPOLE MOMENT
-------------

Method             : SCF
Type of density    : Electron Density
Multiplicity       :   1
Irrep              :   0
Energy             :  -572.5732514554508725 Eh
Relativity type    : 
Basis              : AO
                                X                 Y                 Z
Electronic contribution:     -1.471494682      -0.891432442       0.196210128
Nuclear contribution   :      2.207725445       1.630843131      -0.411260780
                        -----------------------------------------
Total Dipole Moment    :      0.736230763       0.739410690      -0.215050652
                        -----------------------------------------
Magnitude (a.u.)       :      1.065368803
Magnitude (Debye)      :      2.707952293



--------------------
Rotational spectrum 
--------------------
 
Rotational constants in cm-1:             0.056378             0.044831             0.029038 
Rotational constants in MHz :          1690.181071          1343.993483           870.523249 

Dipole components along the rotational axes: 
x,y,z [a.u.] :     0.744732    -0.726727    -0.228589 
x,y,z [Debye]:     1.892958    -1.847193    -0.581027 

 

Dipole moment calculation done in   0.0 sec 

Maximum memory used throughout the entire PROP-calculation: 19.9 MB

--------------------------------
SUGGESTED CITATIONS FOR THIS RUN
--------------------------------

Below you find a list of papers that are relevant to this ORCA run
We neither can nor want to force you to cite these papers, but we appreciate if you do
You receive ORCA, which is the product of decades of hard work by many enthusiastic individuals, for free
The only thing we kindly ask in return is that you cite our papers,
We deeply appreciate it, if you show your appreciation for ORCA by not just citing the generic ORCA reference.

Please note that relegating all ORCA citations to the supporting information does *not* help us.
SI sections are not indexed - citations you put there will not count into any citation statistics
But we need these citations in order to attract the funding resources that allow us to do what we are doing

Therefore, if you are a happy ORCA user, please consider citing a few of the papers listed below in the main body of your paper

In addition to the list printed below, the program has created the file xtb_opt.bibtex that contains the list in bibtex format
You can import this file easily into all common literature databanks and citation aid programs


List of essential papers. We consider these as the minimum necessary citations

  1. Neese,F.
     Software update: the ORCA program system, version 5.0
     WIRES Comput. Molec. Sci., 2022 12(1)e1606
     doi.org/10.1002/wcms.1606
  2. Grimme,S.; Hansen,A.; Ehlert,S.; Mewes,J.
     r2SCAN-3c: A 'Swiss army knife' composite electronic-structure method
     J. Chem. Phys., 2021 154 064103
     doi.org/10.1063/5.0040021

List of papers to cite with high priority. The work reported in these papers was absolutely
necessary for this run to complete.
Our perspective: the developers of density functionals and basis sets usually get cited in chemistry papers
Good! But without the algorithms to do something with them, the functionals or basis sets would not do anything.
Hence, in our opinion, the algorithm design and method developments papers are equally worthy of getting cited

  1. Neese,F.
     An improvement of the resolution of the identity approximation for the formation of the Coulomb matrix
     J. Comp. Chem., 2003 24(14)1740-1747
     doi.org/10.1002/jcc.10318
  2. Neese,F.
     The SHARK Integral Generation and Digestion System
     J. Comp. Chem., 2022  1-16
     doi.org/10.1002/jcc.26942
  3. Lehtola,S.; Steigemann,C.; Oliveira,M.; Marques,M.
     Recent developments in Libxc - A comprehensive library of functionals for density functional theory
     Software X, 2018 7 
     doi.org/10.1016/j.softx.2017.11.002
  4. Caldeweyher,E.; Bannwarth,C.; Grimme,S.
     Extension of the D3 dispersion coefficient model
     J. Chem. Phys., 2017 147 034112
     doi.org/10.1063/1.4993215
  5. Caldeweyher,E.; Ehlert,S.; Hansen,A.; Neugebauer,H.; Spicher,S.; Bannwarth,C.; Grimme,S.
     A generally applicable atomic-charge dependent London dispersion correction
     J. Chem. Phys., 2019 150 154122
     doi.org/10.1063/1.5090222
  6. Caldeweyher,E.; Mewes,J.; Ehlert,S.; Grimme,S.
     Extension and evaluation of the D4 London-dispersion model for periodic systems
     Phys. Chem. Chem. Phys., 2020 22(16)8499-8512
     doi.org/10.1039/D0CP00502A
  7. Wittmann,L.; Gordiy,I.; Friede,M.; Helmich-Paris,B.; Grimme,S.; Hansen,A.; Bursch,M.
     Extension of the D3 and D4 London Dispersion Corrections to the full Actinides Series
     Phys. Chem. Chem. Phys., 2024 26(32)21379-21394
     doi.org/https://doi.org/10.1039/D4CP01514B 

List of suggested additional citations. These are papers that are important in the 'surrounding' of 
of this run, or papers that preceded the highly important papers. If you like your results we are grateful for a citation.

  1. Neese,F.
     The ORCA program system
     WIRES Comput. Molec. Sci., 2012 2(1)73-78
     doi.org/10.1002/wcms.81
  2. Neese,F.
     Software update: the ORCA program system, version 4.0
     WIRES Comput. Molec. Sci., 2018 8(1)1-6
     doi.org/10.1002/wcms.1327
  3. Neese,F.; Wennmohs,F.; Becker,U.; Riplinger,C.
     The ORCA quantum chemistry program package
     J. Chem. Phys., 2020 152 Art. No. L224108
     doi.org/10.1063/5.0004608

List of optional additional citations

  1. Neese,F.
     Approximate second-order SCF convergence for spin unrestricted wavefunctions
     Chem. Phys. Lett., 2000 325(1-3)93-98
     doi.org/10.1016/s0009-2614(00)00662-x

Timings for individual modules:

Sum of individual times          ...       14.270 sec (=   0.238 min)
Startup calculation              ...        0.729 sec (=   0.012 min)   5.1 %
SCF iterations                   ...        4.827 sec (=   0.080 min)  33.8 %
Property calculations            ...        0.048 sec (=   0.001 min)   0.3 %
SCF Gradient evaluation          ...        8.666 sec (=   0.144 min)  60.7 %
                             ****ORCA TERMINATED NORMALLY****
TOTAL RUN TIME: 0 days 0 hours 0 minutes 14 seconds 342 msec
  ------------------------------------------------------------------------
          * successful ORCA run, taking over control again...

         :::::::::::::::::::::::::::::::::::::::::::::::::::::
         ::                  ORCA SUMMARY                   ::
         :::::::::::::::::::::::::::::::::::::::::::::::::::::
         :: total energy            -572.563498677836 Eh    ::
         :: gradient norm              0.000677916225 Eh/a0 ::
         :: HOMO-LUMO gap              0.000000000000 eV    ::
         :::::::::::::::::::::::::::::::::::::::::::::::::::::

           -------------------------------------------------
          |                Property Printout                |
           -------------------------------------------------
           -------------------------------------------------
          |                Geometry Summary                 |
           -------------------------------------------------

      molecular mass/u    :      150.1301116
   center of mass at/Å    :       -0.0033891       0.0119086       0.0092472
  moments of inertia/u·Å² :        0.2990109E+03   0.3760309E+03   0.5805510E+03
rotational constants/cm⁻¹ :        0.5637799E-01   0.4483044E-01   0.2903730E-01

 * 20 selected distances

     #   Z          #   Z                                           value/Å
     1   6          2   6                                         1.5278356
     2   6          3   1                                         1.1010355
     2   6          4   6                                         1.5188764
     4   6          5   1                                         1.1009418
     4   6          6   6                                         1.5223679
     6   6          7   1                                         1.1035182
     6   6          8   6                                         1.5283194 (max)
     8   6          9   1                                         1.0978215
     1   6         10   8                                         1.4346861
     8   6         10   8                                         1.4251913
     8   6         11   8                                         1.4076635
     6   6         12   8                                         1.4166514
     4   6         13   8                                         1.4300470
     2   6         14   8                                         1.4344215
     1   6         15   1                                         1.0942768
     1   6         16   1                                         1.0984773
    11   8         17   1                                         0.9642857
    12   8         18   1                                         0.9656848
    13   8         19   1                                         0.9647154
    14   8         20   1                                         0.9630593 (min)

 * 4 distinct bonds (by element types)

   Z      Z             #   av. dist./Å        max./Å        min./Å
   1 H    6 C           6     1.0993452     1.1035182     1.0942768
   6 C    6 C           4     1.5243498     1.5283194     1.5188764
   1 H    8 O           4     0.9644363     0.9656848     0.9630593
   6 C    8 O           6     1.4247768     1.4346861     1.4076635


optimized geometry written to: xtbopt.coord


           -------------------------------------------------
          | TOTAL ENERGY             -572.563498677836 Eh   |
          | GRADIENT NORM               0.000677916225 Eh/α |
           -------------------------------------------------

------------------------------------------------------------------------
 * finished run on 2025/04/09 at 02:32:11.822     
------------------------------------------------------------------------
 total:
 * wall-time:     0 d,  0 h,  1 min, 53.123 sec
 *  cpu-time:     0 d,  0 h,  0 min,  0.500 sec
 * ratio c/w:     0.004 speedup
 SCF:
 * wall-time:     0 d,  0 h,  0 min, 24.725 sec
 *  cpu-time:     0 d,  0 h,  0 min,  0.047 sec
 * ratio c/w:     0.002 speedup
 ANC optimizer:
 * wall-time:     0 d,  0 h,  1 min, 28.068 sec
 *  cpu-time:     0 d,  0 h,  0 min,  0.013 sec
 * ratio c/w:     0.000 speedup

