      -----------------------------------------------------------      
     |                   =====================                   |     
     |                           x T B                           |     
     |                   =====================                   |     
     |                         S. Grimme                         |     
     |          Mulliken Center for Theoretical Chemistry        |     
     |                    University of Bonn                     |     
      -----------------------------------------------------------      

   * xtb version 6.7.1 (41059b4) compiled by 'michael@archlinux' on 2025-03-24

   xtb is free software: you can redistribute it and/or modify it under
   the terms of the GNU Lesser General Public License as published by
   the Free Software Foundation, either version 3 of the License, or
   (at your option) any later version.
   
   xtb is distributed in the hope that it will be useful,
   but WITHOUT ANY WARRANTY; without even the implied warranty of
   MERCHANTABILITY or FITNESS FOR A PARTICULAR PURPOSE.  See the
   GNU Lesser General Public License for more details.
   
   Cite this work as:
   * C. Bannwarth, E. Caldeweyher, S. Ehlert, A. Hansen, P. Pracht,
     J. Seibert, S. Spicher, S. Grimme, WIREs Comput. Mol. Sci., 2020, 11,
     e01493. DOI: 10.1002/wcms.1493
   
   for GFN2-xTB:
   * C. Bannwarth, S. Ehlert and S. Grimme., J. Chem. Theory Comput., 2019,
     15, 1652-1671. DOI: 10.1021/acs.jctc.8b01176
   for GFN1-xTB:
   * S. Grimme, C. Bannwarth, P. Shushkov, J. Chem. Theory Comput., 2017,
     13, 1989-2009. DOI: 10.1021/acs.jctc.7b00118
   for GFN0-xTB:
   * P. Pracht, E. Caldeweyher, S. Ehlert, S. Grimme, ChemRxiv, 2019, preprint.
     DOI: 10.26434/chemrxiv.8326202.v1
   for GFN-FF:
   * S. Spicher and S. Grimme, Angew. Chem. Int. Ed., 2020, 59, 15665-15673.
     DOI: 10.1002/anie.202004239
   
   for ALPB and GBSA implicit solvation:
   * S. Ehlert, M. Stahn, S. Spicher, S. Grimme, J. Chem. Theory Comput.,
     2021, 17, 4250-4261. DOI: 10.1021/acs.jctc.1c00471
   
   for ddCOSMO and CPCM-X implicit solvation:
   * M. Stahn, S. Ehlert, S. Grimme, J. Phys. Chem. A,
     2023, XX, XXXX-XXXX. DOI: 10.1021/acs.jpca.3c04382
   
   for DFT-D4:
   * E. Caldeweyher, C. Bannwarth and S. Grimme, J. Chem. Phys., 2017,
     147, 034112. DOI: 10.1063/1.4993215
   * E. Caldeweyher, S. Ehlert, A. Hansen, H. Neugebauer, S. Spicher,
     C. Bannwarth and S. Grimme, J. Chem. Phys., 2019, 150, 154122.
     DOI: 10.1063/1.5090222
   * E. Caldeweyher, J.-M. Mewes, S. Ehlert and S. Grimme, Phys. Chem. Chem. Phys.
     2020, 22, 8499-8512. DOI: 10.1039/D0CP00502A
   
   for sTDA-xTB:
   * S. Grimme and C. Bannwarth, J. Chem. Phys., 2016, 145, 054103.
     DOI: 10.1063/1.4959605
   
   in the mass-spec context:
   * V. Asgeirsson, C. Bauer and S. Grimme, Chem. Sci., 2017, 8, 4879.
     DOI: 10.1039/c7sc00601b
   * J. Koopman and S. Grimme, ACS Omega 2019, 4, 12, 15120-15133.
     DOI: 10.1021/acsomega.9b02011
   
   for metadynamics refer to:
   * S. Grimme, J. Chem. Theory Comput., 2019, 155, 2847-2862
     DOI: 10.1021/acs.jctc.9b00143
   
   for SPH calculations refer to:
   * S. Spicher and S. Grimme, J. Chem. Theory Comput., 2021, 17, 1701-1714
     DOI: 10.1021/acs.jctc.0c01306
   
   for ONIOM refer to:
   * C. Plett, A. Katbashev, S. Ehlert, S. Grimme, M. Bursch,
     Phys. Chem. Chem. Phys., 2023, 25, 17860-17868. DOI: 10.1039/D3CP02178E
   
   for DIPRO refer to:
   * J. Kohn, N. Gildemeister, S. Grimme, D. Fazzi, A. Hansen,
     J. Chem. Phys., 2023, just accepted.
   
   for PTB refer to:
   * S. Grimme, M. Mueller, A. Hansen, J. Chem. Phys., 2023, 158, 124111.
     DOI: 10.1063/5.0137838
   
   with help from (in alphabetical order)
   P. Atkinson, C. Bannwarth, F. Bohle, G. Brandenburg, E. Caldeweyher
   M. Checinski, S. Dohm, S. Ehlert, S. Ehrlich, I. Gerasimov, C. Hölzer
   A. Katbashev, J. Kohn, J. Koopman, C. Lavigne, S. Lehtola, F. März, M. Müller,
   F. Musil, H. Neugebauer, J. Pisarek, C. Plett, P. Pracht, F. Pultar,
   J. Seibert, P. Shushkov, S. Spicher, M. Stahn, M. Steiner, T. Strunk,
   J. Stückrath, T. Rose, and J. Unsleber
   
 * started run on 2025/04/09 at 05:31:24.121     
   ID    Z sym.   atoms
    1    6 C      1, 3, 4, 6, 7
    2    7 N      2, 5
    3    1 H      8-19

           -------------------------------------------------
          |                Calculation Setup                |
           -------------------------------------------------

          program call               : /usr/bin/xtb xtb_rrho.coord --gfn2 --ohess vtight --chrg 0 --enso --norestart -I rrho-xcontrol-inp --parallel 1
          coordinate file            : xtb_rrho.coord
          omp threads                :                     1


           -------------------------------------------------
          |                 G F N 2 - x T B                 |
           -------------------------------------------------

        Reference                      10.1021/acs.jctc.8b01176
      * Hamiltonian:
        H0-scaling (s, p, d)           1.850000    2.230000    2.230000
        zeta-weighting                 0.500000
      * Dispersion:
        s8                             2.700000
        a1                             0.520000
        a2                             5.000000
        s9                             5.000000
      * Repulsion:
        kExp                           1.500000    1.000000
        rExp                           1.000000
      * Coulomb:
        alpha                          2.000000
        third order                    shell-resolved
        anisotropic                    true
        a3                             3.000000
        a5                             4.000000
        cn-shift                       1.200000
        cn-exp                         4.000000
        max-rad                        5.000000


          ...................................................
          :                      SETUP                      :
          :.................................................:
          :  # basis functions                  40          :
          :  # atomic orbitals                  40          :
          :  # shells                           26          :
          :  # electrons                        42          :
          :  max. iterations                   250          :
          :  Hamiltonian                  GFN2-xTB          :
          :  restarted?                      false          :
          :  GBSA solvation                  false          :
          :  PC potential                    false          :
          :  electronic temp.          300.0000000     K    :
          :  accuracy                    1.0000000          :
          :  -> integral cutoff          0.2500000E+02      :
          :  -> integral neglect         0.1000000E-07      :
          :  -> SCF convergence          0.1000000E-05 Eh   :
          :  -> wf. convergence          0.1000000E-03 e    :
          :  Broyden damping             0.4000000          :
          :  net charge                          0          :
          :  unpaired electrons                  0          :
          ...................................................

 iter      E             dE          RMSdq      gap      omega  full diag
   1    -22.9010791 -0.229011E+02  0.268E+00    9.83       0.0  T
   2    -22.9314101 -0.303311E-01  0.157E+00    9.78       1.0  T
   3    -22.9323192 -0.909056E-03  0.674E-01    9.71       1.0  T
   4    -22.9324385 -0.119343E-03  0.791E-02    9.63       1.0  T
   5    -22.9324466 -0.812043E-05  0.419E-02    9.63       1.0  T
   6    -22.9324473 -0.625502E-06  0.424E-03    9.64       5.4  T
   7    -22.9324473 -0.366068E-07  0.182E-03    9.64      12.6  T
   8    -22.9324473 -0.588041E-08  0.368E-04    9.64      62.3  T
   9    -22.9324473 -0.228344E-09  0.136E-04    9.64     168.7  T

   *** convergence criteria satisfied after 9 iterations ***

         #    Occupation            Energy/Eh            Energy/eV
      -------------------------------------------------------------
         1        2.0000           -0.6439573             -17.5230
       ...           ...                  ...                  ...
        15        2.0000           -0.4621911             -12.5769
        16        2.0000           -0.4557541             -12.4017
        17        2.0000           -0.4416593             -12.0182
        18        2.0000           -0.4364321             -11.8759
        19        2.0000           -0.4322260             -11.7615
        20        2.0000           -0.3643738              -9.9151
        21        2.0000           -0.3379795              -9.1969 (HOMO)
        22                          0.0161193               0.4386 (LUMO)
        23                          0.0444546               1.2097
        24                          0.0607119               1.6521
        25                          0.0906951               2.4679
        26                          0.0959104               2.6099
       ...                                ...                  ...
        40                          0.2901152               7.8944
      -------------------------------------------------------------
                  HL-Gap            0.3540988 Eh            9.6355 eV
             Fermi-level           -0.1609301 Eh           -4.3791 eV

 SCC (total)                   0 d,  0 h,  0 min,  0.007 sec
 SCC setup                      ...        0 min,  0.000 sec (  0.917%)
 Dispersion                     ...        0 min,  0.000 sec (  1.082%)
 classical contributions        ...        0 min,  0.000 sec (  0.275%)
 integral evaluation            ...        0 min,  0.001 sec ( 14.628%)
 iterations                     ...        0 min,  0.003 sec ( 43.018%)
 molecular gradient             ...        0 min,  0.003 sec ( 38.824%)
 printout                       ...        0 min,  0.000 sec (  1.145%)

         :::::::::::::::::::::::::::::::::::::::::::::::::::::
         ::                     SUMMARY                     ::
         :::::::::::::::::::::::::::::::::::::::::::::::::::::
         :: total energy             -22.665089606792 Eh    ::
         :: gradient norm              0.022657534117 Eh/a0 ::
         :: HOMO-LUMO gap              9.635519871778 eV    ::
         ::.................................................::
         :: SCC energy               -22.932400082998 Eh    ::
         :: -> isotropic ES            0.014187678152 Eh    ::
         :: -> anisotropic ES          0.007363951717 Eh    ::
         :: -> anisotropic XC          0.018999442051 Eh    ::
         :: -> dispersion             -0.013373383930 Eh    ::
         :: repulsion energy           0.267310476206 Eh    ::
         :: add. restraining           0.000000000000 Eh    ::
         :: total charge              -0.000000000000 e     ::
         :::::::::::::::::::::::::::::::::::::::::::::::::::::

      ----------------------------------------------------------- 
     |                   =====================                   |
     |                        A N C O P T                        |
     |                   =====================                   |
     |               Approximate Normal Coordinate               |
     |                Rational Function Optimizer                |
      ----------------------------------------------------------- 

          ...................................................
          :                      SETUP                      :
          :.................................................:
          :   optimization level         verytight          :
          :   max. optcycles                   380          :
          :   ANC micro-cycles                  20          :
          :   degrees of freedom                51          :
          :.................................................:
          :   RF solver                   davidson          :
          :   write xtbopt.log                true          :
          :   linear?                        false          :
          :   energy convergence         0.1000000E-06 Eh   :
          :   grad. convergence          0.2000000E-03 Eh/α :
          :   maximum RF displ.          1.0000000          :
          :   Hlow (freq-cutoff)         0.1000000E-01      :
          :   Hmax (freq-cutoff)         5.0000000          :
          :   S6 in model hess.         20.0000000          :
          ...................................................

generating ANC from exact Hessian ...
Using Lindh-Hessian (1995)
 Shifting diagonal of input Hessian by    5.0083022935613671E-003
 Lowest  eigenvalues of input Hessian
    0.000000    0.000000    0.000000    0.000000    0.000000    0.000000
    0.010000    0.012443    0.013828    0.019316    0.022603    0.027280
    0.034909    0.038597    0.052652    0.058027    0.059004    0.061644
 Highest eigenvalues
    1.182743    1.208831    1.379421    1.379462    1.429269    1.460280


........................................................................
.............................. CYCLE    1 ..............................
........................................................................

 iter      E             dE          RMSdq      gap      omega  full diag
   1    -22.9324473 -0.229324E+02  0.331E-05    9.64       0.0  T
   2    -22.9324473 -0.279954E-11  0.193E-05    9.64    1187.8  T
   3    -22.9324473 -0.170530E-12  0.870E-06    9.64    2637.8  T
     SCC iter.                  ...        0 min,  0.001 sec
     gradient                   ...        0 min,  0.003 sec
 * total energy  :   -22.6650896 Eh     change       -0.1405098E-10 Eh
   gradient norm :     0.0226579 Eh/α   predicted     0.0000000E+00 (-100.00%)
   displ. norm   :     0.1265496 α      lambda       -0.1667921E-02
   maximum displ.:     0.0664219 α      in ANC's #18, #14, #9, ...

........................................................................
.............................. CYCLE    2 ..............................
........................................................................

 iter      E             dE          RMSdq      gap      omega  full diag
   1    -22.9418318 -0.229418E+02  0.114E-01    9.83       0.0  T
   2    -22.9418413 -0.945111E-05  0.711E-02    9.84       1.0  T
   3    -22.9418416 -0.366528E-06  0.787E-03    9.83       2.9  T
   4    -22.9418418 -0.199737E-06  0.221E-03    9.83      10.4  T
   5    -22.9418418 -0.499339E-08  0.850E-04    9.83      27.0  T
   6    -22.9418418 -0.395193E-09  0.146E-04    9.83     157.7  T
     SCC iter.                  ...        0 min,  0.002 sec
     gradient                   ...        0 min,  0.003 sec
 * total energy  :   -22.6661240 Eh     change       -0.1034370E-02 Eh
   gradient norm :     0.0098054 Eh/α   predicted    -0.8473176E-03 ( -18.08%)
   displ. norm   :     0.0540860 α      lambda       -0.2269923E-03
   maximum displ.:     0.0258216 α      in ANC's #4, #6, #14, ...

........................................................................
.............................. CYCLE    3 ..............................
........................................................................

 iter      E             dE          RMSdq      gap      omega  full diag
   1    -22.9453860 -0.229454E+02  0.382E-02    9.89       0.0  T
   2    -22.9453873 -0.126089E-05  0.238E-02    9.89       1.0  T
   3    -22.9453874 -0.812372E-07  0.330E-03    9.89       7.0  T
   4    -22.9453874 -0.245517E-07  0.107E-03    9.89      21.4  T
   5    -22.9453874 -0.164154E-08  0.365E-04    9.89      62.9  T
   6    -22.9453874 -0.111108E-09  0.889E-05    9.89     258.1  T
     SCC iter.                  ...        0 min,  0.002 sec
     gradient                   ...        0 min,  0.003 sec
 * total energy  :   -22.6662540 Eh     change       -0.1300054E-03 Eh
   gradient norm :     0.0031841 Eh/α   predicted    -0.1138305E-03 ( -12.44%)
   displ. norm   :     0.0240232 α      lambda       -0.2336230E-04
   maximum displ.:     0.0150653 α      in ANC's #1, #6, #4, ...

........................................................................
.............................. CYCLE    4 ..............................
........................................................................

 iter      E             dE          RMSdq      gap      omega  full diag
   1    -22.9454331 -0.229454E+02  0.135E-02    9.90       0.0  T
   2    -22.9454332 -0.962520E-07  0.798E-03    9.90       2.9  T
   3    -22.9454332 -0.127437E-07  0.107E-03    9.90      21.5  T
   4    -22.9454332 -0.255787E-08  0.399E-04    9.90      57.5  T
   5    -22.9454332 -0.354017E-09  0.117E-04    9.90     196.3  T
     SCC iter.                  ...        0 min,  0.001 sec
     gradient                   ...        0 min,  0.003 sec
 * total energy  :   -22.6662693 Eh     change       -0.1533146E-04 Eh
   gradient norm :     0.0011595 Eh/α   predicted    -0.1168841E-04 ( -23.76%)
   displ. norm   :     0.0227989 α      lambda       -0.5554008E-05
   maximum displ.:     0.0188431 α      in ANC's #1, #9, #6, ...

........................................................................
.............................. CYCLE    5 ..............................
........................................................................

 iter      E             dE          RMSdq      gap      omega  full diag
   1    -22.9449554 -0.229450E+02  0.117E-02    9.90       0.0  T
   2    -22.9449555 -0.812138E-07  0.673E-03    9.90       3.4  T
   3    -22.9449555 -0.935239E-08  0.103E-03    9.90      22.2  T
   4    -22.9449555 -0.102550E-08  0.327E-04    9.90      70.1  T
   5    -22.9449555 -0.139330E-09  0.906E-05    9.90     253.1  T
     SCC iter.                  ...        0 min,  0.002 sec
     gradient                   ...        0 min,  0.003 sec
 * total energy  :   -22.6662724 Eh     change       -0.3064961E-05 Eh
   gradient norm :     0.0005901 Eh/α   predicted    -0.2782022E-05 (  -9.23%)
   displ. norm   :     0.0066042 α      lambda       -0.7683029E-06
   maximum displ.:     0.0057336 α      in ANC's #4, #1, #6, ...

........................................................................
.............................. CYCLE    6 ..............................
........................................................................

 iter      E             dE          RMSdq      gap      omega  full diag
   1    -22.9450249 -0.229450E+02  0.319E-03    9.90       0.0  T
   2    -22.9450249 -0.666769E-08  0.187E-03    9.90      12.2  T
   3    -22.9450249 -0.632973E-09  0.266E-04    9.90      86.3  T
   4    -22.9450249 -0.216428E-09  0.905E-05    9.90     253.5  T
     SCC iter.                  ...        0 min,  0.001 sec
     gradient                   ...        0 min,  0.003 sec
 * total energy  :   -22.6662731 Eh     change       -0.7664768E-06 Eh
   gradient norm :     0.0001466 Eh/α   predicted    -0.4031154E-06 ( -47.41%)
   displ. norm   :     0.0065073 α      lambda       -0.2109273E-06
   maximum displ.:     0.0050512 α      in ANC's #1, #4, #16, ...

........................................................................
.............................. CYCLE    7 ..............................
........................................................................

 iter      E             dE          RMSdq      gap      omega  full diag
   1    -22.9450877 -0.229451E+02  0.199E-03    9.90       0.0  T
   2    -22.9450877 -0.239378E-08  0.115E-03    9.90      20.0  T
   3    -22.9450877 -0.255149E-09  0.173E-04    9.90     132.4  T
   4    -22.9450877 -0.120593E-09  0.603E-05    9.90     380.2  T
     SCC iter.                  ...        0 min,  0.001 sec
     gradient                   ...        0 min,  0.003 sec
 * total energy  :   -22.6662733 Eh     change       -0.1961440E-06 Eh
   gradient norm :     0.0000424 Eh/α   predicted    -0.1059094E-06 ( -46.00%)
   displ. norm   :     0.0033392 α      lambda       -0.2447633E-07
   maximum displ.:     0.0028401 α      in ANC's #1, #4, #6, ...

........................................................................
.............................. CYCLE    8 ..............................
........................................................................

 iter      E             dE          RMSdq      gap      omega  full diag
   1    -22.9450715 -0.229451E+02  0.114E-03    9.90       0.0  T
   2    -22.9450715 -0.108185E-08  0.657E-04    9.90      34.9  T
   3    -22.9450715 -0.907612E-10  0.111E-04    9.90     206.1  T
     SCC iter.                  ...        0 min,  0.001 sec
     gradient                   ...        0 min,  0.003 sec
 * total energy  :   -22.6662734 Eh     change       -0.3475062E-07 Eh
   gradient norm :     0.0000472 Eh/α   predicted    -0.2094118E-07 ( -39.74%)
   displ. norm   :     0.0037824 α      lambda        0.3769246E-07
   maximum displ.:     0.0032751 α      in ANC's #1, #4, #6, ...

   *** GEOMETRY OPTIMIZATION CONVERGED AFTER 8 ITERATIONS ***

------------------------------------------------------------------------
 total energy gain   :        -0.0011838 Eh       -0.7428 kcal/mol
 total RMSD          :         0.0422721 a0        0.0224 Å
 total power (kW/mol):        -0.3884983 (step)  -63.2219 (real)
------------------------------------------------------------------------

 ANCopt (total)                0 d,  0 h,  0 min,  0.049 sec
 optimizer setup                ...        0 min,  0.000 sec (  0.078%)
 model hessian                  ...        0 min,  0.007 sec ( 13.677%)
 ANC generation                 ...        0 min,  0.000 sec (  0.502%)
 coordinate transformation      ...        0 min,  0.000 sec (  0.049%)
 single point calculation       ...        0 min,  0.041 sec ( 83.652%)
 optimization log               ...        0 min,  0.000 sec (  0.778%)
 hessian update                 ...        0 min,  0.000 sec (  0.069%)
 rational function              ...        0 min,  0.000 sec (  0.407%)

================
 final structure:
================
$coord
        3.68567041806352        0.00007209555310        1.33494502638456      C
        2.07414548257643       -0.00000461971011       -0.87399355425431      N
        0.51340668311951        2.24046823932957       -1.12900012713232      C
       -1.77198103968745        2.26098686072277        0.65517300390278      C
       -3.25539581956208       -0.00009634387414        0.18329351012706      N
       -1.77188547662368       -2.26109864686798        0.65526024230154      C
        0.51350004450859       -2.24055204580016       -1.12891515464970      C
        4.88852039007449        1.67041095898584        1.26659987186834      H
        4.88856814927977       -1.67023551452490        1.26668216793200      H
        2.67595113146232        0.00010239776317        3.15031735459955      H
        1.68134666524864        3.91116807455737       -0.81027728713853      H
       -0.18410016648793        2.27684958385602       -3.07438372609980      H
       -1.11563362070109        2.38292181940992        2.63469030844327      H
       -2.94393963951878        3.91399628273657        0.26340367774233      H
       -4.83952399744625       -0.00010878928416        1.26670596589164      H
       -1.11553132634623       -2.38292891555055        2.63478175725695      H
       -2.94377450019451       -3.91417276589068        0.26355580861144      H
        1.68150978354567       -3.91119144269633       -0.81013115488240      H
       -0.18400685975488       -2.27703481053610       -3.07429684752682      H
$end

 Bond Distances (Angstroems)
 ---------------------------
C1-N2=1.4469         C1-H8=1.0898         C1-H9=1.0898         C1-H10=1.0993        N2-C1=1.4469         N2-C3=1.4512         
N2-C7=1.4512         C3-N2=1.4512         C3-C4=1.5343         C3-H11=1.0918        C3-H12=1.0938        C4-C3=1.5343         
C4-N5=1.4527         C4-H13=1.1055        C4-H14=1.0921        N5-C4=1.4527         N5-C6=1.4527         N5-H15=1.0156        
C6-N5=1.4527         C6-C7=1.5343         C6-H16=1.1055        C6-H17=1.0921        C7-N2=1.4512         C7-C6=1.5343         
C7-H18=1.0918        C7-H19=1.0938        H8-C1=1.0898         H9-C1=1.0898         H10-C1=1.0993        H11-C3=1.0918        
H12-C3=1.0938        H13-C4=1.1055        H14-C4=1.0921        H15-N5=1.0156        H16-C6=1.1055        H17-C6=1.0921        
H18-C7=1.0918        H19-C7=1.0938        
 C  H  Rav=1.0950 sigma=0.0055  Rmin=1.0898  Rmax=1.1055    11
 C  C  Rav=1.5343 sigma=0.0000  Rmin=1.5343  Rmax=1.5343     2
 N  H  Rav=1.0156 sigma=0.0000  Rmin=1.0156  Rmax=1.0156     1
 N  C  Rav=1.4509 sigma=0.0021  Rmin=1.4469  Rmax=1.4527     5

 selected bond angles (degree)
 --------------------
H8-C1-N2=108.51                H9-C1-N2=108.51                H9-C1-H8=108.39                H10-C1-N2=114.80               
H10-C1-H8=108.23               H10-C1-H9=108.23               C3-N2-C1=114.24                C7-N2-C1=114.24                
C7-N2-C3=109.57                C4-C3-N2=113.40                H11-C3-N2=108.97               H11-C3-C4=110.21               
H12-C3-N2=107.09               H12-C3-C4=108.24               H12-C3-H11=108.79              N5-C4-C3=108.32                
H13-C4-C3=109.62               H13-C4-N5=112.38               H14-C4-C3=109.66               H14-C4-N5=108.68               
H14-C4-H13=108.15              C6-N5-C4=110.91                H15-N5-C4=110.43               H15-N5-C6=110.43               
C7-C6-N5=108.32                H16-C6-N5=112.38               H16-C6-C7=109.62               H17-C6-N5=108.68               
H17-C6-C7=109.66               H17-C6-H16=108.15              C6-C7-N2=113.40                H18-C7-N2=108.97               
H18-C7-C6=110.21               H19-C7-N2=107.09               H19-C7-C6=108.24               H19-C7-H18=108.79              

 selected dihedral angles (degree)
 ---------------------------------
C3-N2-C1-H8=302.42            C3-N2-C1-H9=184.84            C3-N2-C1-H10= 63.63           C7-N2-C1-H8=175.16            
C7-N2-C1-H9= 57.58            C7-N2-C1-H10=296.37           C4-C3-N2-C1=283.52            C4-C3-N2-C7= 53.15            
H11-C3-N2-C1= 46.66           H11-C3-N2-C7=176.29           H12-C3-N2-C1=164.18           H12-C3-N2-C7=293.81           
N5-C4-C3-N2=302.98            N5-C4-C3-H11=180.52           N5-C4-C3-H12= 61.66           H13-C4-C3-N2= 65.93           
H13-C4-C3-H11=303.47          H13-C4-C3-H12=184.60          H14-C4-C3-N2=184.52           H14-C4-C3-H11= 62.07          
H14-C4-C3-H12=303.20          C6-N5-C4-C3= 60.39            C6-N5-C4-H13=299.13           C6-N5-C4-H14=179.47           
H15-N5-C4-C3=183.14           H15-N5-C4-H13= 61.88          H15-N5-C4-H14=302.22          C7-C6-N5-C4=299.61            
C7-C6-N5-H15=176.86           H16-C6-N5-C4= 60.87           H16-C6-N5-H15=298.12          H17-C6-N5-C4=180.53           
H17-C6-N5-H15= 57.78          C6-C7-N2-C1= 76.48            C6-C7-N2-C3=306.85            H18-C7-N2-C1=313.34           
H18-C7-N2-C3=183.71           H19-C7-N2-C1=195.82           H19-C7-N2-C3= 66.19           N2-C7-C6-N5= 57.02            
N2-C7-C6-H16=294.07           N2-C7-C6-H17=175.48           H18-C7-C6-N5=179.48           H18-C7-C6-H16= 56.53          
H18-C7-C6-H17=297.93          H19-C7-C6-N5=298.34           H19-C7-C6-H16=175.40          H19-C7-C6-H17= 56.80          
           -------------------------------------------------
          |                Final Singlepoint                |
           -------------------------------------------------

          ...................................................
          :                      SETUP                      :
          :.................................................:
          :  # basis functions                  40          :
          :  # atomic orbitals                  40          :
          :  # shells                           26          :
          :  # electrons                        42          :
          :  max. iterations                   250          :
          :  Hamiltonian                  GFN2-xTB          :
          :  restarted?                      false          :
          :  GBSA solvation                  false          :
          :  PC potential                    false          :
          :  electronic temp.          300.0000000     K    :
          :  accuracy                    1.0000000          :
          :  -> integral cutoff          0.2500000E+02      :
          :  -> integral neglect         0.1000000E-07      :
          :  -> SCF convergence          0.1000000E-05 Eh   :
          :  -> wf. convergence          0.1000000E-03 e    :
          :  Broyden damping             0.4000000          :
          :  net charge                          0          :
          :  unpaired electrons                  0          :
          ...................................................

 iter      E             dE          RMSdq      gap      omega  full diag
   1    -22.9450715 -0.229451E+02  0.307E-05    9.90       0.0  T
   2    -22.9450715 -0.795808E-12  0.168E-05    9.90    1364.5  T
   3    -22.9450715 -0.852651E-13  0.296E-06    9.90    7761.9  T

   *** convergence criteria satisfied after 3 iterations ***

         #    Occupation            Energy/Eh            Energy/eV
      -------------------------------------------------------------
         1        2.0000           -0.6462391             -17.5851
       ...           ...                  ...                  ...
        15        2.0000           -0.4623663             -12.5816
        16        2.0000           -0.4564508             -12.4207
        17        2.0000           -0.4416630             -12.0183
        18        2.0000           -0.4368106             -11.8862
        19        2.0000           -0.4321956             -11.7606
        20        2.0000           -0.3625845              -9.8664
        21        2.0000           -0.3343918              -9.0993 (HOMO)
        22                          0.0294240               0.8007 (LUMO)
        23                          0.0592698               1.6128
        24                          0.0742283               2.0199
        25                          0.0987856               2.6881
        26                          0.1039607               2.8289
       ...                                ...                  ...
        40                          0.3049543               8.2982
      -------------------------------------------------------------
                  HL-Gap            0.3638158 Eh            9.8999 eV
             Fermi-level           -0.1524839 Eh           -4.1493 eV

 SCC (total)                   0 d,  0 h,  0 min,  0.005 sec
 SCC setup                      ...        0 min,  0.000 sec (  0.991%)
 Dispersion                     ...        0 min,  0.000 sec (  0.735%)
 classical contributions        ...        0 min,  0.000 sec (  0.339%)
 integral evaluation            ...        0 min,  0.001 sec ( 19.741%)
 iterations                     ...        0 min,  0.001 sec ( 21.904%)
 molecular gradient             ...        0 min,  0.003 sec ( 55.420%)
 printout                       ...        0 min,  0.000 sec (  0.710%)

         :::::::::::::::::::::::::::::::::::::::::::::::::::::
         ::                     SUMMARY                     ::
         :::::::::::::::::::::::::::::::::::::::::::::::::::::
         :: total energy             -22.666273376265 Eh    ::
         :: gradient norm              0.000047548485 Eh/a0 ::
         :: HOMO-LUMO gap              9.899931880787 eV    ::
         ::.................................................::
         :: SCC energy               -22.945025630244 Eh    ::
         :: -> isotropic ES            0.014151347014 Eh    ::
         :: -> anisotropic ES          0.006787070112 Eh    ::
         :: -> anisotropic XC          0.018771890243 Eh    ::
         :: -> dispersion             -0.013422018654 Eh    ::
         :: repulsion energy           0.278752253979 Eh    ::
         :: add. restraining           0.000000000000 Eh    ::
         :: total charge               0.000000000000 e     ::
         :::::::::::::::::::::::::::::::::::::::::::::::::::::

           ------------------------------------------------- 
          |                Numerical Hessian                |
           ------------------------------------------------- 
step length          :   0.00500
SCC accuracy         :   0.30000
Hessian scale factor :   1.00000
frozen atoms in %    :   0.00000    0
RMS gradient         :   0.00005
estimated CPU  time      0.01 min
estimated wall time      0.01 min

writing file <hessian>, containing the non-mass-weighted Hessian matrix in atomic units (Eₕ/Bohr²).

 projected vibrational frequencies (cm⁻¹)
eigval :       -0.00    -0.00    -0.00    -0.00    -0.00     0.00
eigval :      168.40   184.27   215.20   318.36   412.29   413.55
eigval :      462.55   464.88   594.98   816.55   842.41   847.44
eigval :      913.62   932.59  1026.43  1027.51  1047.57  1065.99
eigval :     1076.28  1112.38  1142.63  1163.80  1169.83  1179.78
eigval :     1256.33  1266.16  1299.95  1320.37  1321.85  1332.42
eigval :     1357.66  1392.79  1416.01  1456.12  1466.21  1478.44
eigval :     1482.97  1496.27  1501.32  2795.21  2803.55  2865.50
eigval :     2954.00  2957.35  2971.63  2972.33  2976.49  2978.55
eigval :     3005.10  3007.37  3350.88
           -------------------------------------------------
          |                Property Printout                |
           -------------------------------------------------

    * Orbital Energies and Occupations

         #    Occupation            Energy/Eh            Energy/eV
      -------------------------------------------------------------
         1        2.0000           -0.6462391             -17.5851
       ...           ...                  ...                  ...
         9        2.0000           -0.5168846             -14.0651
        10        2.0000           -0.5112199             -13.9110
        11        2.0000           -0.5093645             -13.8605
        12        2.0000           -0.5011663             -13.6374
        13        2.0000           -0.4922078             -13.3937
        14        2.0000           -0.4702094             -12.7950
        15        2.0000           -0.4623663             -12.5816
        16        2.0000           -0.4564508             -12.4207
        17        2.0000           -0.4416630             -12.0183
        18        2.0000           -0.4368106             -11.8862
        19        2.0000           -0.4321956             -11.7606
        20        2.0000           -0.3625845              -9.8664
        21        2.0000           -0.3343918              -9.0993 (HOMO)
        22                          0.0294240               0.8007 (LUMO)
        23                          0.0592699               1.6128
        24                          0.0742283               2.0199
        25                          0.0987856               2.6881
        26                          0.1039607               2.8289
        27                          0.1080879               2.9412
        28                          0.1139973               3.1020
        29                          0.1540657               4.1923
        30                          0.1577141               4.2916
        31                          0.1729956               4.7074
        32                          0.1762837               4.7969
       ...                                ...                  ...
        40                          0.3049543               8.2982
      -------------------------------------------------------------
                  HL-Gap            0.3638158 Eh            9.8999 eV
             Fermi-level           -0.1524839 Eh           -4.1493 eV

     #   Z          covCN         q      C6AA      α(0)
     1   6          3.701    -0.028    21.242     6.591
     2   7          2.725    -0.175    24.782     7.394
     3   6          3.769     0.001    20.592     6.467
     4   6          3.748     0.018    20.332     6.431
     5   7          2.683    -0.259    26.715     7.676
     6   6          3.748     0.018    20.332     6.431
     7   6          3.769     0.001    20.592     6.467
     8   1          0.925     0.037     2.489     2.467
     9   1          0.925     0.037     2.489     2.467
    10   1          0.923     0.012     2.853     2.642
    11   1          0.924     0.032     2.552     2.498
    12   1          0.924     0.046     2.368     2.406
    13   1          0.922     0.000     3.057     2.734
    14   1          0.924     0.026     2.638     2.540
    15   1          0.860     0.126     1.574     1.965
    16   1          0.922     0.000     3.057     2.734
    17   1          0.924     0.026     2.638     2.540
    18   1          0.924     0.032     2.552     2.498
    19   1          0.924     0.046     2.368     2.406

 Mol. C6AA /au·bohr⁶  :       2692.185650
 Mol. C8AA /au·bohr⁸  :      55648.210544
 Mol. α(0) /au        :         77.356356


Wiberg/Mayer (AO) data.
largest (>0.10) Wiberg bond orders for each atom

 ---------------------------------------------------------------------------
     #   Z sym  total        # sym  WBO       # sym  WBO       # sym  WBO
 ---------------------------------------------------------------------------
     1   6      3.988 --     2      1.018     9      0.982     8      0.982
                            10      0.972
     2   7      3.134 --     1      1.018     7      1.007     3      1.007
     3   6      3.988 --     2      1.007     4      0.990    11      0.973
                            12      0.971
     4   6      3.989 --     5      1.015     3      0.990    14      0.975
                            13      0.965
     5   7      3.063 --     4      1.015     6      1.015    15      0.960
     6   6      3.989 --     5      1.015     7      0.990    17      0.975
                            16      0.965
     7   6      3.988 --     2      1.007     6      0.990    18      0.973
                            19      0.971
     8   1      0.999 --     1      0.982
     9   1      0.999 --     1      0.982
    10   1      1.000 --     1      0.972
    11   1      0.999 --     3      0.973
    12   1      0.998 --     3      0.971
    13   1      1.000 --     4      0.965
    14   1      0.999 --     4      0.975
    15   1      0.984 --     5      0.960
    16   1      1.000 --     6      0.965
    17   1      0.999 --     6      0.975
    18   1      0.999 --     7      0.973
    19   1      0.998 --     7      0.971
 ---------------------------------------------------------------------------

Topologies differ in total number of bonds
Writing topology from bond orders to xtbtopo.mol

molecular dipole:
                 x           y           z       tot (Debye)
 q only:        0.032       0.000       0.058
   full:       -0.133       0.000       0.679       1.760
molecular quadrupole (traceless):
                xx          xy          yy          xz          yz          zz
 q only:       -0.248      -0.000       1.249      -0.003      -0.000      -1.001
  q+dip:       -1.419      -0.000       1.419      -0.522      -0.000      -0.000
   full:       -1.146      -0.000       1.935      -0.540      -0.000      -0.789

           -------------------------------------------------
          |                Geometry Summary                 |
           -------------------------------------------------

      molecular mass/u    :      100.1623749
   center of mass at/Å    :        0.0000043      -0.0000165      -0.0000187
  moments of inertia/u·Å² :        0.1274791E+03   0.1907611E+03   0.2495759E+03
rotational constants/cm⁻¹ :        0.1322384E+00   0.8837039E-01   0.6754512E-01

 * 19 selected distances

     #   Z          #   Z                                           value/Å
     1   6          2   7                                         1.4469319
     2   7          3   6                                         1.4512056
     3   6          4   6                                         1.5343122 (max)
     4   6          5   7                                         1.4526554
     5   7          6   6                                         1.4526554
     2   7          7   6                                         1.4512055
     6   6          7   6                                         1.5343121
     1   6          8   1                                         1.0898420
     1   6          9   1                                         1.0898419
     1   6         10   1                                         1.0992516
     3   6         11   1                                         1.0918129
     3   6         12   1                                         1.0937925
     4   6         13   1                                         1.1054802
     4   6         14   1                                         1.0921340
     5   7         15   1                                         1.0155854 (min)
     6   6         16   1                                         1.1054802
     6   6         17   1                                         1.0921340
     7   6         18   1                                         1.0918129
     7   6         19   1                                         1.0937925

 * 4 distinct bonds (by element types)

   Z      Z             #   av. dist./Å        max./Å        min./Å
   1 H    6 C          11     1.0950340     1.1054802     1.0898419
   6 C    6 C           2     1.5343122     1.5343122     1.5343121
   1 H    7 N           1     1.0155854     1.0155854     1.0155854
   6 C    7 N           5     1.4509307     1.4526554     1.4469319

           -------------------------------------------------
          |               Frequency Printout                |
           -------------------------------------------------
 projected vibrational frequencies (cm⁻¹)
eigval :       -0.00    -0.00    -0.00    -0.00    -0.00     0.00
eigval :      168.40   184.27   215.20   318.36   412.29   413.55
eigval :      462.55   464.88   594.98   816.55   842.41   847.44
eigval :      913.62   932.59  1026.43  1027.51  1047.57  1065.99
eigval :     1076.28  1112.38  1142.63  1163.80  1169.83  1179.78
eigval :     1256.33  1266.16  1299.95  1320.37  1321.85  1332.42
eigval :     1357.66  1392.79  1416.01  1456.12  1466.21  1478.44
eigval :     1482.97  1496.27  1501.32  2795.21  2803.55  2865.50
eigval :     2954.00  2957.35  2971.63  2972.33  2976.49  2978.55
eigval :     3005.10  3007.37  3350.88
 reduced masses (amu)
    1:      3.57    2:      4.59    3:      3.85    4:      4.28    5:      4.05    6:      3.92
    7:      2.74    8:      1.05    9:      1.95   10:      2.22   11:      2.06   12:      2.27
   13:      2.85   14:      2.90   15:      1.77   16:      2.43   17:      1.84   18:      1.47
   19:      2.53   20:      2.37   21:      2.42   22:      1.58   23:      1.78   24:      1.77
   25:      2.04   26:      1.48   27:      1.95   28:      1.90   29:      1.40   30:      1.40
   31:      1.27   32:      1.86   33:      1.33   34:      1.60   35:      1.33   36:      1.60
   37:      1.40   38:      1.33   39:      1.16   40:      1.09   41:      1.09   42:      1.08
   43:      1.09   44:      1.07   45:      1.06   46:      1.07   47:      1.07   48:      1.07
   49:      1.08   50:      1.07   51:      1.07   52:      1.07   53:      1.07   54:      1.07
   55:      1.09   56:      1.04   57:      1.07
 IR intensities (km·mol⁻¹)
    1:      0.48    2:      0.11    3:      0.19    4:      0.11    5:      0.34    6:      0.46
    7:      0.07    8:      0.00    9:      0.38   10:      7.94   11:      2.38   12:      0.92
   13:      1.08   14:     10.03   15:     27.45   16:     19.76   17:     51.36   18:      0.39
   19:     14.17   20:      0.22   21:     25.09   22:      2.14   23:      3.90   24:     11.07
   25:     17.92   26:      9.34   27:     29.01   28:      2.10   29:      0.28   30:      5.79
Molecule has the following symmetry elements: (sigma) 
It seems to be the Cs point group
   31:     20.31   32:      0.84   33:     25.27   34:      9.77   35:     13.88   36:     29.04
   37:      2.25   38:      1.74   39:      1.00   40:      0.74   41:      0.56   42:      2.18
   43:      1.05   44:      8.25   45:      2.00   46:     17.20   47:    157.20   48:    105.63
   49:      0.15   50:     90.76   51:      3.97   52:     49.32   53:      2.98   54:    155.71
   55:     57.58   56:     46.48   57:     26.09
 Raman intensities (Ä⁴*amu⁻¹)
    1:      0.00    2:      0.00    3:      0.00    4:      0.00    5:      0.00    6:      0.00
    7:      0.00    8:      0.00    9:      0.00   10:      0.00   11:      0.00   12:      0.00
   13:      0.00   14:      0.00   15:      0.00   16:      0.00   17:      0.00   18:      0.00
   19:      0.00   20:      0.00   21:      0.00   22:      0.00   23:      0.00   24:      0.00
   25:      0.00   26:      0.00   27:      0.00   28:      0.00   29:      0.00   30:      0.00
   31:      0.00   32:      0.00   33:      0.00   34:      0.00   35:      0.00   36:      0.00
   37:      0.00   38:      0.00   39:      0.00   40:      0.00   41:      0.00   42:      0.00
   43:      0.00   44:      0.00   45:      0.00   46:      0.00   47:      0.00   48:      0.00
   49:      0.00   50:      0.00   51:      0.00   52:      0.00   53:      0.00   54:      0.00
   55:      0.00   56:      0.00   57:      0.00
 output can be read by thermo (or use thermo option).
 writing <g98.out> molden fake output.
 recommended (thermochemical) frequency scaling factor: 1.0
           -------------------------------------------------
          |             Thermodynamic Functions             |
           -------------------------------------------------

cs  symmetry found (for desy threshold:  0.10E+00) used in thermo

          ...................................................
          :                      SETUP                      :
          :.................................................:
          :  # frequencies                          51      :
          :  # imaginary freq.                       0      :
          :  linear?                             false      :
          :  only rotor calc.                    false      :
          :  symmetry                               cs      :
          :  rotational number                       1      :
          :  scaling factor                  1.0000000      :
          :  rotor cutoff                    0.0000000 cm⁻¹ :
          :  imag. cutoff                 -100.0000000 cm⁻¹ :
          :.................................................:

    mode    ω/cm⁻¹     T·S(HO)/kcal·mol⁻¹    T·S(FR)/kcal·mol⁻¹   T·S(vib)
   ------------------------------------------------------------------------
       1    168.40    -0.73143 (100.00%)    -0.69666 (  0.00%)    -0.73143
       2    184.27    -0.68118 (100.00%)    -0.66999 (  0.00%)    -0.68118
       3    215.20    -0.59604 (100.00%)    -0.62405 (  0.00%)    -0.59604
   ------------------------------------------------------------------------

   temp. (K)  partition function   enthalpy   heat capacity  entropy
                                   cal/mol     cal/K/mol   cal/K/mol   J/K/mol
 298.15  VIB   12.4                 2558.504     21.043     13.590
         ROT  0.188E+06              888.727      2.981     27.116
         INT  0.234E+07             3447.232     24.024     40.706
         TR   0.307E+26             1481.212      4.968     39.723
         TOT                        4928.4440    28.9921    80.4286   336.5132

       T/K    H(0)-H(T)+PV         H(T)/Eh          T*S/Eh         G(T)/Eh
   ------------------------------------------------------------------------
    298.15    0.785398E-02    0.178904E+00    0.382142E-01    0.140689E+00
   ------------------------------------------------------------------------

         :::::::::::::::::::::::::::::::::::::::::::::::::::::
         ::                  THERMODYNAMIC                  ::
         :::::::::::::::::::::::::::::::::::::::::::::::::::::
         :: total free energy         -22.525583979598 Eh   ::
         ::.................................................::
         :: total energy              -22.666273376265 Eh   ::
         :: zero point energy           0.171049640930 Eh   ::
         :: G(RRHO) w/o ZPVE           -0.030360244262 Eh   ::
         :: G(RRHO) contrib.            0.140689396668 Eh   ::
         :::::::::::::::::::::::::::::::::::::::::::::::::::::

optimized geometry written to: xtbopt.coord


           -------------------------------------------------
          | TOTAL ENERGY              -22.666273376265 Eh   |
          | TOTAL ENTHALPY            -22.487369759939 Eh   |
          | TOTAL FREE ENERGY         -22.525583979598 Eh   |
          | GRADIENT NORM               0.000047545339 Eh/α |
          | HOMO-LUMO GAP               9.899932023778 eV   |
           -------------------------------------------------

------------------------------------------------------------------------
 * finished run on 2025/04/09 at 05:31:24.777     
------------------------------------------------------------------------
 total:
 * wall-time:     0 d,  0 h,  0 min,  0.655 sec
 *  cpu-time:     0 d,  0 h,  0 min,  0.650 sec
 * ratio c/w:     0.993 speedup
 SCF:
 * wall-time:     0 d,  0 h,  0 min,  0.007 sec
 *  cpu-time:     0 d,  0 h,  0 min,  0.007 sec
 * ratio c/w:     0.993 speedup
 ANC optimizer:
 * wall-time:     0 d,  0 h,  0 min,  0.054 sec
 *  cpu-time:     0 d,  0 h,  0 min,  0.054 sec
 * ratio c/w:     0.992 speedup
 analytical hessian:
 * wall-time:     0 d,  0 h,  0 min,  0.589 sec
 *  cpu-time:     0 d,  0 h,  0 min,  0.585 sec
 * ratio c/w:     0.993 speedup

