
                                 *****************
                                 * O   R   C   A *
                                 *****************

                                            #,                                       
                                            ###                                      
                                            ####                                     
                                            #####                                    
                                            ######                                   
                                           ########,                                 
                                     ,,################,,,,,                         
                               ,,#################################,,                 
                          ,,##########################################,,             
                       ,#########################################, ''#####,          
                    ,#############################################,,   '####,        
                  ,##################################################,,,,####,       
                ,###########''''           ''''###############################       
              ,#####''   ,,,,##########,,,,          '''####'''          '####       
            ,##' ,,,,###########################,,,                        '##       
           ' ,,###''''                  '''############,,,                           
         ,,##''                                '''############,,,,        ,,,,,,###''
      ,#''                                            '''#######################'''  
     '                                                          ''''####''''         
             ,#######,   #######,   ,#######,      ##                                
            ,#'     '#,  ##    ##  ,#'     '#,    #''#        ,####,   ,####,        
            ##       ##  ##   ,#'  ##            #'  '#       #'       #'  '#        
            ##       ##  #######   ##           ,######,      #####,   #    #        
            '#,     ,#'  ##    ##  '#,     ,#' ,#      #,     #,   #   #,  ,#        
             '#######'   ##     ##  '#######'  #'      '#     '####' # '####'        



                #########################################################
                #                        -***-                          #
                #          Department of theory and spectroscopy        #
                #                                                       #
                #                      Frank Neese                      #
                #                                                       #
                #     Directorship, Architecture, Infrastructure        #
                #                    SHARK, DRIVERS                     #
                #        Core code/Algorithms in most modules           #
                #                                                       #
                #        Max Planck Institute fuer Kohlenforschung      #
                #                Kaiser Wilhelm Platz 1                 #
                #                 D-45470 Muelheim/Ruhr                 #
                #                      Germany                          #
                #                                                       #
                #                  All rights reserved                  #
                #                        -***-                          #
                #########################################################


                         Program Version 6.0.1  -  RELEASE   -


 With contributions from (in alphabetic order):
[Max-Planck-Institut fuer Kohlenforschung]                               
  Daniel Aravena         : Magnetic Suceptibility                        
  Michael Atanasov       : Ab Initio Ligand Field Theory (pilot matlab implementation)
  Alexander A. Auer      : GIAO ZORA, VPT2 properties, NMR spectrum      
  Ute Becker             : All parallelization in ORCA, NUMFREQ, NUMCALC 
  Giovanni Bistoni       : ED, misc. LED, open-shell LED, HFLD           
  Martin Brehm           : Molecular dynamics                            
  Dmytro Bykov           : pre 5.0 version of the SCF Hessian            
  Marcos Casanova-Páez   : Triplet and SCS-CIS(D). UHF-(DLPNO)-IP/EA/STEOM-CCSD. UHF-CVS-IP/STEOM-CCSD   
  Vijay G. Chilkuri      : MRCI spin determinant printing, contributions to CSF-ICE 
  Pauline Colinet        : FMM embedding                                 
  Dipayan Datta          : RHF DLPNO-CCSD density                        
  Achintya Kumar Dutta   : EOM-CC, STEOM-CC                              
  Nicolas Foglia         : Exact transition moments, OPA infrastructure, MCD improvements    
  Dmitry Ganyushin       : Spin-Orbit,Spin-Spin,Magnetic field MRCI      
  Miquel Garcia-Rates    : C-PCM and meta-GGA Hessian, CCSD/C-PCM, Gaussian charge scheme 
  Tiago L. C. Gouveia    : GS-ROHF, GS-ROCIS                             
  Yang Guo               : DLPNO-NEVPT2, F12-NEVPT2, CIM, IAO-localization        
  Andreas Hansen         : Spin unrestricted coupled pair/coupled cluster methods 
  Ingolf Harden          : AUTO-CI MPn and infrastructure                
  Benjamin Helmich-Paris : MC-RPA, TRAH-(SCF,CASSCF), AVAS, COSX integrals, SCF dyn. polar. 
  Lee Huntington         : MR-EOM, pCC                                   
  Robert Izsak           : Overlap fitted RIJCOSX, COSX-SCS-MP3, EOM     
  Riya Kayal             : Wick's Theorem for AUTO-CI, AUTO-CI UHF-CCSDT 
  Emily Kempfer          : AUTO-CI, RHF CISDT and CCSDT                  
  Christian Kollmar      : KDIIS, OOCD, Brueckner-CCSD(T), CCSD density, CASPT2, CASPT2-K, improved NEVPT2 
  Axel Koslowski         : Symmetry handling                             
  Simone Kossmann        : meta-GGA functionals, TD-DFT gradient, OOMP2, (MP2 Hessian; deprecated post 5.0) 
  Lucas Lang             : DCDCAS                                        
  Marvin Lechner         : AUTO-CI (C++ implementation), FIC-MRCC        
  Spencer Leger          : CASSCF response                               
  Dagmar Lenk            : GEPOL surface, SMD, ORCA-2-JSON               
  Dimitrios Liakos       : Extrapolation schemes; Compound Job, initial MDCI parallelization 
  Dimitrios Manganas     : Further ROCIS development; embedding schemes. LFT, Crystal Embedding 
  Dimitrios Pantazis     : SARC Basis sets                               
  Anastasios Papadopoulos: AUTO-CI, single reference methods and gradients 
  Taras Petrenko         : pre 6.0 DFT Hessian and TD-DFT gradient, (ASA, deprecated), ECA, 1-Electron XAS/XES, NRVS 
  Peter Pinski           : DLPNO-MP2, DLPNO-MP2 Gradient                 
  Christoph Reimann      : Effective Core Potentials                     
  Marius Retegan         : Local ZFS, SOC                                
  Christoph Riplinger    : Optimizer, TS searches, QM/MM, DLPNO-CCSD(T), (RO)-DLPNO pert. Triples 
  Michael Roemelt        : Original ROCIS implementation                 
  Masaaki Saitow         : Open-shell DLPNO-CCSD energy and density      
  Barbara Sandhoefer     : DKH picture change effects                    
  Kantharuban Sivalingam : CASSCF convergence/infrastructure, NEVPT2 and variants, FIC-MRCI 
  Bernardo de Souza      : ESD, SOC TD-DFT                               
  Georgi L. Stoychev     : AutoAux, RI-MP2 NMR, DLPNO-MP2 response, X2C  
  Van Anh Tran           : RI-MP2 g-tensors                              
  Willem Van den Heuvel  : Paramagnetic NMR                              
  Zikuan Wang            : NOTCH, Electric field optimization            
  Frank Wennmohs         : Technical directorship and infrastructure     
  Hang Xu                : AUTO-CI-Response properties                   
                                                                         
[FACCTs GmbH]                                                            
  Markus Bursch, Miquel Garcia-Rates, Christoph Riplinger, Bernardo de Souza, Georgi L. Stoychev 
                                                                 
  APM, Basis sets (HGBS, AHGBS, def-TZVP (Ac-Lr), def2-XVPD (La-Lu)), CI-OPT, improved COSX, DLPNO-Multilevel,           
  DOCKER, DRACO, updates on ESD, GOAT, IRC, LR-CPCM, MBIS, meta-GGA TD-DFT gradient, ML-optimized integration grids, 
  MM, NACMEs, nearIR, NEB, NEB-TS, NL-DFT gradient (VV10), 2- and 3-layer-ONIOM, interface openCOSMO-RS, QMMM,   
  Crystal-QMMM, SF, symmetry and pop. for TD-DFT, r2SCAN hybrids, SOLVATOR                                   
                                                                         
[Other institutions]                                                     
  V. Asgeirsson          : NEB                                           
  Christoph Bannwarth    : sTDA-DFT, sTD-DFT, PBEh-3c, B97-3c, D3        
  Sebastian Ehlert       : rSCAN, r2SCAN, r2SCAN-3c, D4, dhf basis sets  
  Marvin Friede          : D4 for Fr, Ra, Ac-Lr                          
  Lars Goerigk           : TD-DFT with DH, B97 family of functionals     
  Stefan Grimme          : VdW corrections, initial TS optimization, DFT functionals, gCP, sTDA/sTD-DF 
  Waldemar Hujo          : DFT-NL                                        
  H. Jonsson             : NEB                                           
  Holger Kruse           : gCP                                           
  Marcel Mueller         : wB97X-3c, vDZP basis set                      
  Hagen Neugebauer       : wr2SCAN                                       
  Tobias Risthaus        : range-separated hybrid DFT                    
  Lukas Wittmann         : regularized MP2, r2SCAN double-hybrids, wr2SCAN        
                                                                         
We gratefully acknowledge several colleagues who have allowed us to      
interface, adapt or use parts of their codes:                            
  Ed Valeev, F. Pavosevic, A. Kumar             : LibInt (2-el integral package), F12 methods 
  Garnet Chan, S. Sharma, J. Yang, R. Olivares  : DMRG                   
  Ulf Ekstrom                                   : XCFun DFT Library      
  Mihaly Kallay                                 : mrcc  (arbitrary order and MRCC methods)
  Frank Weinhold                                : gennbo (NPA and NBO analysis)           
  Simon Mueller                                 : openCOSMO-RS                            
  Christopher J. Cramer and Donald G. Truhlar   : smd solvation model                     
  S Lehtola, MJT Oliveira, MAL Marques          : LibXC Library                           
  Liviu Ungur et al                             : ANISO software                          


 Your calculation uses the libint2 library for the computation of 2-el integrals
 For citations please refer to: http://libint.valeyev.net

 Your ORCA version has been built with support for libXC version: 6.2.2
 For citations please refer to: https://libxc.gitlab.io

 This ORCA versions uses:
   CBLAS   interface :  Fast vector & matrix operations
   LAPACKE interface :  Fast linear algebra routines
   SCALAPACK package :  Parallel linear algebra routines
   Shared memory     :  Shared parallel matrices
   BLAS/LAPACK       :  OpenBLAS 0.3.27  USE64BITINT DYNAMIC_ARCH NO_AFFINITY Zen SINGLE_THREADED
        Core in use  :  Zen
   Copyright (c) 2011-2014, The OpenBLAS Project


Your calculation utilizes the geometrical counterpoise correction gCP
Please cite in your paper:
H.Kruse, S. Grimme J.Chem.Phys., 136, (2012), 154101 
   

Your calculation utilizes the atom-pairwise dispersion correction
based on EEQ partial charges (D4)


================================================================================

----- Orbital basis set information -----
Your calculation utilizes the basis: def2-SV(P)
   F. Weigend and R. Ahlrichs, Phys. Chem. Chem. Phys. 7, 3297 (2005).

----- AuxJ basis set information -----
Your calculation utilizes the auxiliary basis: def2/J
   F. Weigend, Phys. Chem. Chem. Phys. 8, 1057 (2006).

================================================================================
                                        WARNINGS
                       Please study these warnings very carefully!
================================================================================

WARNING: Old DensityContainer found on disk!
         Will remove this file - 
         If you want to keep old densities, please start your calculation with a different basename. 


================================================================================
                                       INPUT FILE
================================================================================
NAME = sp.inp
|  1> ! pbe def2-sv(p) def2/J RI DEFGRID1 loosescf d4 GCP(DFT/SV(P)) printgap
|  2> %output
|  3>     printlevel normal
|  4> end
|  5> * xyz 0 1
|  6> C 0.5945134275 1.7004031545 0.003260012
|  7> C 1.3969663165 0.4229541147 -0.2664023532
|  8> H 1.5710247139 0.3293998453 -1.3479766202
|  9> C 0.5494383083 -0.7729970702 0.2004124343
| 10> H 0.3644614525 -0.6708954544 1.280217041
| 11> C -0.7920274046 -0.7456265075 -0.5372126005
| 12> H -0.6085437048 -0.8772086076 -1.6133431491
| 13> C -1.4703152266 0.6207067266 -0.2962161922
| 14> H -2.3582202376 0.7050953636 -0.9429188495
| 15> O -0.6448918752 1.6716526851 -0.6766679603
| 16> O -1.8334620472 0.7352476053 1.0498341853
| 17> O -1.6599104807 -1.7407296045 -0.053175905
| 18> O 1.1631459647 -2.0201124497 -0.0700613642
| 19> O 2.6201849265 0.4990661514 0.4331516407
| 20> H 1.1259323704 2.5715905705 -0.37934623
| 21> H 0.4444328757 1.810816593 1.0825753484
| 22> H -2.2412895895 -0.1053240063 1.2980830072
| 23> H -1.1734716952 -2.5745634394 -0.070751864
| 24> H 1.9456041959 -2.0999160141 0.4863705766
| 25> H 3.2445391549 -0.1221012966 0.0432673903
| 26> *
| 27> 
| 28>                          ****END OF INPUT****
================================================================================

                       ****************************
                       * Single Point Calculation *
                       ****************************

---------------------------------
CARTESIAN COORDINATES (ANGSTROEM)
---------------------------------
  C      0.594513    1.700403    0.003260
  C      1.396966    0.422954   -0.266402
  H      1.571025    0.329400   -1.347977
  C      0.549438   -0.772997    0.200412
  H      0.364461   -0.670895    1.280217
  C     -0.792027   -0.745627   -0.537213
  H     -0.608544   -0.877209   -1.613343
  C     -1.470315    0.620707   -0.296216
  H     -2.358220    0.705095   -0.942919
  O     -0.644892    1.671653   -0.676668
  O     -1.833462    0.735248    1.049834
  O     -1.659910   -1.740730   -0.053176
  O      1.163146   -2.020112   -0.070061
  O      2.620185    0.499066    0.433152
  H      1.125932    2.571591   -0.379346
  H      0.444433    1.810817    1.082575
  H     -2.241290   -0.105324    1.298083
  H     -1.173472   -2.574563   -0.070752
  H      1.945604   -2.099916    0.486371
  H      3.244539   -0.122101    0.043267

----------------------------
CARTESIAN COORDINATES (A.U.)
----------------------------
  NO LB      ZA    FRAG     MASS         X           Y           Z
   0 C     6.0000    0    12.011    1.123468    3.213296    0.006161
   1 C     6.0000    0    12.011    2.639884    0.799267   -0.503427
   2 H     1.0000    0     1.008    2.968806    0.622475   -2.547307
   3 C     6.0000    0    12.011    1.038288   -1.460753    0.378725
   4 H     1.0000    0     1.008    0.688732   -1.267809    2.419260
   5 C     6.0000    0    12.011   -1.496715   -1.409030   -1.015185
   6 H     1.0000    0     1.008   -1.149981   -1.657684   -3.048777
   7 C     6.0000    0    12.011   -2.778493    1.172966   -0.559767
   8 H     1.0000    0     1.008   -4.456390    1.332437   -1.781858
   9 O     8.0000    0    15.999   -1.218669    3.158966   -1.278717
  10 O     8.0000    0    15.999   -3.464741    1.389417    1.983899
  11 O     8.0000    0    15.999   -3.136776   -3.289502   -0.100488
  12 O     8.0000    0    15.999    2.198027   -3.817459   -0.132397
  13 O     8.0000    0    15.999    4.951432    0.943098    0.818538
  14 H     1.0000    0     1.008    2.127704    4.859602   -0.716860
  15 H     1.0000    0     1.008    0.839856    3.421947    2.045771
  16 H     1.0000    0     1.008   -4.235424   -0.199034    2.453021
  17 H     1.0000    0     1.008   -2.217540   -4.865220   -0.133702
  18 H     1.0000    0     1.008    3.676659   -3.968266    0.919107
  19 H     1.0000    0     1.008    6.131290   -0.230738    0.081764

--------------------------------
INTERNAL COORDINATES (ANGSTROEM)
--------------------------------
 C      0   0   0     0.000000000000     0.00000000     0.00000000
 C      1   0   0     1.532489634404     0.00000000     0.00000000
 H      2   1   0     1.099477886119   109.08209182     0.00000000
 C      2   1   3     1.538349442479   107.82820623   242.19450808
 H      4   2   1     1.100281402997   108.55919005   298.85439497
 C      4   2   1     1.531133599185   108.82032795    57.23483017
 H      6   4   2     1.099562219608   108.85333196    63.46771991
 C      6   4   2     1.544351043284   108.99208649   304.23105627
 H      8   6   4     1.101690100515   109.27749354   171.53913149
 O      8   6   4     1.389444012753   111.44106137    55.85477761
 O      8   6   4     1.398873419925   109.67093349   292.74173552
 O      6   4   2     1.406322413257   111.23673131   185.83406874
 O      4   2   1     1.416011981935   112.82739604   176.65992604
 O      2   1   3     1.411181278349   108.76541795   120.94925169
 H      1   2   3     1.089844549964   110.44055434   301.95643295
 H      1   2   3     1.095279368389   109.21904136   181.60171265
 H     11   8   6     0.966701306537   106.58419809   315.16789344
 H     12   6   4     0.965510471511   107.09195134   308.49335154
 H     13   4   2     0.963444859453   108.33807119    67.85061521
 H     14   2   1     0.963159867149   109.05298643   199.57536434

---------------------------
INTERNAL COORDINATES (A.U.)
---------------------------
 C      0   0   0     0.000000000000     0.00000000     0.00000000
 C      1   0   0     2.895985712097     0.00000000     0.00000000
 H      2   1   0     2.077712095068   109.08209182     0.00000000
 C      2   1   3     2.907059144556   107.82820623   242.19450808
 H      4   2   1     2.079230521911   108.55919005   298.85439497
 C      4   2   1     2.893423176904   108.82032795    57.23483017
 H      6   4   2     2.077871462266   108.85333196    63.46771991
 C      6   4   2     2.918400526443   108.99208649   304.23105627
 H      8   6   4     2.081892574425   109.27749354   171.53913149
 O      8   6   4     2.625668662519   111.44106137    55.85477761
 O      8   6   4     2.643487659680   109.67093349   292.74173552
 O      6   4   2     2.657564217052   111.23673131   185.83406874
 O      4   2   1     2.675874848209   112.82739604   176.65992604
 O      2   1   3     2.666746141396   108.76541795   120.94925169
 H      1   2   3     2.059507727979   110.44055434   301.95643295
 H      1   2   3     2.069778046389   109.21904136   181.60171265
 H     11   8   6     1.826800722659   106.58419809   315.16789344
 H     12   6   4     1.824550370589   107.09195134   308.49335154
 H     13   4   2     1.820646929500   108.33807119    67.85061521
 H     14   2   1     1.820108372095   109.05298643   199.57536434

---------------------
BASIS SET INFORMATION
---------------------
There are 3 groups of distinct atoms

 Group   1 Type C   : 7s4p1d contracted to 3s2p1d pattern {511/31/1}
 Group   2 Type H   : 4s contracted to 2s pattern {31}
 Group   3 Type O   : 7s4p1d contracted to 3s2p1d pattern {511/31/1}

Atom   0C    basis set group =>   1
Atom   1C    basis set group =>   1
Atom   2H    basis set group =>   2
Atom   3C    basis set group =>   1
Atom   4H    basis set group =>   2
Atom   5C    basis set group =>   1
Atom   6H    basis set group =>   2
Atom   7C    basis set group =>   1
Atom   8H    basis set group =>   2
Atom   9O    basis set group =>   3
Atom  10O    basis set group =>   3
Atom  11O    basis set group =>   3
Atom  12O    basis set group =>   3
Atom  13O    basis set group =>   3
Atom  14H    basis set group =>   2
Atom  15H    basis set group =>   2
Atom  16H    basis set group =>   2
Atom  17H    basis set group =>   2
Atom  18H    basis set group =>   2
Atom  19H    basis set group =>   2
---------------------------------
AUXILIARY/J BASIS SET INFORMATION
---------------------------------
There are 3 groups of distinct atoms

 Group   1 Type C   : 12s5p4d2f1g contracted to 6s4p3d1f1g pattern {711111/2111/211/2/1}
 Group   2 Type H   : 5s2p1d contracted to 3s1p1d pattern {311/2/1}
 Group   3 Type O   : 12s5p4d2f1g contracted to 6s4p3d1f1g pattern {711111/2111/211/2/1}

Atom   0C    basis set group =>   1
Atom   1C    basis set group =>   1
Atom   2H    basis set group =>   2
Atom   3C    basis set group =>   1
Atom   4H    basis set group =>   2
Atom   5C    basis set group =>   1
Atom   6H    basis set group =>   2
Atom   7C    basis set group =>   1
Atom   8H    basis set group =>   2
Atom   9O    basis set group =>   3
Atom  10O    basis set group =>   3
Atom  11O    basis set group =>   3
Atom  12O    basis set group =>   3
Atom  13O    basis set group =>   3
Atom  14H    basis set group =>   2
Atom  15H    basis set group =>   2
Atom  16H    basis set group =>   2
Atom  17H    basis set group =>   2
Atom  18H    basis set group =>   2
Atom  19H    basis set group =>   2

Checking for AutoStart:
The File: sp.gbw exists
Trying to determine its content:
     ... Fine, the file contains calculation information
     ... Fine, the calculation information was read
     ... Fine, the file contains a basis set
     ... Fine, the basis set was read
     ... Fine, the file contains a geometry
     ... Fine, the geometry was read
     ... Fine, the file contains a set of orbitals
     ... Fine, the orbitals can be read
     => possible old guess file was deleted
     => GBW file was renamed to GES file
     => GES file is set as startup file
     => Guess is set to MORead
     ... now leaving AutoStart

------------------------------------------------------------------------------
                             ORCA STARTUP CALCULATIONS
                           -- RI-GTO INTEGRALS CHOSEN --
------------------------------------------------------------------------------
------------------------------------------------------------------------------
                   ___                                                        
                  /   \      - P O W E R E D   B Y -                         
                 /     \                                                     
                 |  |  |   _    _      __       _____    __    __             
                 |  |  |  | |  | |    /  \     |  _  \  |  |  /  |          
                  \  \/   | |  | |   /    \    | | | |  |  | /  /          
                 / \  \   | |__| |  /  /\  \   | |_| |  |  |/  /          
                |  |  |   |  __  | /  /__\  \  |    /   |      \           
                |  |  |   | |  | | |   __   |  |    \   |  |\   \          
                \     /   | |  | | |  |  |  |  | |\  \  |  | \   \       
                 \___/    |_|  |_| |__|  |__|  |_| \__\ |__|  \__/        
                                                                              
                      - O R C A' S   B I G   F R I E N D -                    
                                      &                                       
                       - I N T E G R A L  F E E D E R -                       
                                                                              
 v1 FN, 2020, v2 2021, v3 2022-2024                                           
------------------------------------------------------------------------------


----------------------
SHARK INTEGRAL PACKAGE
----------------------

Number of atoms                             ...     20
Number of basis functions                   ...    160
Number of shells                            ...     80
Maximum angular momentum                    ...      2
Integral batch strategy                     ... SHARK/LIBINT Hybrid
RI-J (if used) integral strategy            ... SPLIT-RIJ (Revised 2003 algorithm where possible)
Printlevel                                  ...      1
Contraction scheme used                     ... SEGMENTED contraction
Prescreening option                         ... SCHWARTZ
   Thresh                                   ... 1.000e-09
   Tcut                                     ... 1.000e-10
   Tpresel                                  ... 1.000e-10 
Coulomb Range Separation                    ... NOT USED
Exchange Range Separation                   ... NOT USED
Multipole approximations                    ... NOT USED
Finite Nucleus Model                        ... NOT USED
CABS basis                                  ... NOT available
Auxiliary Coulomb fitting basis             ... AVAILABLE
   # of basis functions in Aux-J            ...    600
   # of shells in Aux-J                     ...    200
   Maximum angular momentum in Aux-J        ...      4
Auxiliary J/K fitting basis                 ... NOT available
Auxiliary Correlation fitting basis         ... NOT available
Auxiliary 'external' fitting basis          ... NOT available

Checking pre-screening integrals            ... done (  0.0 sec) Dimension = 80
Check shell pair data                       ... done (  0.0 sec)
Shell pair information
Shell pair cut-off parameter TPreSel        ...   1.0e-10
Total number of shell pairs                 ...      3240
Shell pairs after pre-screening             ...      3029
Total number of primitive shell pairs       ...     13040
Primitive shell pairs kept                  ...      8474
          la=0 lb=0:   1176 shell pairs
          la=1 lb=0:    954 shell pairs
          la=1 lb=1:    206 shell pairs
          la=2 lb=0:    450 shell pairs
          la=2 lb=1:    192 shell pairs
          la=2 lb=2:     51 shell pairs

Calculating one electron integrals          ... done (  0.0 sec)
Calculating RI/J V-Matrix + Cholesky decomp.... done (  0.0 sec)
Calculating Nuclear repulsion               ... done (  0.0 sec) ENN=    625.221028903758 Eh

Diagonalization of the overlap matrix:
Smallest eigenvalue                        ... 8.623e-04
Time for diagonalization                   ...    0.002 sec
Threshold for overlap eigenvalues          ... 1.000e-07
Number of eigenvalues below threshold      ... 0
Time for construction of square roots      ...    0.001 sec
Total time needed                          ...    0.004 sec

-------------------
DFT GRID GENERATION
-------------------

General Integration Accuracy     IntAcc      ... 4.159
Radial Grid Type                 RadialGrid  ... OptM3 with GC (2021)
Angular Grid (max. ang.)         AngularGrid ... 3 (Lebedev-194)
Angular grid pruning method      GridPruning ... 4 (adaptive)
Weight generation scheme         WeightScheme... mBecke (2022)
Basis function cutoff            BFCut       ... 1.0000e-10
Integration weight cutoff        WCut        ... 1.0000e-14
Partially contracted basis set               ... off
Rotationally invariant grid construction     ... off
Angular grids for H and He will be reduced by one unit

Total number of grid points                  ...    46564
Total number of batches                      ...      739
Average number of points per batch           ...       63
Average number of grid points per atom       ...     2328
Initializing property integral containers    ... done (  0.0 sec)

SHARK setup successfully completed in   0.4 seconds

Maximum memory used throughout the entire STARTUP-calculation: 23.8 MB
-------------------------------------------------------------------------------
                                 ORCA GUESS
                   Start orbitals & Density for SCF / CASSCF
-------------------------------------------------------------------------------

------------
SCF SETTINGS
------------
Hamiltonian:
 Density Functional     Method          .... DFT(GTOs)
 Exchange Functional    Exchange        .... PBE
   PBE kappa parameter   XKappa         ....  0.804000
   PBE mue parameter    XMuePBE         ....  0.219520
 Correlation Functional Correlation     .... PBE
   PBE beta parameter  CBetaPBE         ....  0.066725
 LDA part of GGA corr.  LDAOpt          .... PW91-LDA
 Gradients option       PostSCFGGA      .... off
   NL short-range parameter             ....  6.400000
 RI-approximation to the Coulomb term is turned on
   Number of AuxJ basis functions       .... 600


General Settings:
 Integral files         IntName         .... sp
 Hartree-Fock type      HFTyp           .... RHF
 Total Charge           Charge          ....    0
 Multiplicity           Mult            ....    1
 Number of Electrons    NEL             ....   80
 Basis Dimension        Dim             ....  160
 Nuclear Repulsion      ENuc            ....    625.2210289038 Eh

Convergence Acceleration:
 AO-DIIS                CNVDIIS         .... on
   Start iteration      DIISMaxIt       ....    12
   Startup error        DIISStart       ....  0.200000
   # of expansion vecs  DIISMaxEq       ....     5
   Bias factor          DIISBfac        ....   1.050
   Max. coefficient     DIISMaxC        ....  10.000
 MO-DIIS                CNVKDIIS        .... off
 Trust-Rad. Augm. Hess. CNVTRAH         .... auto
   Auto Start mean grad. ratio tolernc. ....  1.125000
   Auto Start start iteration           ....     1
   Auto Start num. interpolation iter.  ....    10
   Max. Number of Micro iterations      ....    24
   Max. Number of Macro iterations      .... Maxiter - #DIIS iter
   Number of Davidson start vectors     ....     2
   Converg. threshold    (grad. norm)   ....   1.000e-04
   Grad. Scal. Fac. for Micro threshold ....   0.100
   Minimum threshold for Micro iter.    ....   1.000e-02
   NR start threshold (gradient norm)   ....   1.000e-04
   Initial trust radius                 ....   0.400
   Minimum AH scaling param. (alpha)    ....   1.000
   Maximum AH scaling param. (alpha)    .... 1000.000
   Quad. conv. algorithm                .... NR
   White noise on init. David. guess    .... on
   Maximum white noise                  ....   0.010
   Pseudo random numbers                .... off
   Inactive MOs                         .... canonical
   Orbital update algorithm             .... Taylor
   Preconditioner                       .... Diag
   Full preconditioner red. dimension   ....   250
 SOSCF                  CNVSOSCF        .... on
   Start iteration      SOSCFMaxIt      ....   150
   Startup grad/error   SOSCFStart      ....  0.003300
   Hessian update       SOSCFHessUp     .... L-BFGS
 Level Shifting         CNVShift        .... on
   Level shift para.    LevelShift      ....    0.2500
   Turn off err/grad.   ShiftErr        ....    0.0010
 Zerner damping         CNVZerner       .... off
 Static damping         CNVDamp         .... on
   Fraction old density DampFac         ....    0.7000
   Max. Damping (<1)    DampMax         ....    0.9800
   Min. Damping (>=0)   DampMin         ....    0.0000
   Turn off err/grad.   DampErr         ....    0.1000

SCF Procedure:
 Maximum # iterations   MaxIter         ....   125
 SCF integral mode      SCFMode         .... Direct
   Integral package                     .... SHARK and LIBINT hybrid scheme
 Reset frequency        DirectResetFreq ....    20
 Integral Threshold     Thresh          ....  1.000e-09 Eh
 Primitive CutOff       TCut            ....  1.000e-10 Eh

Convergence Tolerance:
 Convergence Check Mode ConvCheckMode   .... Total+1el-Energy
 Convergence forced     ConvForced      .... 0
 Energy Change          TolE            ....  1.000e-05 Eh
 1-El. energy change                    ....  1.000e-02 Eh
 Orbital Gradient       TolG            ....  1.000e-04
 Orbital Rotation angle TolX            ....  1.000e-04
 DIIS Error             TolErr          ....  5.000e-04

---------------------
INITIAL GUESS: MOREAD
---------------------
Guess MOs are being read from file: sp.ges
Input Geometry matches current geometry (good)
Input basis set matches current basis set (good)
Occupation numbers will be reassigned to an Aufbau configuration
MOs were renormalized
MOs were reorthogonalized (Cholesky)
                      ------------------
                      INITIAL GUESS DONE (   0.0 sec)
                      ------------------
             **** ENERGY FILE WAS UPDATED (sp.en.tmp) ****
Finished Guess after   0.0 sec
Maximum memory used throughout the entire GUESS-calculation: 11.7 MB

-------------------------------------------------------------------------------------------
                                      ORCA LEAN-SCF
                              memory conserving SCF solver
-------------------------------------------------------------------------------------------

----------------------------------------D-I-I-S--------------------------------------------
Iteration    Energy (Eh)           Delta-E    RMSDP     MaxDP     DIISErr   Damp  Time(sec)
-------------------------------------------------------------------------------------------
               ***  Starting incremental Fock matrix formation  ***
                              *** Initializing SOSCF ***
---------------------------------------S-O-S-C-F--------------------------------------
Iteration    Energy (Eh)           Delta-E    RMSDP     MaxDP     MaxGrad    Time(sec)
--------------------------------------------------------------------------------------
    1    -571.5264594581792608     0.00e+00  1.74e-05  2.65e-04  2.50e-05     0.4
               *** Restarting incremental Fock matrix formation ***
    2    -571.5264595537064451    -9.55e-08  2.92e-05  5.65e-04  7.57e-05     0.4
    3    -571.5264587395508897     8.14e-07  1.99e-05  4.68e-04  1.53e-04     0.3
                 **** Energy Check signals convergence ****

               *****************************************************
               *                     SUCCESS                       *
               *           SCF CONVERGED AFTER   3 CYCLES          *
               *****************************************************

             **** ENERGY FILE WAS UPDATED (sp.en.tmp) ****

----------------
TOTAL SCF ENERGY
----------------

Total Energy       :       -571.52645873955089 Eh          -15552.02559 eV

Components:
Nuclear Repulsion  :        625.22102890375777 Eh           17013.12913 eV
Electronic Energy  :      -1196.74748764330889 Eh          -32565.15472 eV
One Electron Energy:      -2024.57974606550965 Eh          -55091.61569 eV
Two Electron Energy:        827.83225842220088 Eh           22526.46097 eV

Virial components:
Potential Energy   :      -1139.13009709797552 Eh          -30997.30581 eV
Kinetic Energy     :        567.60363835842475 Eh           15445.28022 eV
Virial Ratio       :          2.00691119668026

DFT components:
N(Alpha)           :       40.000680889431 electrons
N(Beta)            :       40.000680889431 electrons
N(Total)           :       80.001361778863 electrons
E(X)               :      -70.506035337982 Eh       
E(C)               :       -2.734474615322 Eh       
E(XC)              :      -73.240509953304 Eh       

---------------
SCF CONVERGENCE
---------------

  Last Energy change         ...   -8.1416e-07  Tolerance :   1.0000e-05
  Last MAX-Density change    ...    4.6834e-04  Tolerance :   1.0000e-03
  Last RMS-Density change    ...    1.9922e-05  Tolerance :   1.0000e-04
  Last DIIS Error            ...    2.1201e-04  Tolerance :   5.0000e-04
  Last Orbital Gradient      ...    1.5270e-04  Tolerance :   1.0000e-04
  Last Orbital Rotation      ...    7.4001e-05  Tolerance :   1.0000e-04


----------------
ORBITAL ENERGIES
----------------

  NO   OCC          E(Eh)            E(eV) 
   0   2.0000     -18.771930      -510.8102 
   1   2.0000     -18.766858      -510.6722 
   2   2.0000     -18.766720      -510.6684 
   3   2.0000     -18.764685      -510.6130 
   4   2.0000     -18.749867      -510.2098 
   5   2.0000      -9.983007      -271.6514 
   6   2.0000      -9.944220      -270.5960 
   7   2.0000      -9.942542      -270.5503 
   8   2.0000      -9.941893      -270.5327 
   9   2.0000      -9.930098      -270.2117 
  10   2.0000      -0.980610       -26.6838 
  11   2.0000      -0.954630       -25.9768 
  12   2.0000      -0.942206       -25.6387 
  13   2.0000      -0.927335       -25.2341 
  14   2.0000      -0.907205       -24.6863 
  15   2.0000      -0.707025       -19.2391 
  16   2.0000      -0.678601       -18.4657 
  17   2.0000      -0.583104       -15.8671 
  18   2.0000      -0.579425       -15.7670 
  19   2.0000      -0.522157       -14.2086 
  20   2.0000      -0.498304       -13.5595 
  21   2.0000      -0.491895       -13.3852 
  22   2.0000      -0.469787       -12.7836 
  23   2.0000      -0.460955       -12.5432 
  24   2.0000      -0.430217       -11.7068 
  25   2.0000      -0.423405       -11.5214 
  26   2.0000      -0.414162       -11.2699 
  27   2.0000      -0.379170       -10.3177 
  28   2.0000      -0.370162       -10.0726 
  29   2.0000      -0.353052        -9.6070 
  30   2.0000      -0.323074        -8.7913 
  31   2.0000      -0.317126        -8.6294 
  32   2.0000      -0.303780        -8.2663 
  33   2.0000      -0.291542        -7.9333 
  34   2.0000      -0.277301        -7.5457 
  35   2.0000      -0.262483        -7.1425 
  36   2.0000      -0.240593        -6.5469 
  37   2.0000      -0.231692        -6.3047 
  38   2.0000      -0.221175        -6.0185 
  39   2.0000      -0.209912        -5.7120 
  40   0.0000      -0.007788        -0.2119 
  41   0.0000       0.034564         0.9405 
  42   0.0000       0.041625         1.1327 
  43   0.0000       0.058830         1.6009 
  44   0.0000       0.071389         1.9426 
  45   0.0000       0.088097         2.3972 
  46   0.0000       0.103289         2.8106 
  47   0.0000       0.105989         2.8841 
  48   0.0000       0.111860         3.0439 
  49   0.0000       0.125828         3.4240 
  50   0.0000       0.133285         3.6269 
*Only the first 10 virtual orbitals were printed.

                    ********************************
                    * MULLIKEN POPULATION ANALYSIS *
                    ********************************

-----------------------
MULLIKEN ATOMIC CHARGES
-----------------------
   0 C :    0.097968
   1 C :   -0.022028
   2 H :    0.063015
   3 C :    0.036731
   4 H :    0.054771
   5 C :    0.021222
   6 H :    0.067587
   7 C :    0.189832
   8 H :    0.070705
   9 O :   -0.300048
  10 O :   -0.411533
  11 O :   -0.425141
  12 O :   -0.424924
  13 O :   -0.411717
  14 H :    0.097331
  15 H :    0.085256
  16 H :    0.306723
  17 H :    0.312823
  18 H :    0.294550
  19 H :    0.296878
Sum of atomic charges:   -0.0000000

--------------------------------
MULLIKEN REDUCED ORBITAL CHARGES
--------------------------------
  0 C s       :     2.998906  s :     2.998906
      pz      :     1.007077  p :     2.842225
      px      :     0.787278
      py      :     1.047870
      dz2     :     0.015599  d :     0.060901
      dxz     :     0.013479
      dyz     :     0.005134
      dx2y2   :     0.012115
      dxy     :     0.014574

  1 C s       :     3.055357  s :     3.055357
      pz      :     0.983217  p :     2.899184
      px      :     0.853949
      py      :     1.062019
      dz2     :     0.016981  d :     0.067486
      dxz     :     0.014841
      dyz     :     0.005949
      dx2y2   :     0.013353
      dxy     :     0.016364

  2 H s       :     0.936985  s :     0.936985

  3 C s       :     3.050534  s :     3.050534
      pz      :     1.042950  p :     2.846255
      px      :     0.982036
      py      :     0.821269
      dz2     :     0.015347  d :     0.066480
      dxz     :     0.008219
      dyz     :     0.010704
      dx2y2   :     0.016228
      dxy     :     0.015981

  4 H s       :     0.945229  s :     0.945229

  5 C s       :     3.054892  s :     3.054892
      pz      :     1.029681  p :     2.857520
      px      :     0.907723
      py      :     0.920116
      dz2     :     0.016532  d :     0.066366
      dxz     :     0.011401
      dyz     :     0.009103
      dx2y2   :     0.013118
      dxy     :     0.016211

  6 H s       :     0.932413  s :     0.932413

  7 C s       :     3.035444  s :     3.035444
      pz      :     0.824389  p :     2.672297
      px      :     0.984300
      py      :     0.863608
      dz2     :     0.025153  d :     0.102428
      dxz     :     0.026388
      dyz     :     0.017403
      dx2y2   :     0.016804
      dxy     :     0.016679

  8 H s       :     0.929295  s :     0.929295

  9 O s       :     3.753054  s :     3.753054
      pz      :     1.674001  p :     4.530703
      px      :     1.297991
      py      :     1.558711
      dz2     :     0.002321  d :     0.016291
      dxz     :     0.003856
      dyz     :     0.002682
      dx2y2   :     0.003787
      dxy     :     0.003645

 10 O s       :     3.776620  s :     3.776620
      pz      :     1.357276  p :     4.619488
      px      :     1.760194
      py      :     1.502018
      dz2     :     0.005025  d :     0.015426
      dxz     :     0.001805
      dyz     :     0.002627
      dx2y2   :     0.002663
      dxy     :     0.003305

 11 O s       :     3.780109  s :     3.780109
      pz      :     1.819325  p :     4.629690
      px      :     1.581506
      py      :     1.228859
      dz2     :     0.002783  d :     0.015342
      dxz     :     0.002214
      dyz     :     0.001002
      dx2y2   :     0.002377
      dxy     :     0.006966

 12 O s       :     3.786852  s :     3.786852
      pz      :     1.705602  p :     4.622843
      px      :     1.422682
      py      :     1.494559
      dz2     :     0.001382  d :     0.015229
      dxz     :     0.005270
      dyz     :     0.002450
      dx2y2   :     0.004551
      dxy     :     0.001577

 13 O s       :     3.790341  s :     3.790341
      pz      :     1.679339  p :     4.605878
      px      :     1.273699
      py      :     1.652840
      dz2     :     0.001967  d :     0.015498
      dxz     :     0.004533
      dyz     :     0.003143
      dx2y2   :     0.001394
      dxy     :     0.004461

 14 H s       :     0.902669  s :     0.902669

 15 H s       :     0.914744  s :     0.914744

 16 H s       :     0.693277  s :     0.693277

 17 H s       :     0.687177  s :     0.687177

 18 H s       :     0.705450  s :     0.705450

 19 H s       :     0.703122  s :     0.703122


------------------------
MULLIKEN OVERLAP CHARGES
------------------------
B(  0-C ,  1-C ) :   0.2577 B(  0-C ,  3-C ) :  -0.1192 B(  0-C ,  7-C ) :  -0.1997 
B(  0-C ,  9-O ) :   0.6028 B(  0-C , 13-O ) :  -0.0980 B(  0-C , 14-H ) :   0.6568 
B(  0-C , 15-H ) :   0.6521 B(  1-C ,  2-H ) :   0.6643 B(  1-C ,  3-C ) :   0.4788 
B(  1-C ,  4-H ) :  -0.1049 B(  1-C ,  5-C ) :  -0.1094 B(  1-C ,  7-C ) :   0.0825 
B(  1-C ,  9-O ) :  -0.0643 B(  1-C , 12-O ) :  -0.1052 B(  1-C , 13-O ) :   0.5847 
B(  1-C , 19-H ) :  -0.0682 B(  2-H ,  3-C ) :  -0.1350 B(  2-H , 13-O ) :  -0.0604 
B(  3-C ,  4-H ) :   0.6056 B(  3-C ,  5-C ) :   0.0704 B(  3-C ,  6-H ) :  -0.0806 
B(  3-C ,  7-C ) :   0.0742 B(  3-C , 11-O ) :  -0.0535 B(  3-C , 12-O ) :   0.6410 
B(  3-C , 13-O ) :  -0.1075 B(  3-C , 15-H ) :  -0.0526 B(  3-C , 18-H ) :  -0.0980 
B(  4-H , 12-O ) :  -0.0711 B(  5-C ,  6-H ) :   0.6474 B(  5-C ,  7-C ) :   0.2080 
B(  5-C ,  8-H ) :  -0.0805 B(  5-C ,  9-O ) :  -0.0525 B(  5-C , 11-O ) :   0.5366 
B(  5-C , 12-O ) :  -0.1275 B(  5-C , 17-H ) :  -0.1234 B(  6-H ,  7-C ) :  -0.0660 
B(  6-H , 11-O ) :  -0.0710 B(  7-C ,  8-H ) :   0.6722 B(  7-C ,  9-O ) :   0.6645 
B(  7-C , 10-O ) :   0.5300 B(  7-C , 11-O ) :  -0.0919 B(  7-C , 16-H ) :  -0.1038 
B(  8-H ,  9-O ) :  -0.0696 B(  8-H , 10-O ) :  -0.0665 B(  9-O , 10-O ) :  -0.1051 
B(  9-O , 15-H ) :  -0.0614 B( 10-O , 16-H ) :   0.5274 B( 11-O , 16-H ) :   0.0680 
B( 11-O , 17-H ) :   0.5437 B( 12-O , 18-H ) :   0.5164 B( 13-O , 19-H ) :   0.5079 
B( 14-H , 15-H ) :  -0.0742 


                     *******************************
                     * LOEWDIN POPULATION ANALYSIS *
                     *******************************

----------------------
LOEWDIN ATOMIC CHARGES
----------------------
   0 C :   -0.113205
   1 C :   -0.087018
   2 H :    0.104051
   3 C :   -0.089812
   4 H :    0.105628
   5 C :   -0.092079
   6 H :    0.108505
   7 C :    0.011748
   8 H :    0.099445
   9 O :   -0.129708
  10 O :   -0.320995
  11 O :   -0.321938
  12 O :   -0.329566
  13 O :   -0.321506
  14 H :    0.119846
  15 H :    0.114147
  16 H :    0.286321
  17 H :    0.290307
  18 H :    0.281679
  19 H :    0.284147

-------------------------------
LOEWDIN REDUCED ORBITAL CHARGES
-------------------------------
  0 C s       :     2.922461  s :     2.922461
      pz      :     1.080342  p :     3.052340
      px      :     0.890664
      py      :     1.081334
      dz2     :     0.037237  d :     0.138404
      dxz     :     0.029284
      dyz     :     0.009935
      dx2y2   :     0.026484
      dxy     :     0.035465

  1 C s       :     2.898020  s :     2.898020
      pz      :     1.042979  p :     3.030249
      px      :     0.906254
      py      :     1.081016
      dz2     :     0.040377  d :     0.158748
      dxz     :     0.033702
      dyz     :     0.011642
      dx2y2   :     0.029241
      dxy     :     0.043786

  2 H s       :     0.895949  s :     0.895949

  3 C s       :     2.899404  s :     2.899404
      pz      :     1.098905  p :     3.033087
      px      :     1.025472
      py      :     0.908710
      dz2     :     0.035624  d :     0.157322
      dxz     :     0.020163
      dyz     :     0.023346
      dx2y2   :     0.039176
      dxy     :     0.039013

  4 H s       :     0.894372  s :     0.894372

  5 C s       :     2.901043  s :     2.901043
      pz      :     1.072231  p :     3.034064
      px      :     0.991299
      py      :     0.970534
      dz2     :     0.039061  d :     0.156972
      dxz     :     0.027731
      dyz     :     0.020267
      dx2y2   :     0.031397
      dxy     :     0.038516

  6 H s       :     0.891495  s :     0.891495

  7 C s       :     2.882566  s :     2.882566
      pz      :     0.910914  p :     2.877760
      px      :     1.009326
      py      :     0.957520
      dz2     :     0.059995  d :     0.227926
      dxz     :     0.058012
      dyz     :     0.033483
      dx2y2   :     0.036366
      dxy     :     0.040070

  8 H s       :     0.900555  s :     0.900555

  9 O s       :     3.462243  s :     3.462243
      pz      :     1.698721  p :     4.636400
      px      :     1.351891
      py      :     1.585788
      dz2     :     0.003810  d :     0.031065
      dxz     :     0.007541
      dyz     :     0.003766
      dx2y2   :     0.007931
      dxy     :     0.008017

 10 O s       :     3.535961  s :     3.535961
      pz      :     1.435369  p :     4.757999
      px      :     1.766796
      py      :     1.555834
      dz2     :     0.010041  d :     0.027035
      dxz     :     0.003522
      dyz     :     0.004406
      dx2y2   :     0.003923
      dxy     :     0.005143

 11 O s       :     3.529557  s :     3.529557
      pz      :     1.839210  p :     4.765412
      px      :     1.631350
      py      :     1.294852
      dz2     :     0.004366  d :     0.026969
      dxz     :     0.003063
      dyz     :     0.002267
      dx2y2   :     0.004485
      dxy     :     0.012788

 12 O s       :     3.538568  s :     3.538568
      pz      :     1.746008  p :     4.764304
      px      :     1.474938
      py      :     1.543359
      dz2     :     0.002161  d :     0.026693
      dxz     :     0.008758
      dyz     :     0.003637
      dx2y2   :     0.008467
      dxy     :     0.003670

 13 O s       :     3.540130  s :     3.540130
      pz      :     1.732007  p :     4.754304
      px      :     1.337796
      py      :     1.684501
      dz2     :     0.002826  d :     0.027072
      dxz     :     0.008497
      dyz     :     0.004315
      dx2y2   :     0.003310
      dxy     :     0.008123

 14 H s       :     0.880154  s :     0.880154

 15 H s       :     0.885853  s :     0.885853

 16 H s       :     0.713679  s :     0.713679

 17 H s       :     0.709693  s :     0.709693

 18 H s       :     0.718321  s :     0.718321

 19 H s       :     0.715853  s :     0.715853


---------------------------------
LOEWDIN BOND ORDERS (THRESH 0.050000)
---------------------------------
B(  0-C ,  1-C ) :   1.0502 B(  0-C ,  3-C ) :   0.0603 B(  0-C ,  7-C ) :   0.0666 
B(  0-C ,  9-O ) :   1.1560 B(  0-C , 13-O ) :   0.0645 B(  0-C , 14-H ) :   0.9116 
B(  0-C , 15-H ) :   0.9011 B(  1-C ,  2-H ) :   0.8734 B(  1-C ,  3-C ) :   1.0226 
B(  1-C ,  5-C ) :   0.0611 B(  1-C ,  9-O ) :   0.0688 B(  1-C , 12-O ) :   0.0766 
B(  1-C , 13-O ) :   1.2098 B(  3-C ,  4-H ) :   0.8647 B(  3-C ,  5-C ) :   1.0238 
B(  3-C ,  7-C ) :   0.0550 B(  3-C , 11-O ) :   0.0768 B(  3-C , 12-O ) :   1.2008 
B(  3-C , 13-O ) :   0.0804 B(  5-C ,  6-H ) :   0.8674 B(  5-C ,  7-C ) :   1.0109 
B(  5-C ,  9-O ) :   0.0692 B(  5-C , 10-O ) :   0.0774 B(  5-C , 11-O ) :   1.2139 
B(  5-C , 12-O ) :   0.0602 B(  7-C ,  8-H ) :   0.8817 B(  7-C ,  9-O ) :   1.2290 
B(  7-C , 10-O ) :   1.2447 B(  7-C , 11-O ) :   0.0601 B(  9-O , 10-O ) :   0.0722 
B( 10-O , 16-H ) :   0.8575 B( 11-O , 17-H ) :   0.8701 B( 12-O , 18-H ) :   0.8800 
B( 13-O , 19-H ) :   0.8835 

------------------------------------------
LOEWDIN REDUCED ORBITAL POPULATIONS PER MO
-------------------------------------------
THRESHOLD FOR PRINTING IS 0.1%%
                      0         1         2         3         4         5   
                 -18.77193 -18.76686 -18.76672 -18.76468 -18.74987  -9.98301
                   2.00000   2.00000   2.00000   2.00000   2.00000   2.00000
                  --------  --------  --------  --------  --------  --------
 7 C  s               0.0       0.0       0.0       0.0       0.0      99.6
 9 O  s               0.0       0.4      99.5       0.0       0.0       0.0
10 O  s               0.0       0.0       0.0       0.0      99.9       0.0
10 O  pz              0.0       0.0       0.0       0.0       0.0       0.1
11 O  s               0.0       0.0       0.0      99.9       0.0       0.0
12 O  s              99.9       0.0       0.0       0.0       0.0       0.0
13 O  s               0.0      99.5       0.4       0.0       0.0       0.0

                      6         7         8         9        10        11   
                  -9.94422  -9.94254  -9.94189  -9.93010  -0.98061  -0.95463
                   2.00000   2.00000   2.00000   2.00000   2.00000   2.00000
                  --------  --------  --------  --------  --------  --------
 0 C  s               0.0       0.0       0.0      99.6       4.5       0.2
 0 C  pz              0.0       0.0       0.0       0.0       0.7       0.1
 0 C  px              0.0       0.0       0.0       0.0       3.0       1.4
 0 C  py              0.1       0.0       0.0       0.0       0.2       0.2
 0 C  dxz             0.0       0.0       0.0       0.0       0.2       0.0
 0 C  dx2y2           0.0       0.0       0.0       0.0       0.2       0.0
 1 C  s              99.6       0.0       0.0       0.0       1.4       3.3
 1 C  pz              0.0       0.0       0.0       0.0       0.1       0.7
 1 C  px              0.0       0.0       0.0       0.0       0.2       1.3
 1 C  py              0.0       0.0       0.1       0.1       0.0       0.9
 2 H  s               0.1       0.0       0.0       0.0       0.2       0.4
 3 C  s               0.0       0.0      99.5       0.0       1.6       7.3
 3 C  pz              0.0       0.0       0.0       0.0       0.2       0.2
 3 C  px              0.0       0.1       0.0       0.0       0.1       1.3
 3 C  py              0.1       0.0       0.0       0.0       0.0       3.0
 3 C  dz2             0.0       0.0       0.0       0.0       0.0       0.1
 3 C  dxy             0.0       0.0       0.0       0.0       0.0       0.2
 4 H  s               0.0       0.0       0.1       0.0       0.3       0.9
 5 C  s               0.0      99.5       0.0       0.0       4.0       1.6
 5 C  pz              0.0       0.0       0.0       0.0       0.5       0.3
 5 C  px              0.0       0.0       0.1       0.0       0.3       0.2
 5 C  py              0.0       0.0       0.0       0.0       0.4       1.9
 6 H  s               0.0       0.1       0.0       0.0       0.5       0.2
 7 C  s               0.0       0.0       0.0       0.0      14.7       1.3
 7 C  pz              0.0       0.0       0.0       0.0       0.9       0.1
 7 C  px              0.0       0.0       0.0       0.0       1.2       0.1
 7 C  py              0.0       0.1       0.0       0.0       1.2       1.2
 7 C  dxz             0.0       0.0       0.0       0.0       0.1       0.0
 7 C  dxy             0.0       0.0       0.0       0.0       0.2       0.1
 8 H  s               0.0       0.0       0.0       0.0       1.7       0.1
 9 O  s               0.0       0.0       0.0       0.0      27.1       5.0
 9 O  pz              0.0       0.0       0.0       0.0       1.0       0.2
 9 O  py              0.0       0.0       0.0       0.0       1.4       0.2
10 O  s               0.0       0.0       0.0       0.0      15.4       2.1
10 O  pz              0.0       0.0       0.0       0.0       1.3       0.1
10 O  py              0.0       0.0       0.0       0.0       0.3       0.0
11 O  s               0.0       0.0       0.0       0.0       4.7       5.7
11 O  px              0.0       0.0       0.0       0.0       0.3       0.4
12 O  s               0.0       0.0       0.0       0.0       1.9      30.5
12 O  pz              0.0       0.0       0.0       0.0       0.0       0.7
12 O  px              0.0       0.0       0.0       0.0       0.0       0.1
12 O  py              0.0       0.0       0.1       0.0       0.1       1.0
13 O  s               0.0       0.0       0.0       0.0       1.1      12.6
13 O  pz              0.0       0.0       0.0       0.0       0.0       0.5
13 O  py              0.0       0.0       0.0       0.0       0.0       0.3
14 H  s               0.0       0.0       0.0       0.1       0.5       0.0
15 H  s               0.0       0.0       0.0       0.1       0.7       0.0
16 H  s               0.0       0.0       0.0       0.0       3.2       0.3
17 H  s               0.0       0.0       0.0       0.0       1.0       1.5
18 H  s               0.0       0.0       0.0       0.0       0.4       6.5
19 H  s               0.0       0.0       0.0       0.0       0.2       2.8

                     12        13        14        15        16        17   
                  -0.94221  -0.92733  -0.90721  -0.70703  -0.67860  -0.58310
                   2.00000   2.00000   2.00000   2.00000   2.00000   2.00000
                  --------  --------  --------  --------  --------  --------
 0 C  s               1.6       0.1       2.7       4.0      15.5       2.9
 0 C  pz              0.1       0.1       0.7       0.0       0.1       0.3
 0 C  px              0.1       0.8       1.6       1.7       0.3       4.0
 0 C  py              0.3       0.1       0.0       2.4       0.0       0.3
 0 C  dxz             0.0       0.0       0.1       0.0       0.0       0.1
 0 C  dx2y2           0.0       0.0       0.1       0.1       0.0       0.1
 1 C  s               4.9       1.5       0.1      13.1       3.2       2.4
 1 C  pz              0.9       0.4       0.0       0.0       0.0       0.0
 1 C  px              2.8       3.2       0.5       5.3       0.4       0.2
 1 C  py              0.1       0.2       0.2       0.1       3.4       5.7
 1 C  dxz             0.2       0.2       0.0       0.1       0.0       0.0
 1 C  dx2y2           0.2       0.2       0.0       0.1       0.0       0.0
 2 H  s               0.6       0.1       0.0       2.6       0.6       0.6
 3 C  s               0.0       1.8       0.0      15.1       1.0       9.3
 3 C  pz              0.0       0.0       0.0       0.7       0.2       0.1
 3 C  px              1.5       1.1       0.1       0.7       2.3       0.5
 3 C  py              0.9       3.7       0.1       4.8       0.1       1.0
 3 C  dx2y2           0.0       0.1       0.0       0.0       0.1       0.0
 3 C  dxy             0.0       0.3       0.0       0.1       0.0       0.0
 4 H  s               0.0       0.1       0.0       2.9       0.1       2.7
 5 C  s               4.2       1.4       0.4       7.1       9.9       0.5
 5 C  pz              0.6       0.2       0.0       0.2       0.1       0.9
 5 C  px              1.6       2.1       0.0       3.7       0.0       8.4
 5 C  py              3.0       1.2       0.7       0.8       3.0       2.4
 5 C  dxz             0.1       0.1       0.0       0.1       0.0       0.1
 5 C  dxy             0.2       0.2       0.1       0.0       0.1       0.0
 6 H  s               0.4       0.1       0.1       1.5       2.2       0.2
 7 C  s               0.0       0.0       0.7       0.0      11.2       6.4
 7 C  pz              0.2       0.1       9.3       0.0       2.6       0.7
 7 C  px              0.3       0.2       3.8       0.5       0.4       0.8
 7 C  py              1.7       0.9       0.9       3.6       0.9       1.9
 7 C  dz2             0.0       0.0       1.0       0.0       0.1       0.0
 7 C  dxy             0.1       0.0       0.2       0.2       0.0       0.1
 8 H  s               0.0       0.0       0.1       0.0       2.9       3.1
 9 O  s               3.5       2.3      15.8       3.5       0.0       2.7
 9 O  pz              0.1       0.1       0.2       0.0       0.4       0.1
 9 O  px              0.1       0.0       0.5       1.1      10.1       0.4
 9 O  py              0.1       0.0       0.2       0.0       3.4       1.0
10 O  s               0.6       0.2      41.0       0.1       2.6       1.2
10 O  pz              0.0       0.0       0.5       0.0       2.0       3.1
10 O  px              0.0       0.0       0.1       0.0       0.4       0.3
10 O  py              0.1       0.0       1.7       0.1       0.3       0.2
11 O  s              27.0      16.3       5.1       2.0       2.0       0.0
11 O  pz              0.1       0.1       0.0       0.0       0.2       0.3
11 O  px              1.4       0.7       0.2       0.2       0.1       0.4
11 O  py              0.0       0.0       0.0       1.4       3.0       2.4
12 O  s               0.3      26.5       0.5       2.9       0.2       1.2
12 O  pz              0.0       0.6       0.0       0.2       0.0       0.4
12 O  px              0.0       0.2       0.0       1.9       0.4       9.1
12 O  py              0.0       0.5       0.0       1.8       0.2       5.5
13 O  s              26.5      18.6       0.3       2.8       0.7       0.2
13 O  pz              0.9       0.6       0.0       0.1       0.0       0.1
13 O  px              0.1       0.0       0.0       3.2       1.4       3.8
13 O  py              0.5       0.4       0.0       0.3       0.4       1.4
14 H  s               0.2       0.0       0.3       0.6       3.9       1.1
15 H  s               0.2       0.0       0.2       0.8       2.9       0.9
16 H  s               0.4       0.2       8.3       0.0       1.4       1.0
17 H  s               5.4       2.9       1.1       0.9       1.5       0.7
18 H  s               0.0       5.4       0.1       2.0       0.2       4.6
19 H  s               5.5       3.7       0.1       1.9       0.7       1.5

                     18        19        20        21        22        23   
                  -0.57942  -0.52216  -0.49830  -0.49190  -0.46979  -0.46095
                   2.00000   2.00000   2.00000   2.00000   2.00000   2.00000
                  --------  --------  --------  --------  --------  --------
 0 C  s               4.7       4.0       1.2       0.1       0.2       2.1
 0 C  pz              0.1       6.6       0.1       0.4       3.3       0.1
 0 C  px              1.0       0.1       1.8       0.4       1.1       2.0
 0 C  py              3.6       0.9       1.8       1.2       0.6       1.1
 0 C  dx2y2           0.0       0.0       0.0       0.0       0.0       0.1
 1 C  s               7.0       3.2       0.0       0.3       1.1       0.2
 1 C  pz              0.0       6.5       3.8       8.4       4.9       0.1
 1 C  px              0.1       0.5       1.1       5.5       0.3       2.4
 1 C  py              1.8       1.0       1.9       0.9       3.5       0.0
 1 C  dxz             0.0       0.0       0.0       0.3       0.0       0.1
 1 C  dx2y2           0.0       0.0       0.0       0.0       0.0       0.2
 2 H  s               1.8       5.3       1.3       3.1       3.7       0.0
 3 C  s               0.8       1.3       1.0       0.2       0.2       1.1
 3 C  pz              0.2       4.8      10.9       3.1       0.0       1.9
 3 C  px              4.7       0.9       0.0       0.1       4.4       1.4
 3 C  py              1.5       0.3       8.5       3.9       0.2       0.0
 3 C  dxz             0.1       0.0       0.0       0.0       0.2       0.1
 3 C  dyz             0.0       0.0       0.1       0.1       0.0       0.0
 3 C  dx2y2           0.0       0.0       0.1       0.0       0.0       0.1
 4 H  s               0.2       2.8       6.1       0.9       0.0       1.4
 5 C  s               8.4       0.7       0.1       0.0       1.2       1.7
 5 C  pz              0.1       3.5       5.4       0.4       3.6       0.1
 5 C  px              0.3       0.1       1.2       2.1       6.2       1.2
 5 C  py              0.0       0.1       1.2       2.2       1.1       3.0
 5 C  dxy             0.0       0.0       0.1       0.0       0.1       0.1
 6 H  s               2.4       2.0       2.5       0.2       3.5       0.9
 7 C  s               1.2       2.2       0.7       0.1       0.1       2.3
 7 C  pz              0.1       4.1       0.2       1.7       3.0      12.3
 7 C  px              0.4       0.3       2.7       0.9       4.6       6.4
 7 C  py              7.9       0.4       1.0       0.2       0.1       1.0
 7 C  dyz             0.0       0.1       0.0       0.1       0.0       0.1
 7 C  dxy             0.1       0.0       0.0       0.1       0.0       0.0
 8 H  s               0.6       0.2       1.4       0.3       0.2      10.6
 9 O  s               0.0       2.6       0.2       1.9       0.3       0.1
 9 O  pz              0.2       3.9       0.0       0.8       0.1       3.5
 9 O  px             11.1       0.1       0.3       1.5       1.7       0.2
 9 O  py              2.5       0.0       0.2       0.9       4.0       0.0
10 O  s               0.0       0.4       0.2       0.0       0.4       1.1
10 O  pz              1.0      11.0       1.7       1.8       8.1       1.4
10 O  px              0.1       4.7       0.0       1.5       0.6       6.3
10 O  py              1.4       4.7       1.9       1.0       1.0       5.4
10 O  dz2             0.0       0.2       0.0       0.0       0.1       0.0
11 O  s               1.4       0.0       0.5       0.0       0.9       0.3
11 O  pz              0.6       0.4       0.6       0.1       0.0       1.1
11 O  px              0.3       0.1       0.6       0.0       0.8       2.4
11 O  py             11.0       1.0       2.6       8.9      15.1       1.7
11 O  dxy             0.2       0.0       0.0       0.1       0.1       0.0
12 O  s               0.3       0.0       1.1       0.0       0.2       0.2
12 O  pz              0.0       0.3       5.7       0.0       0.0       0.3
12 O  px              0.0       1.3      13.8       4.5       0.2       0.5
12 O  py              0.5       0.2       2.2       1.7       4.0       2.2
13 O  s               1.1       0.4       0.0       0.5       1.2       0.2
13 O  pz              0.2       1.2       0.6       0.4       1.7       0.1
13 O  px              7.6       0.9       0.0      18.8       0.4       7.1
13 O  py              0.3       0.0       0.7       5.1       2.3       1.6
14 H  s               2.4       1.4       2.4       0.1       0.0       3.1
15 H  s               1.1       5.7       0.2       0.0       1.3       0.4
16 H  s               0.6       6.2       0.8       1.3       1.9       3.2
17 H  s               3.7       0.3       0.8       2.5       4.4       0.4
18 H  s               0.1       0.2       5.8       1.6       0.5       0.3
19 H  s               2.5       0.1       0.0       7.2       0.5       2.3

                     24        25        26        27        28        29   
                  -0.43022  -0.42341  -0.41416  -0.37917  -0.37016  -0.35305
                   2.00000   2.00000   2.00000   2.00000   2.00000   2.00000
                  --------  --------  --------  --------  --------  --------
 0 C  s               0.2       0.8       0.1       0.2       0.0       0.1
 0 C  pz              5.7       8.1       2.8       5.8       1.4       5.3
 0 C  px              1.7       2.7       4.3       0.1       0.8       9.6
 0 C  py              1.3       2.3       3.0      19.2       0.0       5.4
 0 C  dxz             0.0       0.3       0.0       0.1       0.0       0.0
 0 C  dx2y2           0.0       0.1       0.0       0.0       0.0       0.2
 0 C  dxy             0.0       0.0       0.0       0.1       0.1       0.1
 1 C  s               0.0       0.3       0.1       0.1       0.1       0.3
 1 C  pz              4.0       1.2       2.5       2.1       1.3       1.5
 1 C  px              0.6       2.1       0.3      11.2       1.1       1.9
 1 C  py              8.6       1.1       1.0       5.5       2.0       0.3
 1 C  dxz             0.0       0.2       0.0       0.0       0.0       0.1
 1 C  dx2y2           0.0       0.1       0.0       0.0       0.0       0.3
 1 C  dxy             0.0       0.1       0.0       0.1       0.1       0.2
 2 H  s               1.2       0.8       1.6       1.7       0.5       2.0
 3 C  s               0.2       0.1       0.8       0.0       0.0       0.3
 3 C  pz              0.3       0.3       4.4       0.4      10.6       4.3
 3 C  px              8.0       0.0       6.2       0.2       3.1       1.0
 3 C  py              2.7       0.1       0.4       0.0       4.6       1.1
 3 C  dz2             0.0       0.0       0.2       0.0       0.1       0.0
 3 C  dx2y2           0.0       0.1       0.2       0.3       0.1       0.0
 3 C  dxy             0.1       0.0       0.1       0.0       0.3       0.0
 4 H  s               0.0       0.3       4.8       0.1       3.4       1.7
 5 C  s               0.4       0.4       0.6       0.3       0.0       0.0
 5 C  pz             15.8       1.2       0.1       1.4       8.3       0.2
 5 C  px              0.2       0.5       2.9       0.3       3.7       0.4
 5 C  py              2.7       3.8       5.4       3.0       0.6       0.8
 5 C  dz2             0.0       0.0       0.1       0.0       0.1       0.0
 5 C  dx2y2           0.0       0.0       0.0       0.0       0.2       0.1
 5 C  dxy             0.1       0.3       0.0       0.1       0.0       0.1
 6 H  s               7.8       1.1       0.4       0.2       3.4       0.1
 7 C  s               0.4       0.7       0.3       0.1       0.0       0.1
 7 C  pz              0.4       0.7       0.1       0.1       0.0       0.8
 7 C  px              2.7       2.6       3.0       4.3       6.5       3.3
 7 C  py              1.6       7.3       5.3       0.6       0.4       0.2
 7 C  dxz             0.0       0.0       0.0       0.0       0.1       0.1
 7 C  dyz             0.1       0.1       0.0       0.0       0.1       0.0
 7 C  dx2y2           0.0       0.1       0.0       0.1       0.0       0.1
 7 C  dxy             0.0       0.3       0.0       0.0       0.0       0.0
 8 H  s               0.7       1.1       0.6       1.1       2.8       3.6
 9 O  s               0.0       0.3       0.7       0.0       0.5       0.4
 9 O  pz              0.8       0.6       3.2       1.3       0.0       6.7
 9 O  px              0.5      13.1       3.7       3.4       0.5       2.2
 9 O  py              2.7       6.2       3.3       0.7       5.4       0.0
10 O  s               0.8       0.2       0.6       0.3       1.0       0.5
10 O  pz              0.2       5.4       0.0       1.1       1.1       0.1
10 O  px              0.6       0.0       0.3       1.2       3.4       1.8
10 O  py              2.9       0.2       3.0       2.0       1.1       0.8
11 O  s               0.0       0.4       1.4       0.0       0.0       1.9
11 O  pz              6.5       0.1       0.4       2.8       3.4       0.8
11 O  px              0.0       0.0       7.6       0.1       1.6       5.1
11 O  py              0.0      11.7       0.1       0.7       0.6       0.4
12 O  s               1.2       0.2       1.2       0.3       1.5       0.1
12 O  pz              0.0       0.5       5.5       0.0      11.7       1.3
12 O  px              4.4       0.4       2.9       1.2       0.7       3.1
12 O  py              1.8       0.0       3.9       0.3       8.3       3.2
13 O  s               0.2       0.4       0.2       1.9       0.2       1.2
13 O  pz              0.9       0.2       1.0       9.4       1.3       9.1
13 O  px              0.1       6.9       0.6       2.9       0.2       0.2
13 O  py              3.7       0.3       0.1       2.0       0.0       0.7
14 H  s               0.0       0.1       3.7       4.1       0.4      10.3
15 H  s               3.5       4.4       0.8       4.4       0.4       2.9
16 H  s               0.1       0.6       0.4       0.4       0.3       0.3
17 H  s               0.2       3.3       0.0       0.2       0.0       0.6
18 H  s               0.5       0.2       3.0       0.2       0.1       0.1
19 H  s               0.1       2.0       0.2       0.0       0.1       0.2

                     30        31        32        33        34        35   
                  -0.32307  -0.31713  -0.30378  -0.29154  -0.27730  -0.26248
                   2.00000   2.00000   2.00000   2.00000   2.00000   2.00000
                  --------  --------  --------  --------  --------  --------
 0 C  s               0.3       0.1       0.1       0.6       0.1       0.0
 0 C  pz              0.4       1.8       0.5       0.9       4.5       0.2
 0 C  px              0.7       1.4       1.2       0.6       0.8       0.0
 0 C  py              0.1       0.1       0.0       1.4       5.4       0.1
 0 C  dz2             0.0       0.0       0.0       0.1       0.4       0.0
 0 C  dxy             0.1       0.0       0.0       0.0       0.6       0.0
 1 C  s               0.0       0.2       0.1       0.2       0.1       0.4
 1 C  pz              1.1       4.3       0.0       4.3       0.7       0.6
 1 C  px              0.1       0.1       0.3       0.4       0.2       0.3
 1 C  py              0.0       0.4       0.1       2.3       2.3       0.6
 1 C  dz2             0.1       0.1       0.0       0.6       0.1       0.5
 1 C  dxz             0.0       0.0       0.1       0.0       0.0       0.1
 1 C  dyz             0.0       0.1       0.0       0.0       0.1       0.0
 1 C  dxy             0.1       0.2       0.0       0.1       0.0       0.3
 2 H  s               1.2       2.3       0.2       6.5       0.5       2.0
 3 C  s               0.4       0.2       0.0       0.1       0.3       1.0
 3 C  pz              1.2       1.9       1.3       1.1       0.4       0.3
 3 C  px              2.3       0.2       0.3       1.9       0.1       0.0
 3 C  py              0.5       1.5       0.2       0.5       0.5       1.2
 3 C  dz2             0.3       0.0       0.1       0.0       0.1       0.1
 3 C  dxz             0.0       0.1       0.0       0.2       0.0       0.1
 3 C  dyz             0.0       0.1       0.0       0.0       0.0       0.3
 3 C  dxy             0.0       0.2       0.0       0.0       0.1       0.1
 4 H  s               3.5       0.8       1.3       1.2       1.0       1.8
 5 C  s               0.2       0.1       0.2       0.2       0.2       0.0
 5 C  pz              2.0       0.0       3.2       0.2       0.1       0.2
 5 C  px              0.6       2.4       0.0       5.9       0.1       0.1
 5 C  py              1.5       0.0       1.3       0.6       0.7       0.0
 5 C  dz2             0.1       0.0       0.1       0.1       0.0       0.1
 5 C  dyz             0.0       0.0       0.2       0.0       0.0       0.1
 5 C  dx2y2           0.4       0.1       0.0       0.2       0.0       0.0
 6 H  s               1.9       0.1       2.8       1.1       0.0       0.4
 7 C  s               0.6       0.0       0.3       0.2       0.4       0.0
 7 C  pz              0.1       0.1       6.1       0.4       0.3       0.1
 7 C  px              0.4       0.8       0.3       0.4       0.5       0.0
 7 C  py              0.1       0.3       0.3       2.6       3.2       0.0
 7 C  dz2             0.0       0.1       0.1       0.0       0.3       0.0
 7 C  dxz             0.0       0.0       0.2       0.1       0.0       0.1
 7 C  dyz             0.1       0.0       0.3       0.0       0.0       0.0
 7 C  dx2y2           0.0       0.0       0.1       0.1       0.1       0.0
 7 C  dxy             0.1       0.0       0.2       0.0       0.2       0.0
 8 H  s               0.2       0.1       4.1       0.0       0.2       0.3
 9 O  s               0.1       0.0       1.3       0.1       4.2       0.0
 9 O  pz              0.0       3.9       0.1       0.7      29.4       0.6
 9 O  px              0.2       0.2       4.9       0.1       0.5       0.1
 9 O  py              4.2       0.7       1.7       2.4      12.7       0.0
10 O  s               0.5       0.9       5.7       0.4       0.5       0.0
10 O  pz              1.1       1.1      16.5       3.8       0.1       0.2
10 O  px              0.1       1.8       0.1       6.6       5.5       0.0
10 O  py              5.6       1.1      32.4       0.0       0.1       0.1
11 O  s               4.4       0.3       0.0       1.6       0.0       0.1
11 O  pz              1.2       2.5       3.1       4.1       1.0       8.8
11 O  px             38.7       0.8       1.0       8.1       0.1       0.0
11 O  py              0.2       0.0       0.1       0.4       0.2       0.6
12 O  s               1.5       3.8       0.3       0.6       0.1       0.2
12 O  pz              1.3      10.1       0.3       2.6       1.0      20.5
12 O  px              2.2       4.6       0.8       0.2       0.0      10.9
12 O  py             10.0      12.0       2.1       0.8       2.8       4.5
13 O  s               0.2       3.1       0.0       2.4       0.7       0.1
13 O  pz              0.2       3.4       0.1      16.4       5.0      21.0
13 O  px              0.3       1.9       0.6       1.6       0.3       3.0
13 O  py              3.0      20.3       0.0       6.7       0.0      16.6
14 H  s               0.4       1.8       0.0       0.1       5.9       0.0
15 H  s               0.3       0.8       0.0       1.5       3.5       0.5
16 H  s               0.7       0.5       2.1       0.3       0.8       0.0
17 H  s               1.7       0.2       0.1       1.0       0.1       0.1
18 H  s               0.4       2.0       0.2       0.6       0.1       0.1
19 H  s               0.1       1.3       0.1       1.3       0.7       0.1

                     36        37        38        39        40        41   
                  -0.24059  -0.23169  -0.22118  -0.20991  -0.00779   0.03456
                   2.00000   2.00000   2.00000   2.00000   0.00000   0.00000
                  --------  --------  --------  --------  --------  --------
 0 C  s               0.0       0.0       0.1       0.0       0.1       0.2
 0 C  pz              0.0       3.8       0.0       0.1       0.3       0.4
 0 C  px              0.0       0.3       0.1       0.8       1.2       0.3
 0 C  py              0.3       1.0       0.3       1.5       0.0       0.0
 0 C  dz2             0.1       0.8       0.1       0.1       0.0       0.1
 0 C  dxz             0.0       0.1       0.0       0.0       0.2       0.1
 0 C  dyz             0.0       0.1       0.0       0.0       0.0       0.1
 0 C  dx2y2           0.0       0.0       0.0       0.0       0.2       0.0
 0 C  dxy             0.0       0.3       0.0       0.3       0.0       0.0
 1 C  s               0.4       0.8       0.4       0.0       0.0       1.0
 1 C  pz              0.3       0.9       0.9       0.5       1.4       3.1
 1 C  px              0.6       1.3       0.8       0.2       1.3       0.2
 1 C  py              0.5       1.7       0.9       6.6       0.1       0.3
 1 C  dz2             0.1       0.1       0.1       0.2       0.0       0.3
 1 C  dxz             0.0       0.0       0.1       0.0       0.1       0.2
 1 C  dyz             0.0       0.0       0.0       0.0       0.1       0.0
 1 C  dx2y2           0.0       0.0       0.0       0.0       0.5       0.0
 1 C  dxy             0.2       0.0       0.2       0.4       0.0       0.0
 2 H  s               1.1       1.2       0.6       0.9       1.1       9.0
 3 C  s               0.8       0.1       0.0       0.2       0.0       0.2
 3 C  pz              3.9       0.1       0.4       1.3       0.8       1.8
 3 C  px              0.2       0.5       6.4       1.8       0.5       0.1
 3 C  py              0.7       0.0       1.5       1.7       0.9       1.0
 3 C  dz2             0.4       0.0       0.0       0.0       0.0       0.1
 3 C  dxz             0.1       0.0       0.0       0.0       0.0       0.1
 3 C  dyz             0.2       0.0       0.0       0.1       0.0       0.1
 3 C  dx2y2           0.1       0.1       0.2       0.1       0.0       0.0
 3 C  dxy             0.0       0.0       0.0       0.3       0.4       0.1
 4 H  s               5.2       0.3       0.1       0.6       0.9       4.1
 5 C  s               0.1       0.1       0.2       1.2       0.0       0.0
 5 C  pz              2.5       0.5       1.0       0.8       0.1       0.0
 5 C  px              0.0       0.3       4.1       0.5       0.0       1.0
 5 C  py              1.0       0.0       2.6       3.4       0.8       0.7
 5 C  dz2             0.9       0.1       0.1       0.0       0.0       0.0
 5 C  dxz             0.3       0.0       0.2       0.1       0.0       0.0
 5 C  dyz             0.1       0.0       0.1       0.0       0.0       0.1
 5 C  dx2y2           0.0       0.0       0.2       0.0       0.0       0.2
 5 C  dxy             0.1       0.1       0.0       0.1       0.4       0.2
 6 H  s               6.5       0.8       0.6       0.5       0.1       0.1
 7 C  s               0.1       0.1       0.0       0.0       0.1       0.0
 7 C  pz              0.1       0.3       0.2       0.4       0.0       0.6
 7 C  px              0.3       0.3       1.6       0.9       0.1       0.4
 7 C  py              0.5       0.1       0.9       1.5       0.8       0.2
 7 C  dz2             0.1       0.0       0.2       0.5       0.0       0.1
 7 C  dxz             0.0       1.2       0.5       0.1       0.0       0.0
 7 C  dyz             0.0       0.0       0.2       0.1       0.0       0.0
 7 C  dx2y2           0.0       0.3       0.2       0.4       0.0       0.1
 7 C  dxy             0.0       0.0       0.0       0.1       0.1       0.1
 8 H  s               0.0       1.9       4.8       2.1       0.1       0.3
 9 O  s               0.0       0.1       0.1       0.3       0.7       0.1
[...]
12 O  py              0.0       0.0       0.1       0.0       0.2       0.2
12 O  dz2             1.4       0.0       0.0       0.2       0.6       0.8
12 O  dxz            18.4       4.4       0.1       0.3       0.1       0.1
12 O  dyz             0.6       0.0       0.1       0.2       0.2       0.4
12 O  dx2y2           2.7      13.6      11.4       0.5       1.3       0.7
12 O  dxy             4.2       8.2       4.9       2.8       1.2       2.5
13 O  s               0.0       1.0       1.0       0.0       0.1       1.4
13 O  pz              0.1       0.3       0.1       0.0       0.0       0.2
13 O  px              0.0       0.0       0.0       0.0       0.0       1.5
13 O  py              0.2       0.0       0.2       0.0       0.0       0.0
13 O  dz2             1.9       0.4       7.2       0.1       0.1       0.1
13 O  dxz             2.0       0.0       2.5       0.1       0.0      14.4
13 O  dyz             2.3       0.7       7.4       0.0       0.1       0.1
13 O  dx2y2           0.0       2.0       3.0       0.0       0.5       9.0
13 O  dxy            11.3      34.7       8.9       0.1       1.2       1.6
16 H  s               1.4       0.2       0.0       0.4       0.1       0.2
17 H  s               0.2       0.0       1.3       0.0       0.0       0.1
18 H  s               2.1       1.5       0.2       0.1       0.0       0.0
19 H  s               0.0       2.3       2.4       0.0       0.0       0.3

                    156       157       158       159   
                   3.30461   3.31680   3.34842   3.41237
                   0.00000   0.00000   0.00000   0.00000
                  --------  --------  --------  --------
 0 C  s               0.0       0.1       0.1       1.1
 0 C  pz              0.0       0.0       0.0       0.3
 0 C  px              0.0       0.3       0.0       1.6
 0 C  dz2             0.0       0.1       0.1       0.1
 0 C  dxz             0.0       0.4       0.0       1.9
 0 C  dyz             0.0       0.0       0.0       0.1
 0 C  dx2y2           0.1       0.2       0.0       2.3
 0 C  dxy             0.3       0.4       0.0       0.2
 1 C  s               0.1       0.6       0.7       0.1
 1 C  pz              0.0       0.4       0.3       0.1
 1 C  px              0.2       1.2       0.5       0.2
 1 C  dxz             0.2       2.8       1.7       0.3
 1 C  dx2y2           1.6       1.8       0.8       0.1
 1 C  dxy             0.0       0.2       0.3       0.1
 3 C  s               0.9       0.1       0.6       0.0
 3 C  px              0.5       0.2       0.3       0.0
 3 C  py              1.5       0.1       1.2       0.0
 3 C  dz2             1.0       0.2       0.9       0.0
 3 C  dxz             0.3       0.2       0.2       0.0
 3 C  dyz             0.1       0.1       1.3       0.0
 3 C  dx2y2           3.3       0.1       0.6       0.0
 3 C  dxy             4.9       0.0       1.0       0.0
 5 C  s               0.4       0.1       1.3       0.0
 5 C  pz              0.1       0.0       0.3       0.0
 5 C  px              0.8       0.2       0.3       0.0
 5 C  py              0.4       0.3       1.3       0.0
 5 C  dz2             0.4       0.0       0.4       0.0
 5 C  dxz             0.8       0.0       0.4       0.1
 5 C  dyz             0.1       0.6       1.8       0.0
 5 C  dx2y2           0.3       0.5       0.0       0.2
 5 C  dxy             3.1       0.9       4.1       0.0
 7 C  s               0.7       0.8       0.2       0.9
 7 C  pz              0.2       1.5       0.1       0.9
 7 C  px              0.0       0.2       0.0       1.3
 7 C  py              0.1       0.0       0.2       1.3
 7 C  dz2             0.4       4.1       0.5       3.7
 7 C  dxz             0.2       1.7       0.6       0.1
 7 C  dyz             0.0       0.2       0.0       0.5
 7 C  dx2y2           0.4       0.6       0.4       0.2
 7 C  dxy             0.2       0.0       0.4       4.5
 9 O  s               0.1       0.2       0.0       0.2
 9 O  px              0.0       0.0       0.0       4.4
 9 O  py              0.0       0.0       0.1       1.3
 9 O  dz2             0.3       0.1       0.8       1.5
 9 O  dxz             0.0       0.1       0.1      22.3
 9 O  dyz             0.0       0.9       0.0       5.0
 9 O  dx2y2           0.0       4.7       1.4      13.8
 9 O  dxy             2.1       0.0       0.3      18.2
10 O  s               0.8       1.7       0.2       0.2
10 O  pz              0.3       1.7       0.1       0.5
10 O  px              0.1       0.2       0.0       0.2
10 O  py              0.0       0.1       0.0       0.1
10 O  dz2             2.3      23.7       2.6       4.7
10 O  dxz             1.6       4.5       0.1       1.3
10 O  dyz             0.3       0.9       0.1       0.1
10 O  dx2y2           0.0       0.4       0.1       0.3
10 O  dxy             0.1       0.3       0.0       0.3
11 O  s               1.0       0.3       2.7       0.1
11 O  pz              0.1       0.0       0.2       0.0
11 O  px              0.2       0.1       0.4       0.0
11 O  py              0.9       0.3       1.9       0.0
11 O  dz2             0.8       0.2       3.2       0.1
11 O  dxz             3.0       0.8       2.7       0.0
11 O  dyz             3.2       0.6       4.2       0.0
11 O  dx2y2           0.4       0.4       0.1       0.4
11 O  dxy             9.8       5.2      19.1       0.1
12 O  s               2.3       0.3       2.4       0.0
12 O  px              1.2       0.1       0.4       0.0
12 O  py              1.7       0.2       1.0       0.0
12 O  dz2             5.6       0.8       5.3       0.1
12 O  dxz             2.3       0.2       0.1       0.0
12 O  dyz             3.9       0.1       0.6       0.0
12 O  dx2y2          12.0       1.1       4.3       0.0
12 O  dxy            14.4       0.7       6.7       0.2
13 O  s               0.1       2.0       1.3       0.2
13 O  pz              0.1       0.1       0.1       0.0
13 O  px              0.2       1.6       1.0       0.1
13 O  dz2             0.1       0.7       0.6       0.1
13 O  dxz             2.9      11.8       6.5       0.7
13 O  dx2y2           1.6       9.9       5.2       0.7
13 O  dxy             0.0       0.5       0.3       0.0
16 H  s               0.0       0.5       0.0       0.2
17 H  s               0.2       0.2       0.4       0.0
18 H  s               0.6       0.1       0.1       0.0
19 H  s               0.0       0.2       0.1       0.0


                      *****************************
                      * MAYER POPULATION ANALYSIS *
                      *****************************

  NA   - Mulliken gross atomic population
  ZA   - Total nuclear charge
  QA   - Mulliken gross atomic charge
  VA   - Mayer's total valence
  BVA  - Mayer's bonded valence
  FA   - Mayer's free valence

  ATOM       NA         ZA         QA         VA         BVA        FA
  0 C      5.9020     6.0000     0.0980     3.9422     3.9422    -0.0000
  1 C      6.0220     6.0000    -0.0220     4.1120     4.1120     0.0000
  2 H      0.9370     1.0000     0.0630     0.9681     0.9681    -0.0000
  3 C      5.9633     6.0000     0.0367     3.9962     3.9962     0.0000
  4 H      0.9452     1.0000     0.0548     1.0072     1.0072     0.0000
  5 C      5.9788     6.0000     0.0212     4.0393     4.0393    -0.0000
  6 H      0.9324     1.0000     0.0676     0.9686     0.9686    -0.0000
  7 C      5.8102     6.0000     0.1898     4.1517     4.1517     0.0000
  8 H      0.9293     1.0000     0.0707     0.9619     0.9619    -0.0000
  9 O      8.3000     8.0000    -0.3000     2.1939     2.1939    -0.0000
 10 O      8.4115     8.0000    -0.4115     2.0244     2.0244    -0.0000
 11 O      8.4251     8.0000    -0.4251     2.0210     2.0210    -0.0000
 12 O      8.4249     8.0000    -0.4249     2.0146     2.0146    -0.0000
 13 O      8.4117     8.0000    -0.4117     2.0015     2.0015    -0.0000
 14 H      0.9027     1.0000     0.0973     0.9575     0.9575    -0.0000
 15 H      0.9147     1.0000     0.0853     0.9809     0.9809    -0.0000
 16 H      0.6933     1.0000     0.3067     0.9136     0.9136    -0.0000
 17 H      0.6872     1.0000     0.3128     0.8943     0.8943    -0.0000
 18 H      0.7055     1.0000     0.2945     0.9016     0.9016    -0.0000
 19 H      0.7031     1.0000     0.2969     0.8931     0.8931     0.0000

  Mayer bond orders larger than 0.100000
B(  0-C ,  1-C ) :   1.0565 B(  0-C ,  9-O ) :   1.0026 B(  0-C , 14-H ) :   0.9239 
B(  0-C , 15-H ) :   0.8920 B(  1-C ,  2-H ) :   0.8845 B(  1-C ,  3-C ) :   0.9958 
B(  1-C , 13-O ) :   1.0699 B(  3-C ,  4-H ) :   0.8767 B(  3-C ,  5-C ) :   0.9922 
B(  3-C , 12-O ) :   1.0709 B(  5-C ,  6-H ) :   0.8780 B(  5-C ,  7-C ) :   1.0102 
B(  5-C , 11-O ) :   1.0648 B(  7-C ,  8-H ) :   0.9044 B(  7-C ,  9-O ) :   1.0926 
B(  7-C , 10-O ) :   1.0479 B( 10-O , 16-H ) :   0.8197 B( 11-O , 17-H ) :   0.8346 
B( 12-O , 18-H ) :   0.8424 B( 13-O , 19-H ) :   0.8458 

-------
TIMINGS
-------

Total SCF time: 0 days 0 hours 0 min 1 sec 

Total time                  ....       1.389 sec
Sum of individual times     ....       1.378 sec  ( 99.2%)

SCF preparation             ....       0.030 sec  (  2.2%)
Fock matrix formation       ....       1.131 sec  ( 81.4%)
  Startup                   ....       0.001 sec  (  0.1% of F)
  Split-RI-J                ....       0.564 sec  ( 49.9% of F)
  XC integration            ....       0.562 sec  ( 49.7% of F)
    Basis function eval.    ....       0.233 sec  ( 41.5% of XC)
    Density eval.           ....       0.131 sec  ( 23.4% of XC)
    XC-Functional eval.     ....       0.037 sec  (  6.5% of XC)
    XC-Potential eval.      ....       0.141 sec  ( 25.0% of XC)
Diagonalization             ....       0.000 sec  (  0.0%)
Density matrix formation    ....       0.002 sec  (  0.1%)
Total Energy calculation    ....       0.000 sec  (  0.0%)
Population analysis         ....       0.078 sec  (  5.6%)
Orbital Transformation      ....       0.125 sec  (  9.0%)
Orbital Orthonormalization  ....       0.000 sec  (  0.0%)
DIIS solution               ....       0.004 sec  (  0.3%)
  MO trafo                  ....       0.000 sec  (  0.0 % of DIIS)
  Orb grad                  ....       0.000 sec  (  0.0 % of DIIS)
  Energy W gradient         ....       0.000 sec  (  0.0 % of DIIS)
  DIIS error                ....       0.001 sec  ( 11.8 % of DIIS)
  DIIS work                 ....       0.004 sec  ( 87.0 % of DIIS)
  Form Q                    ....       0.000 sec  (  0.0 % of DIIS)
  Form QpQm                 ....       0.000 sec  (  0.0 % of DIIS)
  Exp/Cayley                ....       0.000 sec  (  0.0 % of DIIS)
  Orb update                ....       0.000 sec  (  0.0 % of DIIS)
  Wake-sleep                ....       0.000 sec  (  1.2 % of DIIS)
SOSCF solution              ....       0.007 sec  (  0.5%)
  MO trafo                  ....       0.005 sec  ( 66.7 % of SOSCF)
  Orb grad                  ....       0.000 sec  (  1.0 % of SOSCF)
  Rot update                ....       0.000 sec  (  2.6 % of SOSCF)
  Step                      ....       0.002 sec  ( 28.5 % of SOSCF)
Finished LeanSCF after   1.4 sec

Maximum memory used throughout the entire LEANSCF-calculation: 15.5 MB


-------------------------------------------------------------------------------
                          DFT DISPERSION CORRECTION                            
                                                                               
                                DFTD4 V3.4.0                                   
-------------------------------------------------------------------------------
The PBE functional is recognized
Active option DFTDOPT                   ...         5   

-------------------------   ----------------
Dispersion correction           -0.019218877
-------------------------   ----------------

------------------   -----------------
gCP correction             0.128505649
------------------   -----------------

-------------------------   --------------------
FINAL SINGLE POINT ENERGY      -571.417171967758
-------------------------   --------------------


------------------------------------------------------------------------------
                              ORCA PROPERTY CALCULATIONS
------------------------------------------------------------------------------

GBWName                                 ... sp.gbw
Number of atoms                         ...     20
Number of basis functions               ...    160
Max core memory                         ...   1024 MB

Electric properties:
Dipole moment                           ... YES
Quadrupole moment                       ...  NO
Static polarizability (Dipole/Dipole)   ...  NO
Static polarizability (Dipole/Quad.)    ...  NO
Static polarizability (Quad./Quad.)     ...  NO
Static polarizability (Velocity)        ...  NO

Atomic electric properties:
Dipole moment                           ...  NO
Quadrupole moment                       ...  NO
Static polarizability                   ...  NO

Choice of electric origin               ... Center of mass
Position of electric origin             ...     0.000005     0.000003    -0.000004

General magnetic properties:
Magnetizability                         ...  NO

EPR properties:
g-Tensor (aka g-matrix)                 ...  NO
Zero-Field splitting spin-orbit         ...  NO
Zero-field splitting spin-spin          ...  NO
Hyperfine couplings                     ...  NO (   0 nuclei)
Quadrupole couplings                    ...  NO (   0 nuclei)
Contact density                         ...  NO (   0 nuclei)

NMR properties:
Chemical shifts                         ...  NO (   0 nuclei)
Spin-rotation constants                 ...  NO (   0 nuclei)
Spin-spin couplings                     ...  NO (   0 nuclei,    0 pairs)

Choice of magnetic origin               ... GIAO
Position of magnetic origin             ...     0.000000     0.000000     0.000000

Properties with geometric perturbations:
SCF Hessian                             ...  NO
IR spectrum                             ...  NO
VCD spectrum                            ...  NO
X-ray spectroscopy properties:
SCF XES/XAS/RIXS spectra                ...  NO


-------------
DIPOLE MOMENT
-------------

Method             : SCF
Type of density    : Electron Density
Multiplicity       :   1
Irrep              :   0
Energy             :  -571.5264587395508897 Eh
Relativity type    : 
Basis              : AO
                                X                 Y                 Z
Electronic contribution:     -1.266307789      -0.090648619       0.058391942
Nuclear contribution   :      2.166107999      -0.981894144      -0.143574679
                        -----------------------------------------
Total Dipole Moment    :      0.899800210      -1.072542763      -0.085182737
                        -----------------------------------------
Magnitude (a.u.)       :      1.402584933
Magnitude (Debye)      :      3.565087577



--------------------
Rotational spectrum 
--------------------
 
Rotational constants in cm-1:             0.057426             0.044826             0.029004 
Rotational constants in MHz :          1721.592646          1343.854244           869.528047 

Dipole components along the rotational axes: 
x,y,z [a.u.] :     0.864461     1.100989    -0.088182 
x,y,z [Debye]:     2.197284     2.798491    -0.224141 

 

Dipole moment calculation done in   0.0 sec 

Maximum memory used throughout the entire PROP-calculation: 10.1 MB

--------------------------------
SUGGESTED CITATIONS FOR THIS RUN
--------------------------------

Below you find a list of papers that are relevant to this ORCA run
We neither can nor want to force you to cite these papers, but we appreciate if you do
You receive ORCA, which is the product of decades of hard work by many enthusiastic individuals, for free
The only thing we kindly ask in return is that you cite our papers,
We deeply appreciate it, if you show your appreciation for ORCA by not just citing the generic ORCA reference.

Please note that relegating all ORCA citations to the supporting information does *not* help us.
SI sections are not indexed - citations you put there will not count into any citation statistics
But we need these citations in order to attract the funding resources that allow us to do what we are doing

Therefore, if you are a happy ORCA user, please consider citing a few of the papers listed below in the main body of your paper

In addition to the list printed below, the program has created the file sp.bibtex that contains the list in bibtex format
You can import this file easily into all common literature databanks and citation aid programs


List of essential papers. We consider these as the minimum necessary citations

  1. Neese,F.
     Software update: the ORCA program system, version 5.0
     WIRES Comput. Molec. Sci., 2022 12(1)e1606
     doi.org/10.1002/wcms.1606

List of papers to cite with high priority. The work reported in these papers was absolutely
necessary for this run to complete.
Our perspective: the developers of density functionals and basis sets usually get cited in chemistry papers
Good! But without the algorithms to do something with them, the functionals or basis sets would not do anything.
Hence, in our opinion, the algorithm design and method developments papers are equally worthy of getting cited

  1. Neese,F.
     An improvement of the resolution of the identity approximation for the formation of the Coulomb matrix
     J. Comp. Chem., 2003 24(14)1740-1747
     doi.org/10.1002/jcc.10318
  2. Neese,F.
     The SHARK Integral Generation and Digestion System
     J. Comp. Chem., 2022  1-16
     doi.org/10.1002/jcc.26942
  3. Caldeweyher,E.; Bannwarth,C.; Grimme,S.
     Extension of the D3 dispersion coefficient model
     J. Chem. Phys., 2017 147 034112
     doi.org/10.1063/1.4993215
  4. Caldeweyher,E.; Ehlert,S.; Hansen,A.; Neugebauer,H.; Spicher,S.; Bannwarth,C.; Grimme,S.
     A generally applicable atomic-charge dependent London dispersion correction
     J. Chem. Phys., 2019 150 154122
     doi.org/10.1063/1.5090222
  5. Caldeweyher,E.; Mewes,J.; Ehlert,S.; Grimme,S.
     Extension and evaluation of the D4 London-dispersion model for periodic systems
     Phys. Chem. Chem. Phys., 2020 22(16)8499-8512
     doi.org/10.1039/D0CP00502A
  6. Wittmann,L.; Gordiy,I.; Friede,M.; Helmich-Paris,B.; Grimme,S.; Hansen,A.; Bursch,M.
     Extension of the D3 and D4 London Dispersion Corrections to the full Actinides Series
     Phys. Chem. Chem. Phys., 2024 26(32)21379-21394
     doi.org/https://doi.org/10.1039/D4CP01514B 

List of suggested additional citations. These are papers that are important in the 'surrounding' of 
of this run, or papers that preceded the highly important papers. If you like your results we are grateful for a citation.

  1. Neese,F.
     The ORCA program system
     WIRES Comput. Molec. Sci., 2012 2(1)73-78
     doi.org/10.1002/wcms.81
  2. Neese,F.
     Software update: the ORCA program system, version 4.0
     WIRES Comput. Molec. Sci., 2018 8(1)1-6
     doi.org/10.1002/wcms.1327
  3. Neese,F.; Wennmohs,F.; Becker,U.; Riplinger,C.
     The ORCA quantum chemistry program package
     J. Chem. Phys., 2020 152 Art. No. L224108
     doi.org/10.1063/5.0004608

List of optional additional citations

  1. Neese,F.
     Approximate second-order SCF convergence for spin unrestricted wavefunctions
     Chem. Phys. Lett., 2000 325(1-3)93-98
     doi.org/10.1016/s0009-2614(00)00662-x

Timings for individual modules:

Sum of individual times          ...        1.877 sec (=   0.031 min)
Startup calculation              ...        0.377 sec (=   0.006 min)  20.1 %
SCF iterations                   ...        1.455 sec (=   0.024 min)  77.5 %
Property calculations            ...        0.045 sec (=   0.001 min)   2.4 %
                             ****ORCA TERMINATED NORMALLY****
TOTAL RUN TIME: 0 days 0 hours 0 minutes 1 seconds 992 msec
