      -----------------------------------------------------------      
     |                   =====================                   |     
     |                           x T B                           |     
     |                   =====================                   |     
     |                         S. Grimme                         |     
     |          Mulliken Center for Theoretical Chemistry        |     
     |                    University of Bonn                     |     
      -----------------------------------------------------------      

   * xtb version 6.7.1 (41059b4) compiled by 'michael@archlinux' on 2025-03-24

   xtb is free software: you can redistribute it and/or modify it under
   the terms of the GNU Lesser General Public License as published by
   the Free Software Foundation, either version 3 of the License, or
   (at your option) any later version.
   
   xtb is distributed in the hope that it will be useful,
   but WITHOUT ANY WARRANTY; without even the implied warranty of
   MERCHANTABILITY or FITNESS FOR A PARTICULAR PURPOSE.  See the
   GNU Lesser General Public License for more details.
   
   Cite this work as:
   * C. Bannwarth, E. Caldeweyher, S. Ehlert, A. Hansen, P. Pracht,
     J. Seibert, S. Spicher, S. Grimme, WIREs Comput. Mol. Sci., 2020, 11,
     e01493. DOI: 10.1002/wcms.1493
   
   for GFN2-xTB:
   * C. Bannwarth, S. Ehlert and S. Grimme., J. Chem. Theory Comput., 2019,
     15, 1652-1671. DOI: 10.1021/acs.jctc.8b01176
   for GFN1-xTB:
   * S. Grimme, C. Bannwarth, P. Shushkov, J. Chem. Theory Comput., 2017,
     13, 1989-2009. DOI: 10.1021/acs.jctc.7b00118
   for GFN0-xTB:
   * P. Pracht, E. Caldeweyher, S. Ehlert, S. Grimme, ChemRxiv, 2019, preprint.
     DOI: 10.26434/chemrxiv.8326202.v1
   for GFN-FF:
   * S. Spicher and S. Grimme, Angew. Chem. Int. Ed., 2020, 59, 15665-15673.
     DOI: 10.1002/anie.202004239
   
   for ALPB and GBSA implicit solvation:
   * S. Ehlert, M. Stahn, S. Spicher, S. Grimme, J. Chem. Theory Comput.,
     2021, 17, 4250-4261. DOI: 10.1021/acs.jctc.1c00471
   
   for ddCOSMO and CPCM-X implicit solvation:
   * M. Stahn, S. Ehlert, S. Grimme, J. Phys. Chem. A,
     2023, XX, XXXX-XXXX. DOI: 10.1021/acs.jpca.3c04382
   
   for DFT-D4:
   * E. Caldeweyher, C. Bannwarth and S. Grimme, J. Chem. Phys., 2017,
     147, 034112. DOI: 10.1063/1.4993215
   * E. Caldeweyher, S. Ehlert, A. Hansen, H. Neugebauer, S. Spicher,
     C. Bannwarth and S. Grimme, J. Chem. Phys., 2019, 150, 154122.
     DOI: 10.1063/1.5090222
   * E. Caldeweyher, J.-M. Mewes, S. Ehlert and S. Grimme, Phys. Chem. Chem. Phys.
     2020, 22, 8499-8512. DOI: 10.1039/D0CP00502A
   
   for sTDA-xTB:
   * S. Grimme and C. Bannwarth, J. Chem. Phys., 2016, 145, 054103.
     DOI: 10.1063/1.4959605
   
   in the mass-spec context:
   * V. Asgeirsson, C. Bauer and S. Grimme, Chem. Sci., 2017, 8, 4879.
     DOI: 10.1039/c7sc00601b
   * J. Koopman and S. Grimme, ACS Omega 2019, 4, 12, 15120-15133.
     DOI: 10.1021/acsomega.9b02011
   
   for metadynamics refer to:
   * S. Grimme, J. Chem. Theory Comput., 2019, 155, 2847-2862
     DOI: 10.1021/acs.jctc.9b00143
   
   for SPH calculations refer to:
   * S. Spicher and S. Grimme, J. Chem. Theory Comput., 2021, 17, 1701-1714
     DOI: 10.1021/acs.jctc.0c01306
   
   for ONIOM refer to:
   * C. Plett, A. Katbashev, S. Ehlert, S. Grimme, M. Bursch,
     Phys. Chem. Chem. Phys., 2023, 25, 17860-17868. DOI: 10.1039/D3CP02178E
   
   for DIPRO refer to:
   * J. Kohn, N. Gildemeister, S. Grimme, D. Fazzi, A. Hansen,
     J. Chem. Phys., 2023, just accepted.
   
   for PTB refer to:
   * S. Grimme, M. Mueller, A. Hansen, J. Chem. Phys., 2023, 158, 124111.
     DOI: 10.1063/5.0137838
   
   with help from (in alphabetical order)
   P. Atkinson, C. Bannwarth, F. Bohle, G. Brandenburg, E. Caldeweyher
   M. Checinski, S. Dohm, S. Ehlert, S. Ehrlich, I. Gerasimov, C. Hölzer
   A. Katbashev, J. Kohn, J. Koopman, C. Lavigne, S. Lehtola, F. März, M. Müller,
   F. Musil, H. Neugebauer, J. Pisarek, C. Plett, P. Pracht, F. Pultar,
   J. Seibert, P. Shushkov, S. Spicher, M. Stahn, M. Steiner, T. Strunk,
   J. Stückrath, T. Rose, and J. Unsleber
   
 * started run on 2025/04/08 at 23:52:33.441     
   ID    Z sym.   atoms
    1    6 C      1-6, 8-13
    2    8 O      7, 14
    3    1 H      15-22

           -------------------------------------------------
          |                Calculation Setup                |
           -------------------------------------------------

          program call               : /usr/bin/xtb xtb_opt.coord --opt normal --orca -I xtb_opt-xcontrol-inp
          coordinate file            : xtb_opt.coord
          omp threads                :                    16

           -------------------------------------------------
          |                   Orca driver                   |
           -------------------------------------------------
orca executable           : /home/michael/Documents/CHEM4561/orca_avx2/orca
orca input file           : xtb_opt.inp
orca input line           : 
orca parallel             : true
orca number of threads    : 16
                         * ORCA takes the control...
  ------------------------------------------------------------------------

                                 *****************
                                 * O   R   C   A *
                                 *****************

                                            #,                                       
                                            ###                                      
                                            ####                                     
                                            #####                                    
                                            ######                                   
                                           ########,                                 
                                     ,,################,,,,,                         
                               ,,#################################,,                 
                          ,,##########################################,,             
                       ,#########################################, ''#####,          
                    ,#############################################,,   '####,        
                  ,##################################################,,,,####,       
                ,###########''''           ''''###############################       
              ,#####''   ,,,,##########,,,,          '''####'''          '####       
            ,##' ,,,,###########################,,,                        '##       
           ' ,,###''''                  '''############,,,                           
         ,,##''                                '''############,,,,        ,,,,,,###''
      ,#''                                            '''#######################'''  
     '                                                          ''''####''''         
             ,#######,   #######,   ,#######,      ##                                
            ,#'     '#,  ##    ##  ,#'     '#,    #''#        ,####,   ,####,        
            ##       ##  ##   ,#'  ##            #'  '#       #'       #'  '#        
            ##       ##  #######   ##           ,######,      #####,   #    #        
            '#,     ,#'  ##    ##  '#,     ,#' ,#      #,     #,   #   #,  ,#        
             '#######'   ##     ##  '#######'  #'      '#     '####' # '####'        



                #########################################################
                #                        -***-                          #
                #          Department of theory and spectroscopy        #
                #                                                       #
                #                      Frank Neese                      #
                #                                                       #
                #     Directorship, Architecture, Infrastructure        #
                #                    SHARK, DRIVERS                     #
                #        Core code/Algorithms in most modules           #
                #                                                       #
                #        Max Planck Institute fuer Kohlenforschung      #
                #                Kaiser Wilhelm Platz 1                 #
                #                 D-45470 Muelheim/Ruhr                 #
                #                      Germany                          #
                #                                                       #
                #                  All rights reserved                  #
                #                        -***-                          #
                #########################################################


                         Program Version 6.0.1  -  RELEASE   -


 With contributions from (in alphabetic order):
[Max-Planck-Institut fuer Kohlenforschung]                               
  Daniel Aravena         : Magnetic Suceptibility                        
  Michael Atanasov       : Ab Initio Ligand Field Theory (pilot matlab implementation)
  Alexander A. Auer      : GIAO ZORA, VPT2 properties, NMR spectrum      
  Ute Becker             : All parallelization in ORCA, NUMFREQ, NUMCALC 
  Giovanni Bistoni       : ED, misc. LED, open-shell LED, HFLD           
  Martin Brehm           : Molecular dynamics                            
  Dmytro Bykov           : pre 5.0 version of the SCF Hessian            
  Marcos Casanova-Páez   : Triplet and SCS-CIS(D). UHF-(DLPNO)-IP/EA/STEOM-CCSD. UHF-CVS-IP/STEOM-CCSD   
  Vijay G. Chilkuri      : MRCI spin determinant printing, contributions to CSF-ICE 
  Pauline Colinet        : FMM embedding                                 
  Dipayan Datta          : RHF DLPNO-CCSD density                        
  Achintya Kumar Dutta   : EOM-CC, STEOM-CC                              
  Nicolas Foglia         : Exact transition moments, OPA infrastructure, MCD improvements    
  Dmitry Ganyushin       : Spin-Orbit,Spin-Spin,Magnetic field MRCI      
  Miquel Garcia-Rates    : C-PCM and meta-GGA Hessian, CCSD/C-PCM, Gaussian charge scheme 
  Tiago L. C. Gouveia    : GS-ROHF, GS-ROCIS                             
  Yang Guo               : DLPNO-NEVPT2, F12-NEVPT2, CIM, IAO-localization        
  Andreas Hansen         : Spin unrestricted coupled pair/coupled cluster methods 
  Ingolf Harden          : AUTO-CI MPn and infrastructure                
  Benjamin Helmich-Paris : MC-RPA, TRAH-(SCF,CASSCF), AVAS, COSX integrals, SCF dyn. polar. 
  Lee Huntington         : MR-EOM, pCC                                   
  Robert Izsak           : Overlap fitted RIJCOSX, COSX-SCS-MP3, EOM     
  Riya Kayal             : Wick's Theorem for AUTO-CI, AUTO-CI UHF-CCSDT 
  Emily Kempfer          : AUTO-CI, RHF CISDT and CCSDT                  
  Christian Kollmar      : KDIIS, OOCD, Brueckner-CCSD(T), CCSD density, CASPT2, CASPT2-K, improved NEVPT2 
  Axel Koslowski         : Symmetry handling                             
  Simone Kossmann        : meta-GGA functionals, TD-DFT gradient, OOMP2, (MP2 Hessian; deprecated post 5.0) 
  Lucas Lang             : DCDCAS                                        
  Marvin Lechner         : AUTO-CI (C++ implementation), FIC-MRCC        
  Spencer Leger          : CASSCF response                               
  Dagmar Lenk            : GEPOL surface, SMD, ORCA-2-JSON               
  Dimitrios Liakos       : Extrapolation schemes; Compound Job, initial MDCI parallelization 
  Dimitrios Manganas     : Further ROCIS development; embedding schemes. LFT, Crystal Embedding 
  Dimitrios Pantazis     : SARC Basis sets                               
  Anastasios Papadopoulos: AUTO-CI, single reference methods and gradients 
  Taras Petrenko         : pre 6.0 DFT Hessian and TD-DFT gradient, (ASA, deprecated), ECA, 1-Electron XAS/XES, NRVS 
  Peter Pinski           : DLPNO-MP2, DLPNO-MP2 Gradient                 
  Christoph Reimann      : Effective Core Potentials                     
  Marius Retegan         : Local ZFS, SOC                                
  Christoph Riplinger    : Optimizer, TS searches, QM/MM, DLPNO-CCSD(T), (RO)-DLPNO pert. Triples 
  Michael Roemelt        : Original ROCIS implementation                 
  Masaaki Saitow         : Open-shell DLPNO-CCSD energy and density      
  Barbara Sandhoefer     : DKH picture change effects                    
  Kantharuban Sivalingam : CASSCF convergence/infrastructure, NEVPT2 and variants, FIC-MRCI 
  Bernardo de Souza      : ESD, SOC TD-DFT                               
  Georgi L. Stoychev     : AutoAux, RI-MP2 NMR, DLPNO-MP2 response, X2C  
  Van Anh Tran           : RI-MP2 g-tensors                              
  Willem Van den Heuvel  : Paramagnetic NMR                              
  Zikuan Wang            : NOTCH, Electric field optimization            
  Frank Wennmohs         : Technical directorship and infrastructure     
  Hang Xu                : AUTO-CI-Response properties                   
                                                                         
[FACCTs GmbH]                                                            
  Markus Bursch, Miquel Garcia-Rates, Christoph Riplinger, Bernardo de Souza, Georgi L. Stoychev 
                                                                 
  APM, Basis sets (HGBS, AHGBS, def-TZVP (Ac-Lr), def2-XVPD (La-Lu)), CI-OPT, improved COSX, DLPNO-Multilevel,           
  DOCKER, DRACO, updates on ESD, GOAT, IRC, LR-CPCM, MBIS, meta-GGA TD-DFT gradient, ML-optimized integration grids, 
  MM, NACMEs, nearIR, NEB, NEB-TS, NL-DFT gradient (VV10), 2- and 3-layer-ONIOM, interface openCOSMO-RS, QMMM,   
  Crystal-QMMM, SF, symmetry and pop. for TD-DFT, r2SCAN hybrids, SOLVATOR                                   
                                                                         
[Other institutions]                                                     
  V. Asgeirsson          : NEB                                           
  Christoph Bannwarth    : sTDA-DFT, sTD-DFT, PBEh-3c, B97-3c, D3        
  Sebastian Ehlert       : rSCAN, r2SCAN, r2SCAN-3c, D4, dhf basis sets  
  Marvin Friede          : D4 for Fr, Ra, Ac-Lr                          
  Lars Goerigk           : TD-DFT with DH, B97 family of functionals     
  Stefan Grimme          : VdW corrections, initial TS optimization, DFT functionals, gCP, sTDA/sTD-DF 
  Waldemar Hujo          : DFT-NL                                        
  H. Jonsson             : NEB                                           
  Holger Kruse           : gCP                                           
  Marcel Mueller         : wB97X-3c, vDZP basis set                      
  Hagen Neugebauer       : wr2SCAN                                       
  Tobias Risthaus        : range-separated hybrid DFT                    
  Lukas Wittmann         : regularized MP2, r2SCAN double-hybrids, wr2SCAN        
                                                                         
We gratefully acknowledge several colleagues who have allowed us to      
interface, adapt or use parts of their codes:                            
  Ed Valeev, F. Pavosevic, A. Kumar             : LibInt (2-el integral package), F12 methods 
  Garnet Chan, S. Sharma, J. Yang, R. Olivares  : DMRG                   
  Ulf Ekstrom                                   : XCFun DFT Library      
  Mihaly Kallay                                 : mrcc  (arbitrary order and MRCC methods)
  Frank Weinhold                                : gennbo (NPA and NBO analysis)           
  Simon Mueller                                 : openCOSMO-RS                            
  Christopher J. Cramer and Donald G. Truhlar   : smd solvation model                     
  S Lehtola, MJT Oliveira, MAL Marques          : LibXC Library                           
  Liviu Ungur et al                             : ANISO software                          


 Your calculation uses the libint2 library for the computation of 2-el integrals
 For citations please refer to: http://libint.valeyev.net

 Your ORCA version has been built with support for libXC version: 6.2.2
 For citations please refer to: https://libxc.gitlab.io

 This ORCA versions uses:
   CBLAS   interface :  Fast vector & matrix operations
   LAPACKE interface :  Fast linear algebra routines
   SCALAPACK package :  Parallel linear algebra routines
   Shared memory     :  Shared parallel matrices
   BLAS/LAPACK       :  OpenBLAS 0.3.27  USE64BITINT DYNAMIC_ARCH NO_AFFINITY Zen SINGLE_THREADED
        Core in use  :  Zen
   Copyright (c) 2011-2014, The OpenBLAS Project




***************************************
The coordinates will be read from file: xtb_opt.xyz
***************************************


Your calculation utilizes the geometrical counterpoise correction gCP
Please cite in your paper:
H.Kruse, S. Grimme J.Chem.Phys., 136, (2012), 154101 
   

Your calculation utilizes the atom-pairwise dispersion correction
based on EEQ partial charges (D4)


================================================================================

----- Orbital basis set information -----
Your calculation utilizes the basis: def2-mTZVPP
   Stefan Grimme, Andreas Hansen, Sebastian Ehlert, and Jan-Michael Mewes 
   J. Chem. Phys. 154, 064103 (2021). DOI: 10.1063/5.0040021

----- AuxJ basis set information -----
Your calculation utilizes the auxiliary basis: def2/J
   F. Weigend, Phys. Chem. Chem. Phys. 8, 1057 (2006).

================================================================================
                                        WARNINGS
                       Please study these warnings very carefully!
================================================================================

WARNING: Old DensityContainer found on disk!
         Will remove this file - 
         If you want to keep old densities, please start your calculation with a different basename. 



WARNING: SCAN, rSCAN, or r2SCAN functional requested.
  ===> : libXC variant has now been activated.



================================================================================
                                       INPUT FILE
================================================================================
NAME = xtb_opt.inp
|  1> ! r2scan-3c def2/J RI DEFGRID2 scfconv7 ENGRAD tightSCF miniprint
|  2> * xyzfile 0 1 xtb_opt.xyz
|  3> 
|  4>                          ****END OF INPUT****
================================================================================

                     *******************************
                     * Energy+Gradient Calculation *
                     *******************************

---------------------------------
CARTESIAN COORDINATES (ANGSTROEM)
---------------------------------
  C      3.565206    0.690950   -0.000139
  C      3.565219   -0.691001   -0.000071
  C      2.366180   -1.385949    0.000005
  C      1.165038   -0.697921    0.000148
  C      1.165034    0.697985   -0.000016
  C      2.366151    1.385932   -0.000213
  O      0.000008    1.428718    0.000195
  C     -1.165026    0.697976    0.000045
  C     -2.366209    1.385958    0.000111
  C     -3.565259    0.690923   -0.000006
  C     -3.565210   -0.691031   -0.000289
  C     -2.366131   -1.385978   -0.000304
  C     -1.164996   -0.697919   -0.000040
  O      0.000000   -1.428648    0.000447
  H      4.495859    1.236524   -0.000518
  H      4.495823   -1.236580   -0.000184
  H      2.339851   -2.463853    0.000046
  H      2.339839    2.463845   -0.000464
  H     -2.339922    2.463840    0.000335
  H     -4.495974    1.236371    0.000516
  H     -4.495891   -1.236515   -0.000258
  H     -2.339684   -2.463857   -0.000500

----------------------------
CARTESIAN COORDINATES (A.U.)
----------------------------
  NO LB      ZA    FRAG     MASS         X           Y           Z
   0 C     6.0000    0    12.011    6.737263    1.305706   -0.000263
   1 C     6.0000    0    12.011    6.737288   -1.305802   -0.000134
   2 C     6.0000    0    12.011    4.471432   -2.619063    0.000009
   3 C     6.0000    0    12.011    2.201603   -1.318879    0.000279
   4 C     6.0000    0    12.011    2.201595    1.319001   -0.000031
   5 C     6.0000    0    12.011    4.471377    2.619032   -0.000403
   6 O     8.0000    0    15.999    0.000015    2.699885    0.000369
   7 C     6.0000    0    12.011   -2.201579    1.318984    0.000085
   8 C     6.0000    0    12.011   -4.471486    2.619080    0.000210
   9 C     6.0000    0    12.011   -6.737363    1.305655   -0.000011
  10 C     6.0000    0    12.011   -6.737270   -1.305859   -0.000546
  11 C     6.0000    0    12.011   -4.471340   -2.619119   -0.000575
  12 C     6.0000    0    12.011   -2.201523   -1.318877   -0.000075
  13 O     8.0000    0    15.999    0.000000   -2.699753    0.000846
  14 H     1.0000    0     1.008    8.495943    2.336692   -0.000979
  15 H     1.0000    0     1.008    8.495873   -2.336797   -0.000348
  16 H     1.0000    0     1.008    4.421678   -4.656007    0.000088
  17 H     1.0000    0     1.008    4.421656    4.655993   -0.000876
  18 H     1.0000    0     1.008   -4.421811    4.655982    0.000633
  19 H     1.0000    0     1.008   -8.496160    2.336402    0.000976
  20 H     1.0000    0     1.008   -8.496004   -2.336674   -0.000488
  21 H     1.0000    0     1.008   -4.421362   -4.656015   -0.000945

------------------------------------------------------------------------------
                   ___                                                        
                  /   \      - P O W E R E D   B Y -                         
                 /     \                                                     
                 |  |  |   _    _      __       _____    __    __             
                 |  |  |  | |  | |    /  \     |  _  \  |  |  /  |          
                  \  \/   | |  | |   /    \    | | | |  |  | /  /          
                 / \  \   | |__| |  /  /\  \   | |_| |  |  |/  /          
                |  |  |   |  __  | /  /__\  \  |    /   |      \           
                |  |  |   | |  | | |   __   |  |    \   |  |\   \          
                \     /   | |  | | |  |  |  |  | |\  \  |  | \   \       
                 \___/    |_|  |_| |__|  |__|  |_| \__\ |__|  \__/        
                                                                              
                      - O R C A' S   B I G   F R I E N D -                    
                                      &                                       
                       - I N T E G R A L  F E E D E R -                       
                                                                              
 v1 FN, 2020, v2 2021, v3 2022-2024                                           
------------------------------------------------------------------------------


----------------------
SHARK INTEGRAL PACKAGE
----------------------

Number of atoms                             ...     22
Number of basis functions                   ...    316
Number of shells                            ...    152
Maximum angular momentum                    ...      2
Integral batch strategy                     ... SHARK/LIBINT Hybrid
RI-J (if used) integral strategy            ... SPLIT-RIJ (Revised 2003 algorithm where possible)
Printlevel                                  ...      1
Contraction scheme used                     ... SEGMENTED contraction
Prescreening option                         ... SCHWARTZ
   Thresh                                   ... 3.000e-11
   Tcut                                     ... 1.000e-12
   Tpresel                                  ... 1.000e-12 
Coulomb Range Separation                    ... NOT USED
Exchange Range Separation                   ... NOT USED
Multipole approximations                    ... NOT USED
Finite Nucleus Model                        ... NOT USED
CABS basis                                  ... NOT available
Auxiliary Coulomb fitting basis             ... AVAILABLE
   # of basis functions in Aux-J            ...    774
   # of shells in Aux-J                     ...    250
   Maximum angular momentum in Aux-J        ...      4
Auxiliary J/K fitting basis                 ... NOT available
Auxiliary Correlation fitting basis         ... NOT available
Auxiliary 'external' fitting basis          ... NOT available

Checking pre-screening integrals            ... done (  0.0 sec) Dimension = 152
Check shell pair data                       ... done (  0.0 sec)
Shell pair information
Shell pair cut-off parameter TPreSel        ...   1.0e-12
Total number of shell pairs                 ...     11628
Shell pairs after pre-screening             ...      9616
Total number of primitive shell pairs       ...     43697
Primitive shell pairs kept                  ...     24112
          la=0 lb=0:   2915 shell pairs
          la=1 lb=0:   3628 shell pairs
          la=1 lb=1:   1137 shell pairs
          la=2 lb=0:   1118 shell pairs
          la=2 lb=1:    700 shell pairs
          la=2 lb=2:    118 shell pairs

Calculating one electron integrals          ... done (  0.0 sec)
Calculating RI/J V-Matrix + Cholesky decomp.... done (  0.0 sec)
Calculating Nuclear repulsion               ... done (  0.0 sec) ENN=    819.234361922235 Eh

Diagonalization of the overlap matrix:
Smallest eigenvalue                        ... 1.834e-05
Time for diagonalization                   ...    0.007 sec
Threshold for overlap eigenvalues          ... 1.000e-07
Number of eigenvalues below threshold      ... 0
Time for construction of square roots      ...    0.003 sec
Total time needed                          ...    0.010 sec

-------------------
DFT GRID GENERATION
-------------------

General Integration Accuracy     IntAcc      ... 4.388
Radial Grid Type                 RadialGrid  ... OptM3 with GC (2021)
Angular Grid (max. ang.)         AngularGrid ... 4 (Lebedev-302)
Angular grid pruning method      GridPruning ... 4 (adaptive)
Weight generation scheme         WeightScheme... mBecke (2022)
Basis function cutoff            BFCut       ... 1.0000e-11
Integration weight cutoff        WCut        ... 1.0000e-14
Partially contracted basis set               ... off
Rotationally invariant grid construction     ... off
Angular grids for H and He will be reduced by one unit
Diffuse basis detected: some atoms will have their outermost
                        angular grid increased by 1.

Total number of grid points                  ...   110070
Total number of batches                      ...     1730
Average number of points per batch           ...       63
Average number of grid points per atom       ...     5003
Initializing property integral containers    ... done (  0.0 sec)

SHARK setup successfully completed in   0.9 seconds

Maximum memory used throughout the entire STARTUP-calculation: 55.2 MB
Occupation numbers will be reassigned to an Aufbau configuration
             **** ENERGY FILE WAS UPDATED (xtb_opt.en.tmp) ****
Finished Guess after   0.1 sec
Maximum memory used throughout the entire GUESS-calculation: 26.7 MB
----------------------------------------D-I-I-S--------------------------------------------
Iteration    Energy (Eh)           Delta-E    RMSDP     MaxDP     DIISErr   Damp  Time(sec)
-------------------------------------------------------------------------------------------
               ***  Starting incremental Fock matrix formation  ***
                              *** Initializing SOSCF ***
---------------------------------------S-O-S-C-F--------------------------------------
Iteration    Energy (Eh)           Delta-E    RMSDP     MaxDP     MaxGrad    Time(sec)
--------------------------------------------------------------------------------------
    1    -612.3920491185177752     0.00e+00  2.72e-06  7.61e-05  1.60e-05     2.6
               *** Restarting incremental Fock matrix formation ***
    2    -612.3920490993835983     1.91e-08  4.10e-06  1.20e-04  4.76e-05     2.6
    3    -612.3920488891125160     2.10e-07  2.97e-06  7.33e-05  9.94e-05     1.9
    4    -612.3920491605341567    -2.71e-07  1.90e-06  5.37e-05  8.38e-06     1.8
                  *** Gradient check signals convergence ***

               *****************************************************
               *                     SUCCESS                       *
               *           SCF CONVERGED AFTER   4 CYCLES          *
               *****************************************************

             **** ENERGY FILE WAS UPDATED (xtb_opt.en.tmp) ****

----------------
TOTAL SCF ENERGY
----------------

Total Energy       :       -612.39204916053416 Eh          -16664.03484 eV

Components:
Nuclear Repulsion  :        819.23436192223483 Eh           22292.50032 eV
Electronic Energy  :      -1431.62641108276898 Eh          -38956.53516 eV
One Electron Energy:      -2455.51085487720729 Eh          -66817.84731 eV
Two Electron Energy:       1023.88444379443831 Eh           27861.31216 eV

Virial components:
Potential Energy   :      -1222.40409014708712 Eh          -33263.30637 eV
Kinetic Energy     :        610.01204098655296 Eh           16599.27153 eV
Virial Ratio       :          2.00390157572977

DFT components:
N(Alpha)           :       48.000023559874 electrons
N(Beta)            :       48.000023559874 electrons
N(Total)           :       96.000047119748 electrons
E(X)               :      -81.987405320514 Eh       
E(C)               :       -3.167811303007 Eh       
E(XC)              :      -85.155216623521 Eh       

---------------
SCF CONVERGENCE
---------------

  Last Energy change         ...    2.7142e-07  Tolerance :   1.0000e-07
  Last MAX-Density change    ...    5.3714e-05  Tolerance :   1.0000e-07
  Last RMS-Density change    ...    1.8997e-06  Tolerance :   5.0000e-09
  Last DIIS Error            ...    1.0835e-04  Tolerance :   1.0000e-07
  Last Orbital Gradient      ...    8.3842e-06  Tolerance :   1.0000e-04
  Last Orbital Rotation      ...    5.6678e-05  Tolerance :   1.0000e-04


----------------
ORBITAL ENERGIES
----------------

  NO   OCC          E(Eh)            E(eV) 
   0   2.0000     -19.014373      -517.4074 
   1   2.0000     -19.014366      -517.4072 
   2   2.0000     -10.109853      -275.1031 
   3   2.0000     -10.109842      -275.1028 
   4   2.0000     -10.109433      -275.0917 
   5   2.0000     -10.109426      -275.0915 
   6   2.0000     -10.044244      -273.3178 
   7   2.0000     -10.044237      -273.3176 
   8   2.0000     -10.044231      -273.3174 
   9   2.0000     -10.044228      -273.3173 
  10   2.0000     -10.040941      -273.2279 
  11   2.0000     -10.040939      -273.2279 
  12   2.0000     -10.040467      -273.2150 
  13   2.0000     -10.040466      -273.2150 
  14   2.0000      -1.083680       -29.4884 
  15   2.0000      -1.050287       -28.5798 
  16   2.0000      -0.850426       -23.1413 
  17   2.0000      -0.823546       -22.4098 
  18   2.0000      -0.750444       -20.4206 
  19   2.0000      -0.741987       -20.1905 
  20   2.0000      -0.716831       -19.5060 
  21   2.0000      -0.697758       -18.9869 
  22   2.0000      -0.633580       -17.2406 
  23   2.0000      -0.614525       -16.7221 
  24   2.0000      -0.580960       -15.8087 
  25   2.0000      -0.563961       -15.3462 
  26   2.0000      -0.546709       -14.8767 
  27   2.0000      -0.491103       -13.3636 
  28   2.0000      -0.482682       -13.1344 
  29   2.0000      -0.451638       -12.2897 
  30   2.0000      -0.450941       -12.2707 
  31   2.0000      -0.449146       -12.2219 
  32   2.0000      -0.420453       -11.4411 
  33   2.0000      -0.414935       -11.2909 
  34   2.0000      -0.410619       -11.1735 
  35   2.0000      -0.387931       -10.5561 
  36   2.0000      -0.385470       -10.4892 
  37   2.0000      -0.366429        -9.9710 
  38   2.0000      -0.361690        -9.8421 
  39   2.0000      -0.358515        -9.7557 
  40   2.0000      -0.337883        -9.1943 
  41   2.0000      -0.337839        -9.1931 
  42   2.0000      -0.316833        -8.6215 
  43   2.0000      -0.303856        -8.2683 
  44   2.0000      -0.252041        -6.8584 
  45   2.0000      -0.250588        -6.8189 
  46   2.0000      -0.226432        -6.1615 
  47   2.0000      -0.183838        -5.0025 
  48   0.0000      -0.045747        -1.2449 
  49   0.0000      -0.039203        -1.0668 
  50   0.0000      -0.036724        -0.9993 
  51   0.0000      -0.002196        -0.0598 
  52   0.0000       0.033482         0.9111 
  53   0.0000       0.082040         2.2324 
  54   0.0000       0.095853         2.6083 
  55   0.0000       0.116215         3.1624 
  56   0.0000       0.119335         3.2473 
  57   0.0000       0.121904         3.3172 
  58   0.0000       0.127163         3.4603 
*Only the first 10 virtual orbitals were printed.
Total SCF time: 0 days 0 hours 0 min 9 sec 
Finished LeanSCF after   9.2 sec

Maximum memory used throughout the entire LEANSCF-calculation: 38.9 MB


-------------------------------------------------------------------------------
                          DFT DISPERSION CORRECTION                            
                                                                               
                                DFTD4 V3.4.0                                   
-------------------------------------------------------------------------------
-------------------------   ----------------
Dispersion correction           -0.009230956
-------------------------   ----------------

------------------   -----------------
gCP correction             0.006414520
------------------   -----------------

-------------------------   --------------------
FINAL SINGLE POINT ENERGY      -612.394865596781
-------------------------   --------------------

------------------------------------------------------------------------------
                         ORCA SCF GRADIENT CALCULATION
------------------------------------------------------------------------------

Nuc. rep. gradient        (SHARK) ... done (  0.0 sec)
HCore & Overlap gradient  (SHARK) ... done (  0.4 sec)
Split-RIJ-J gradient      (SHARK) ... done (  2.6 sec)
XC gradient                       ... done (  6.8 sec)
Dispersion correction             ... done (  0.0 sec)

-------------------
DISPERSION GRADIENT
-------------------

   1   C   :    0.000102777    0.000033407   -0.000000009
   2   C   :    0.000102776   -0.000033409   -0.000000004
   3   C   :    0.000090606   -0.000081639    0.000000004
   4   C   :    0.000064686   -0.000044318    0.000000016
   5   C   :    0.000064685    0.000044324    0.000000004
   6   C   :    0.000090604    0.000081639   -0.000000013
   7   O   :    0.000000001    0.000085909    0.000000013
   8   C   :   -0.000064685    0.000044323    0.000000007
   9   C   :   -0.000090606    0.000081639    0.000000007
  10   C   :   -0.000102778    0.000033405    0.000000000
  11   C   :   -0.000102776   -0.000033409   -0.000000015
  12   C   :   -0.000090603   -0.000081642   -0.000000020
  13   C   :   -0.000064686   -0.000044319    0.000000000
  14   O   :   -0.000000002   -0.000085905    0.000000027
  15   H   :    0.000036751    0.000018306   -0.000000007
  16   H   :    0.000036750   -0.000018306   -0.000000002
  17   H   :    0.000024420   -0.000048600    0.000000003
  18   H   :    0.000024419    0.000048600   -0.000000009
  19   H   :   -0.000024419    0.000048600    0.000000007
  20   H   :   -0.000036751    0.000018303    0.000000007
  21   H   :   -0.000036751   -0.000018305   -0.000000005
  22   H   :   -0.000024418   -0.000048602   -0.000000011

Difference to translation invariance:
           :    0.0000000000   -0.0000000000   -0.0000000000

Difference to rotation invariance:
           :    0.0000000000   -0.0000000000    0.0000000000

Norm of the Dispersion gradient    ...    0.0004051471
RMS gradient                       ...    0.0000498702
MAX gradient                       ...    0.0001027776
gCP correction                   ... done

------------------
CARTESIAN GRADIENT
------------------

   1   C   :   -0.001897533   -0.002744135    0.000027358
   2   C   :   -0.001881330    0.002716130    0.000003083
   3   C   :    0.003369939    0.000740331   -0.000010081
   4   C   :   -0.001539199   -0.002930366    0.000005084
   5   C   :   -0.001509336    0.002970675   -0.000014204
   6   C   :    0.003306003   -0.000765392   -0.000000320
   7   O   :    0.000008734   -0.002550549    0.000002355
   8   C   :    0.001551524    0.002930275    0.000001319
   9   C   :   -0.003336887   -0.000703619    0.000004313
  10   C   :    0.001862540   -0.002738806   -0.000020856
  11   C   :    0.001874931    0.002730511   -0.000009062
  12   C   :   -0.003347400    0.000705948    0.000008931
  13   C   :    0.001570827   -0.002933716   -0.000011766
  14   O   :   -0.000020839    0.002552161    0.000015086
  15   H   :   -0.003331486   -0.002108418   -0.000010899
  16   H   :   -0.003358491    0.002118302   -0.000001912
  17   H   :    0.000316450    0.004573986   -0.000000788
  18   H   :    0.000311213   -0.004568672   -0.000004223
  19   H   :   -0.000314079   -0.004590119   -0.000001272
  20   H   :    0.003332233   -0.002120820    0.000017050
  21   H   :    0.003338425    0.002126723    0.000006022
  22   H   :   -0.000306236    0.004589573   -0.000005216

Difference to translation invariance:
           :   -0.0000000000   -0.0000000000   -0.0000000000

Difference to rotation invariance:
           :   -0.0000004701   -0.0000003709   -0.0000001297

Norm of the Cartesian gradient     ...    0.0171694129
RMS gradient                       ...    0.0021134086
MAX gradient                       ...    0.0045901185

-------
TIMINGS
-------

Total SCF gradient time     ....        9.838 sec

Densities                   ....       0.001 sec  (  0.0%)
One electron gradient       ....       0.402 sec  (  4.1%)
RI-J Coulomb gradient       ....       2.580 sec  ( 26.2%)
XC gradient                 ....       6.837 sec  ( 69.5%)

Maximum memory used throughout the entire SCFGRAD-calculation: 46.3 MB

------------------------------------------------------------------------------
                              ORCA PROPERTY CALCULATIONS
------------------------------------------------------------------------------

GBWName                                 ... xtb_opt.gbw
Number of atoms                         ...     22
Number of basis functions               ...    316
Max core memory                         ...   1024 MB

Electric properties:
Dipole moment                           ... YES
Quadrupole moment                       ...  NO
Static polarizability (Dipole/Dipole)   ...  NO
Static polarizability (Dipole/Quad.)    ...  NO
Static polarizability (Quad./Quad.)     ...  NO
Static polarizability (Velocity)        ...  NO

Atomic electric properties:
Dipole moment                           ...  NO
Quadrupole moment                       ...  NO
Static polarizability                   ...  NO

Choice of electric origin               ... Center of mass
Position of electric origin             ...    -0.000000    -0.000000    -0.000000

General magnetic properties:
Magnetizability                         ...  NO

EPR properties:
g-Tensor (aka g-matrix)                 ...  NO
Zero-Field splitting spin-orbit         ...  NO
Zero-field splitting spin-spin          ...  NO
Hyperfine couplings                     ...  NO (   0 nuclei)
Quadrupole couplings                    ...  NO (   0 nuclei)
Contact density                         ...  NO (   0 nuclei)

NMR properties:
Chemical shifts                         ...  NO (   0 nuclei)
Spin-rotation constants                 ...  NO (   0 nuclei)
Spin-spin couplings                     ...  NO (   0 nuclei,    0 pairs)

Choice of magnetic origin               ... GIAO
Position of magnetic origin             ...     0.000000     0.000000     0.000000

Properties with geometric perturbations:
SCF Hessian                             ...  NO
IR spectrum                             ...  NO
VCD spectrum                            ...  NO
X-ray spectroscopy properties:
SCF XES/XAS/RIXS spectra                ...  NO


-------------
DIPOLE MOMENT
-------------

Method             : SCF
Type of density    : Electron Density
Multiplicity       :   1
Irrep              :   0
Energy             :  -612.3920491605341567 Eh
Relativity type    : 
Basis              : AO
                                X                 Y                 Z
Electronic contribution:      0.000175418       0.000165067       0.000854713
Nuclear contribution   :     -0.000092657      -0.000209688      -0.000953884
                        -----------------------------------------
Total Dipole Moment    :      0.000082761      -0.000044621      -0.000099171
                        -----------------------------------------
Magnitude (a.u.)       :      0.000136658
Magnitude (Debye)      :      0.000347357



--------------------
Rotational spectrum 
--------------------
 
Rotational constants in cm-1:             0.071862             0.016079             0.013139 
Rotational constants in MHz :          2154.383484           482.026685           393.895591 

Dipole components along the rotational axes: 
x,y,z [a.u.] :    -0.000083    -0.000045    -0.000099 
x,y,z [Debye]:    -0.000210    -0.000113    -0.000252 

 

Dipole moment calculation done in   0.0 sec 

Maximum memory used throughout the entire PROP-calculation: 25.3 MB

--------------------------------
SUGGESTED CITATIONS FOR THIS RUN
--------------------------------

Below you find a list of papers that are relevant to this ORCA run
We neither can nor want to force you to cite these papers, but we appreciate if you do
You receive ORCA, which is the product of decades of hard work by many enthusiastic individuals, for free
The only thing we kindly ask in return is that you cite our papers,
We deeply appreciate it, if you show your appreciation for ORCA by not just citing the generic ORCA reference.

Please note that relegating all ORCA citations to the supporting information does *not* help us.
SI sections are not indexed - citations you put there will not count into any citation statistics
But we need these citations in order to attract the funding resources that allow us to do what we are doing

Therefore, if you are a happy ORCA user, please consider citing a few of the papers listed below in the main body of your paper

In addition to the list printed below, the program has created the file xtb_opt.bibtex that contains the list in bibtex format
You can import this file easily into all common literature databanks and citation aid programs


List of essential papers. We consider these as the minimum necessary citations

  1. Neese,F.
     Software update: the ORCA program system, version 5.0
     WIRES Comput. Molec. Sci., 2022 12(1)e1606
     doi.org/10.1002/wcms.1606
  2. Grimme,S.; Hansen,A.; Ehlert,S.; Mewes,J.
     r2SCAN-3c: A 'Swiss army knife' composite electronic-structure method
     J. Chem. Phys., 2021 154 064103
     doi.org/10.1063/5.0040021

List of papers to cite with high priority. The work reported in these papers was absolutely
necessary for this run to complete.
Our perspective: the developers of density functionals and basis sets usually get cited in chemistry papers
Good! But without the algorithms to do something with them, the functionals or basis sets would not do anything.
Hence, in our opinion, the algorithm design and method developments papers are equally worthy of getting cited

  1. Neese,F.
     An improvement of the resolution of the identity approximation for the formation of the Coulomb matrix
     J. Comp. Chem., 2003 24(14)1740-1747
     doi.org/10.1002/jcc.10318
  2. Neese,F.
     The SHARK Integral Generation and Digestion System
     J. Comp. Chem., 2022  1-16
     doi.org/10.1002/jcc.26942
  3. Lehtola,S.; Steigemann,C.; Oliveira,M.; Marques,M.
     Recent developments in Libxc - A comprehensive library of functionals for density functional theory
     Software X, 2018 7 
     doi.org/10.1016/j.softx.2017.11.002
  4. Caldeweyher,E.; Bannwarth,C.; Grimme,S.
     Extension of the D3 dispersion coefficient model
     J. Chem. Phys., 2017 147 034112
     doi.org/10.1063/1.4993215
  5. Caldeweyher,E.; Ehlert,S.; Hansen,A.; Neugebauer,H.; Spicher,S.; Bannwarth,C.; Grimme,S.
     A generally applicable atomic-charge dependent London dispersion correction
     J. Chem. Phys., 2019 150 154122
     doi.org/10.1063/1.5090222
  6. Caldeweyher,E.; Mewes,J.; Ehlert,S.; Grimme,S.
     Extension and evaluation of the D4 London-dispersion model for periodic systems
     Phys. Chem. Chem. Phys., 2020 22(16)8499-8512
     doi.org/10.1039/D0CP00502A
  7. Wittmann,L.; Gordiy,I.; Friede,M.; Helmich-Paris,B.; Grimme,S.; Hansen,A.; Bursch,M.
     Extension of the D3 and D4 London Dispersion Corrections to the full Actinides Series
     Phys. Chem. Chem. Phys., 2024 26(32)21379-21394
     doi.org/https://doi.org/10.1039/D4CP01514B 

List of suggested additional citations. These are papers that are important in the 'surrounding' of 
of this run, or papers that preceded the highly important papers. If you like your results we are grateful for a citation.

  1. Neese,F.
     The ORCA program system
     WIRES Comput. Molec. Sci., 2012 2(1)73-78
     doi.org/10.1002/wcms.81
  2. Neese,F.
     Software update: the ORCA program system, version 4.0
     WIRES Comput. Molec. Sci., 2018 8(1)1-6
     doi.org/10.1002/wcms.1327
  3. Neese,F.; Wennmohs,F.; Becker,U.; Riplinger,C.
     The ORCA quantum chemistry program package
     J. Chem. Phys., 2020 152 Art. No. L224108
     doi.org/10.1063/5.0004608

List of optional additional citations

  1. Neese,F.
     Approximate second-order SCF convergence for spin unrestricted wavefunctions
     Chem. Phys. Lett., 2000 325(1-3)93-98
     doi.org/10.1016/s0009-2614(00)00662-x

Timings for individual modules:

Sum of individual times          ...       20.104 sec (=   0.335 min)
Startup calculation              ...        0.890 sec (=   0.015 min)   4.4 %
SCF iterations                   ...        9.274 sec (=   0.155 min)  46.1 %
Property calculations            ...        0.050 sec (=   0.001 min)   0.2 %
SCF Gradient evaluation          ...        9.890 sec (=   0.165 min)  49.2 %
                             ****ORCA TERMINATED NORMALLY****
TOTAL RUN TIME: 0 days 0 hours 0 minutes 20 seconds 174 msec
  ------------------------------------------------------------------------
          * successful ORCA run, taking over control again...

         :::::::::::::::::::::::::::::::::::::::::::::::::::::
         ::                  ORCA SUMMARY                   ::
         :::::::::::::::::::::::::::::::::::::::::::::::::::::
         :: total energy            -612.394865596781 Eh    ::
         :: gradient norm              0.017169412880 Eh/a0 ::
         :: HOMO-LUMO gap              0.000000000000 eV    ::
         :::::::::::::::::::::::::::::::::::::::::::::::::::::

      ----------------------------------------------------------- 
     |                       L-ANC optimizer                     |
      ----------------------------------------------------------- 
          low memory version by Sebastian Ehlert

          ...................................................
          :                      SETUP                      :
          :.................................................:
          :   energy convergence        0.5000000E-05 Eh    :
          :   grad. convergence         0.1000000E-02 Eh/a0 :
          :   optimization log               true           :
          :   writing optlog all                1     steps :
          :   Hessian reset                    20     steps :
          :   maximium step len.        1.0000000     a0    :
          :   LBFGS images                     20           :
          ...................................................
 * calculating model hessian...
Using Lindh-Hessian (1995)
 Shifting diagonal of input Hessian by    1.0000000000000000E-002
 Lowest  eigenvalues of input Hessian
    0.000000    0.000000    0.000000    0.000000    0.000000    0.000000
    0.012931    0.013803    0.021638    0.026301    0.028604    0.029228
    0.033016    0.035038    0.050701    0.052074    0.052688    0.061102
 Highest eigenvalues
    1.901093    1.938738    2.073570    2.078523    2.138406    2.200309


........................................................................
.............................. CYCLE    1 ..............................
........................................................................
                         * ORCA takes the control...
  ------------------------------------------------------------------------

                                 *****************
                                 * O   R   C   A *
                                 *****************

                                            #,                                       
                                            ###                                      
                                            ####                                     
                                            #####                                    
                                            ######                                   
                                           ########,                                 
                                     ,,################,,,,,                         
                               ,,#################################,,                 
                          ,,##########################################,,             
                       ,#########################################, ''#####,          
                    ,#############################################,,   '####,        
                  ,##################################################,,,,####,       
                ,###########''''           ''''###############################       
              ,#####''   ,,,,##########,,,,          '''####'''          '####       
            ,##' ,,,,###########################,,,                        '##       
           ' ,,###''''                  '''############,,,                           
         ,,##''                                '''############,,,,        ,,,,,,###''
      ,#''                                            '''#######################'''  
     '                                                          ''''####''''         
             ,#######,   #######,   ,#######,      ##                                
            ,#'     '#,  ##    ##  ,#'     '#,    #''#        ,####,   ,####,        
            ##       ##  ##   ,#'  ##            #'  '#       #'       #'  '#        
            ##       ##  #######   ##           ,######,      #####,   #    #        
            '#,     ,#'  ##    ##  '#,     ,#' ,#      #,     #,   #   #,  ,#        
             '#######'   ##     ##  '#######'  #'      '#     '####' # '####'        



                #########################################################
                #                        -***-                          #
                #          Department of theory and spectroscopy        #
                #                                                       #
                #                      Frank Neese                      #
                #                                                       #
                #     Directorship, Architecture, Infrastructure        #
                #                    SHARK, DRIVERS                     #
                #        Core code/Algorithms in most modules           #
                #                                                       #
                #        Max Planck Institute fuer Kohlenforschung      #
                #                Kaiser Wilhelm Platz 1                 #
                #                 D-45470 Muelheim/Ruhr                 #
                #                      Germany                          #
                #                                                       #
                #                  All rights reserved                  #
                #                        -***-                          #
                #########################################################


                         Program Version 6.0.1  -  RELEASE   -


 With contributions from (in alphabetic order):
[Max-Planck-Institut fuer Kohlenforschung]                               
  Daniel Aravena         : Magnetic Suceptibility                        
  Michael Atanasov       : Ab Initio Ligand Field Theory (pilot matlab implementation)
  Alexander A. Auer      : GIAO ZORA, VPT2 properties, NMR spectrum      
  Ute Becker             : All parallelization in ORCA, NUMFREQ, NUMCALC 
  Giovanni Bistoni       : ED, misc. LED, open-shell LED, HFLD           
  Martin Brehm           : Molecular dynamics                            
  Dmytro Bykov           : pre 5.0 version of the SCF Hessian            
  Marcos Casanova-Páez   : Triplet and SCS-CIS(D). UHF-(DLPNO)-IP/EA/STEOM-CCSD. UHF-CVS-IP/STEOM-CCSD   
  Vijay G. Chilkuri      : MRCI spin determinant printing, contributions to CSF-ICE 
  Pauline Colinet        : FMM embedding                                 
  Dipayan Datta          : RHF DLPNO-CCSD density                        
  Achintya Kumar Dutta   : EOM-CC, STEOM-CC                              
  Nicolas Foglia         : Exact transition moments, OPA infrastructure, MCD improvements    
  Dmitry Ganyushin       : Spin-Orbit,Spin-Spin,Magnetic field MRCI      
  Miquel Garcia-Rates    : C-PCM and meta-GGA Hessian, CCSD/C-PCM, Gaussian charge scheme 
  Tiago L. C. Gouveia    : GS-ROHF, GS-ROCIS                             
  Yang Guo               : DLPNO-NEVPT2, F12-NEVPT2, CIM, IAO-localization        
  Andreas Hansen         : Spin unrestricted coupled pair/coupled cluster methods 
  Ingolf Harden          : AUTO-CI MPn and infrastructure                
  Benjamin Helmich-Paris : MC-RPA, TRAH-(SCF,CASSCF), AVAS, COSX integrals, SCF dyn. polar. 
  Lee Huntington         : MR-EOM, pCC                                   
  Robert Izsak           : Overlap fitted RIJCOSX, COSX-SCS-MP3, EOM     
  Riya Kayal             : Wick's Theorem for AUTO-CI, AUTO-CI UHF-CCSDT 
  Emily Kempfer          : AUTO-CI, RHF CISDT and CCSDT                  
  Christian Kollmar      : KDIIS, OOCD, Brueckner-CCSD(T), CCSD density, CASPT2, CASPT2-K, improved NEVPT2 
  Axel Koslowski         : Symmetry handling                             
  Simone Kossmann        : meta-GGA functionals, TD-DFT gradient, OOMP2, (MP2 Hessian; deprecated post 5.0) 
  Lucas Lang             : DCDCAS                                        
  Marvin Lechner         : AUTO-CI (C++ implementation), FIC-MRCC        
  Spencer Leger          : CASSCF response                               
  Dagmar Lenk            : GEPOL surface, SMD, ORCA-2-JSON               
  Dimitrios Liakos       : Extrapolation schemes; Compound Job, initial MDCI parallelization 
  Dimitrios Manganas     : Further ROCIS development; embedding schemes. LFT, Crystal Embedding 
  Dimitrios Pantazis     : SARC Basis sets                               
  Anastasios Papadopoulos: AUTO-CI, single reference methods and gradients 
  Taras Petrenko         : pre 6.0 DFT Hessian and TD-DFT gradient, (ASA, deprecated), ECA, 1-Electron XAS/XES, NRVS 
  Peter Pinski           : DLPNO-MP2, DLPNO-MP2 Gradient                 
  Christoph Reimann      : Effective Core Potentials                     
  Marius Retegan         : Local ZFS, SOC                                
  Christoph Riplinger    : Optimizer, TS searches, QM/MM, DLPNO-CCSD(T), (RO)-DLPNO pert. Triples 
  Michael Roemelt        : Original ROCIS implementation                 
  Masaaki Saitow         : Open-shell DLPNO-CCSD energy and density      
  Barbara Sandhoefer     : DKH picture change effects                    
  Kantharuban Sivalingam : CASSCF convergence/infrastructure, NEVPT2 and variants, FIC-MRCI 
  Bernardo de Souza      : ESD, SOC TD-DFT                               
  Georgi L. Stoychev     : AutoAux, RI-MP2 NMR, DLPNO-MP2 response, X2C  
  Van Anh Tran           : RI-MP2 g-tensors                              
  Willem Van den Heuvel  : Paramagnetic NMR                              
  Zikuan Wang            : NOTCH, Electric field optimization            
  Frank Wennmohs         : Technical directorship and infrastructure     
  Hang Xu                : AUTO-CI-Response properties                   
                                                                         
[FACCTs GmbH]                                                            
  Markus Bursch, Miquel Garcia-Rates, Christoph Riplinger, Bernardo de Souza, Georgi L. Stoychev 
                                                                 
  APM, Basis sets (HGBS, AHGBS, def-TZVP (Ac-Lr), def2-XVPD (La-Lu)), CI-OPT, improved COSX, DLPNO-Multilevel,           
  DOCKER, DRACO, updates on ESD, GOAT, IRC, LR-CPCM, MBIS, meta-GGA TD-DFT gradient, ML-optimized integration grids, 
  MM, NACMEs, nearIR, NEB, NEB-TS, NL-DFT gradient (VV10), 2- and 3-layer-ONIOM, interface openCOSMO-RS, QMMM,   
  Crystal-QMMM, SF, symmetry and pop. for TD-DFT, r2SCAN hybrids, SOLVATOR                                   
                                                                         
[Other institutions]                                                     
  V. Asgeirsson          : NEB                                           
  Christoph Bannwarth    : sTDA-DFT, sTD-DFT, PBEh-3c, B97-3c, D3        
  Sebastian Ehlert       : rSCAN, r2SCAN, r2SCAN-3c, D4, dhf basis sets  
  Marvin Friede          : D4 for Fr, Ra, Ac-Lr                          
  Lars Goerigk           : TD-DFT with DH, B97 family of functionals     
  Stefan Grimme          : VdW corrections, initial TS optimization, DFT functionals, gCP, sTDA/sTD-DF 
  Waldemar Hujo          : DFT-NL                                        
  H. Jonsson             : NEB                                           
  Holger Kruse           : gCP                                           
  Marcel Mueller         : wB97X-3c, vDZP basis set                      
  Hagen Neugebauer       : wr2SCAN                                       
  Tobias Risthaus        : range-separated hybrid DFT                    
  Lukas Wittmann         : regularized MP2, r2SCAN double-hybrids, wr2SCAN        
                                                                         
We gratefully acknowledge several colleagues who have allowed us to      
interface, adapt or use parts of their codes:                            
  Ed Valeev, F. Pavosevic, A. Kumar             : LibInt (2-el integral package), F12 methods 
  Garnet Chan, S. Sharma, J. Yang, R. Olivares  : DMRG                   
  Ulf Ekstrom                                   : XCFun DFT Library      
  Mihaly Kallay                                 : mrcc  (arbitrary order and MRCC methods)
  Frank Weinhold                                : gennbo (NPA and NBO analysis)           
  Simon Mueller                                 : openCOSMO-RS                            
  Christopher J. Cramer and Donald G. Truhlar   : smd solvation model                     
  S Lehtola, MJT Oliveira, MAL Marques          : LibXC Library                           
  Liviu Ungur et al                             : ANISO software                          


 Your calculation uses the libint2 library for the computation of 2-el integrals
 For citations please refer to: http://libint.valeyev.net

 Your ORCA version has been built with support for libXC version: 6.2.2
 For citations please refer to: https://libxc.gitlab.io

 This ORCA versions uses:
   CBLAS   interface :  Fast vector & matrix operations
   LAPACKE interface :  Fast linear algebra routines
   SCALAPACK package :  Parallel linear algebra routines
   Shared memory     :  Shared parallel matrices
   BLAS/LAPACK       :  OpenBLAS 0.3.27  USE64BITINT DYNAMIC_ARCH NO_AFFINITY Zen SINGLE_THREADED
        Core in use  :  Zen
   Copyright (c) 2011-2014, The OpenBLAS Project




***************************************
The coordinates will be read from file: xtb_opt.xyz
***************************************


Your calculation utilizes the geometrical counterpoise correction gCP
Please cite in your paper:
H.Kruse, S. Grimme J.Chem.Phys., 136, (2012), 154101 
   

Your calculation utilizes the atom-pairwise dispersion correction
based on EEQ partial charges (D4)


================================================================================

----- Orbital basis set information -----
Your calculation utilizes the basis: def2-mTZVPP
   Stefan Grimme, Andreas Hansen, Sebastian Ehlert, and Jan-Michael Mewes 
   J. Chem. Phys. 154, 064103 (2021). DOI: 10.1063/5.0040021

----- AuxJ basis set information -----
Your calculation utilizes the auxiliary basis: def2/J
   F. Weigend, Phys. Chem. Chem. Phys. 8, 1057 (2006).

================================================================================
                                        WARNINGS
                       Please study these warnings very carefully!
================================================================================

WARNING: Old DensityContainer found on disk!
         Will remove this file - 
         If you want to keep old densities, please start your calculation with a different basename. 



WARNING: SCAN, rSCAN, or r2SCAN functional requested.
  ===> : libXC variant has now been activated.



================================================================================
                                       INPUT FILE
================================================================================
NAME = xtb_opt.inp
|  1> ! r2scan-3c def2/J RI DEFGRID2 scfconv7 ENGRAD tightSCF miniprint
|  2> * xyzfile 0 1 xtb_opt.xyz
|  3> 
|  4>                          ****END OF INPUT****
================================================================================

                     *******************************
                     * Energy+Gradient Calculation *
                     *******************************

---------------------------------
CARTESIAN COORDINATES (ANGSTROEM)
---------------------------------
  C      3.572028    0.694249   -0.000308
  C      3.572030   -0.694256   -0.000161
  C      2.368076   -1.390597   -0.000004
  C      1.167894   -0.697904    0.000105
  C      1.167889    0.697936    0.000026
  C      2.368071    1.390600   -0.000228
  O     -0.000009    1.428525    0.000236
  C     -1.167906    0.697924    0.000108
  C     -2.368108    1.390594    0.000159
  C     -3.572047    0.694207    0.000085
  C     -3.572021   -0.694303   -0.000189
  C     -2.368059   -1.390632   -0.000254
  C     -1.167885   -0.697911    0.000015
  O     -0.000004   -1.428496    0.000354
  H      4.505850    1.242938   -0.000443
  H      4.505838   -1.242952   -0.000187
  H      2.338536   -2.473564    0.000067
  H      2.338551    2.473569   -0.000352
  H     -2.338602    2.473557    0.000318
  H     -4.505908    1.242825    0.000243
  H     -4.505864   -1.242948   -0.000326
  H     -2.338447   -2.473591   -0.000417

----------------------------
CARTESIAN COORDINATES (A.U.)
----------------------------
  NO LB      ZA    FRAG     MASS         X           Y           Z
   0 C     6.0000    0    12.011    6.750155    1.311941   -0.000582
   1 C     6.0000    0    12.011    6.750158   -1.311954   -0.000304
   2 C     6.0000    0    12.011    4.475015   -2.627848   -0.000008
   3 C     6.0000    0    12.011    2.207000   -1.318848    0.000198
   4 C     6.0000    0    12.011    2.206991    1.318908    0.000050
   5 C     6.0000    0    12.011    4.475006    2.627854   -0.000430
   6 O     8.0000    0    15.999   -0.000016    2.699521    0.000446
   7 C     6.0000    0    12.011   -2.207022    1.318885    0.000204
   8 C     6.0000    0    12.011   -4.475075    2.627843    0.000301
   9 C     6.0000    0    12.011   -6.750191    1.311861    0.000160
  10 C     6.0000    0    12.011   -6.750141   -1.312043   -0.000358
  11 C     6.0000    0    12.011   -4.474983   -2.627913   -0.000481
  12 C     6.0000    0    12.011   -2.206983   -1.318860    0.000029
  13 O     8.0000    0    15.999   -0.000007   -2.699466    0.000670
  14 H     1.0000    0     1.008    8.514822    2.348811   -0.000838
  15 H     1.0000    0     1.008    8.514801   -2.348838   -0.000354
  16 H     1.0000    0     1.008    4.419193   -4.674358    0.000126
  17 H     1.0000    0     1.008    4.419222    4.674368   -0.000664
  18 H     1.0000    0     1.008   -4.419316    4.674345    0.000600
  19 H     1.0000    0     1.008   -8.514932    2.348599    0.000459
  20 H     1.0000    0     1.008   -8.514848   -2.348832   -0.000617
  21 H     1.0000    0     1.008   -4.419024   -4.674410   -0.000789

------------------------------------------------------------------------------
                   ___                                                        
                  /   \      - P O W E R E D   B Y -                         
                 /     \                                                     
                 |  |  |   _    _      __       _____    __    __             
                 |  |  |  | |  | |    /  \     |  _  \  |  |  /  |          
                  \  \/   | |  | |   /    \    | | | |  |  | /  /          
                 / \  \   | |__| |  /  /\  \   | |_| |  |  |/  /          
                |  |  |   |  __  | /  /__\  \  |    /   |      \           
                |  |  |   | |  | | |   __   |  |    \   |  |\   \          
                \     /   | |  | | |  |  |  |  | |\  \  |  | \   \       
                 \___/    |_|  |_| |__|  |__|  |_| \__\ |__|  \__/        
                                                                              
                      - O R C A' S   B I G   F R I E N D -                    
                                      &                                       
                       - I N T E G R A L  F E E D E R -                       
                                                                              
 v1 FN, 2020, v2 2021, v3 2022-2024                                           
------------------------------------------------------------------------------


----------------------
SHARK INTEGRAL PACKAGE
----------------------

Number of atoms                             ...     22
Number of basis functions                   ...    316
Number of shells                            ...    152
Maximum angular momentum                    ...      2
Integral batch strategy                     ... SHARK/LIBINT Hybrid
RI-J (if used) integral strategy            ... SPLIT-RIJ (Revised 2003 algorithm where possible)
Printlevel                                  ...      1
Contraction scheme used                     ... SEGMENTED contraction
Prescreening option                         ... SCHWARTZ
   Thresh                                   ... 3.000e-11
   Tcut                                     ... 1.000e-12
   Tpresel                                  ... 1.000e-12 
Coulomb Range Separation                    ... NOT USED
Exchange Range Separation                   ... NOT USED
Multipole approximations                    ... NOT USED
Finite Nucleus Model                        ... NOT USED
CABS basis                                  ... NOT available
Auxiliary Coulomb fitting basis             ... AVAILABLE
   # of basis functions in Aux-J            ...    774
   # of shells in Aux-J                     ...    250
   Maximum angular momentum in Aux-J        ...      4
Auxiliary J/K fitting basis                 ... NOT available
Auxiliary Correlation fitting basis         ... NOT available
Auxiliary 'external' fitting basis          ... NOT available

Checking pre-screening integrals            ... done (  0.0 sec) Dimension = 152
Check shell pair data                       ... done (  0.0 sec)
Shell pair information
Shell pair cut-off parameter TPreSel        ...   1.0e-12
Total number of shell pairs                 ...     11628
Shell pairs after pre-screening             ...      9608
Total number of primitive shell pairs       ...     43697
Primitive shell pairs kept                  ...     24104
          la=0 lb=0:   2911 shell pairs
          la=1 lb=0:   3624 shell pairs
          la=1 lb=1:   1137 shell pairs
          la=2 lb=0:   1118 shell pairs
          la=2 lb=1:    700 shell pairs
          la=2 lb=2:    118 shell pairs

Calculating one electron integrals          ... done (  0.0 sec)
Calculating RI/J V-Matrix + Cholesky decomp.... done (  0.0 sec)
Calculating Nuclear repulsion               ... done (  0.0 sec) ENN=    817.613003640629 Eh

Diagonalization of the overlap matrix:
Smallest eigenvalue                        ... 1.873e-05
Time for diagonalization                   ...    0.007 sec
Threshold for overlap eigenvalues          ... 1.000e-07
Number of eigenvalues below threshold      ... 0
Time for construction of square roots      ...    0.003 sec
Total time needed                          ...    0.011 sec

-------------------
DFT GRID GENERATION
-------------------

General Integration Accuracy     IntAcc      ... 4.388
Radial Grid Type                 RadialGrid  ... OptM3 with GC (2021)
Angular Grid (max. ang.)         AngularGrid ... 4 (Lebedev-302)
Angular grid pruning method      GridPruning ... 4 (adaptive)
Weight generation scheme         WeightScheme... mBecke (2022)
Basis function cutoff            BFCut       ... 1.0000e-11
Integration weight cutoff        WCut        ... 1.0000e-14
Partially contracted basis set               ... off
Rotationally invariant grid construction     ... off
Angular grids for H and He will be reduced by one unit
Diffuse basis detected: some atoms will have their outermost
                        angular grid increased by 1.

Total number of grid points                  ...   110094
Total number of batches                      ...     1732
Average number of points per batch           ...       63
Average number of grid points per atom       ...     5004
Initializing property integral containers    ... done (  0.0 sec)

SHARK setup successfully completed in   0.9 seconds

Maximum memory used throughout the entire STARTUP-calculation: 55.2 MB
Occupation numbers will be reassigned to an Aufbau configuration
             **** ENERGY FILE WAS UPDATED (xtb_opt.en.tmp) ****
Finished Guess after   0.1 sec
Maximum memory used throughout the entire GUESS-calculation: 26.7 MB
----------------------------------------D-I-I-S--------------------------------------------
Iteration    Energy (Eh)           Delta-E    RMSDP     MaxDP     DIISErr   Damp  Time(sec)
-------------------------------------------------------------------------------------------
               ***  Starting incremental Fock matrix formation  ***
                              *** Initializing SOSCF ***
---------------------------------------S-O-S-C-F--------------------------------------
Iteration    Energy (Eh)           Delta-E    RMSDP     MaxDP     MaxGrad    Time(sec)
--------------------------------------------------------------------------------------
    1    -612.3924753846403064     0.00e+00  1.34e-04  3.25e-03  2.43e-04     2.7
               *** Restarting incremental Fock matrix formation ***
    2    -612.3925576518664684    -8.23e-05  5.45e-05  9.36e-04  4.86e-04     2.7
    3    -612.3925281432369729     2.95e-05  4.16e-05  6.67e-04  1.46e-03     2.1
    4    -612.3925663899425444    -3.82e-05  2.63e-05  5.27e-04  1.68e-04     2.1
    5    -612.3925654065441222     9.83e-07  1.43e-05  2.73e-04  1.96e-04     2.0
    6    -612.3925677634143767    -2.36e-06  3.98e-06  8.52e-05  3.27e-05     2.0
    7    -612.3925676812485790     8.22e-08  2.37e-06  5.27e-05  5.62e-05     1.9
                 **** Energy Check signals convergence ****

               *****************************************************
               *                     SUCCESS                       *
               *           SCF CONVERGED AFTER   7 CYCLES          *
               *****************************************************

             **** ENERGY FILE WAS UPDATED (xtb_opt.en.tmp) ****

----------------
TOTAL SCF ENERGY
----------------

Total Energy       :       -612.39256768124858 Eh          -16664.04895 eV

Components:
Nuclear Repulsion  :        817.61300364062924 Eh           22248.38091 eV
Electronic Energy  :      -1430.00557132187760 Eh          -38912.42987 eV
One Electron Energy:      -2452.31156884618531 Eh          -66730.79032 eV
Two Electron Energy:       1022.30599752430760 Eh           27818.36045 eV

Virial components:
Potential Energy   :      -1222.23148131267180 Eh          -33258.60944 eV
Kinetic Energy     :        609.83891363142311 Eh           16594.56049 eV
Virial Ratio       :          2.00418742391268

DFT components:
N(Alpha)           :       48.000023234535 electrons
N(Beta)            :       48.000023234535 electrons
N(Total)           :       96.000046469070 electrons
E(X)               :      -81.946776172353 Eh       
E(C)               :       -3.165821621171 Eh       
E(XC)              :      -85.112597793524 Eh       

---------------
SCF CONVERGENCE
---------------

  Last Energy change         ...   -8.2166e-08  Tolerance :   1.0000e-07
  Last MAX-Density change    ...    5.2719e-05  Tolerance :   1.0000e-07
  Last RMS-Density change    ...    2.3658e-06  Tolerance :   5.0000e-09
  Last DIIS Error            ...    2.4294e-03  Tolerance :   1.0000e-07
  Last Orbital Gradient      ...    5.6217e-05  Tolerance :   1.0000e-04
  Last Orbital Rotation      ...    5.0530e-05  Tolerance :   1.0000e-04


----------------
ORBITAL ENERGIES
----------------

  NO   OCC          E(Eh)            E(eV) 
   0   2.0000     -19.014494      -517.4107 
   1   2.0000     -19.014487      -517.4105 
   2   2.0000     -10.110306      -275.1154 
   3   2.0000     -10.110296      -275.1151 
   4   2.0000     -10.109887      -275.1040 
   5   2.0000     -10.109880      -275.1038 
   6   2.0000     -10.045776      -273.3595 
   7   2.0000     -10.045770      -273.3593 
   8   2.0000     -10.045764      -273.3591 
   9   2.0000     -10.045763      -273.3591 
  10   2.0000     -10.043096      -273.2865 
  11   2.0000     -10.043095      -273.2865 
  12   2.0000     -10.042650      -273.2744 
  13   2.0000     -10.042649      -273.2744 
  14   2.0000      -1.082259       -29.4498 
  15   2.0000      -1.048870       -28.5412 
  16   2.0000      -0.849172       -23.1072 
  17   2.0000      -0.821817       -22.3628 
  18   2.0000      -0.749647       -20.3989 
  19   2.0000      -0.740736       -20.1565 
  20   2.0000      -0.715938       -19.4817 
  21   2.0000      -0.696954       -18.9651 
  22   2.0000      -0.632479       -17.2106 
  23   2.0000      -0.613742       -16.7008 
  24   2.0000      -0.580239       -15.7891 
  25   2.0000      -0.562888       -15.3170 
  26   2.0000      -0.546247       -14.8641 
  27   2.0000      -0.489745       -13.3266 
  28   2.0000      -0.482311       -13.1243 
  29   2.0000      -0.450630       -12.2623 
  30   2.0000      -0.449505       -12.2317 
  31   2.0000      -0.448250       -12.1975 
  32   2.0000      -0.420121       -11.4321 
  33   2.0000      -0.414008       -11.2657 
  34   2.0000      -0.410225       -11.1628 
  35   2.0000      -0.387131       -10.5344 
  36   2.0000      -0.384617       -10.4659 
  37   2.0000      -0.365985        -9.9590 
  38   2.0000      -0.360854        -9.8193 
  39   2.0000      -0.358461        -9.7542 
  40   2.0000      -0.337931        -9.1956 
  41   2.0000      -0.337720        -9.1898 
  42   2.0000      -0.315669        -8.5898 
  43   2.0000      -0.304170        -8.2769 
  44   2.0000      -0.251801        -6.8519 
  45   2.0000      -0.250170        -6.8075 
  46   2.0000      -0.226278        -6.1573 
  47   2.0000      -0.184000        -5.0069 
  48   0.0000      -0.046414        -1.2630 
  49   0.0000      -0.039964        -1.0875 
  50   0.0000      -0.037616        -1.0236 
  51   0.0000      -0.003526        -0.0960 
  52   0.0000       0.032348         0.8802 
  53   0.0000       0.080729         2.1968 
  54   0.0000       0.095480         2.5981 
  55   0.0000       0.114425         3.1137 
  56   0.0000       0.118804         3.2328 
  57   0.0000       0.121279         3.3002 
  58   0.0000       0.127163         3.4603 
*Only the first 10 virtual orbitals were printed.
Total SCF time: 0 days 0 hours 0 min 15 sec 
Finished LeanSCF after  15.6 sec

Maximum memory used throughout the entire LEANSCF-calculation: 38.9 MB


-------------------------------------------------------------------------------
                          DFT DISPERSION CORRECTION                            
                                                                               
                                DFTD4 V3.4.0                                   
-------------------------------------------------------------------------------
-------------------------   ----------------
Dispersion correction           -0.009212333
-------------------------   ----------------

------------------   -----------------
gCP correction             0.006374921
------------------   -----------------

-------------------------   --------------------
FINAL SINGLE POINT ENERGY      -612.395405093213
-------------------------   --------------------

------------------------------------------------------------------------------
                         ORCA SCF GRADIENT CALCULATION
------------------------------------------------------------------------------

Nuc. rep. gradient        (SHARK) ... done (  0.0 sec)
HCore & Overlap gradient  (SHARK) ... done (  0.4 sec)
Split-RIJ-J gradient      (SHARK) ... done (  2.6 sec)
XC gradient                       ... done (  6.8 sec)
Dispersion correction             ... done (  0.0 sec)

-------------------
DISPERSION GRADIENT
-------------------

   1   C   :    0.000102534    0.000033456   -0.000000015
   2   C   :    0.000102534   -0.000033457   -0.000000007
   3   C   :    0.000090313   -0.000081836    0.000000003
   4   C   :    0.000064301   -0.000044297    0.000000012
   5   C   :    0.000064301    0.000044301    0.000000005
   6   C   :    0.000090312    0.000081837   -0.000000013
   7   O   :   -0.000000000    0.000085669    0.000000016
   8   C   :   -0.000064301    0.000044300    0.000000011
   9   C   :   -0.000090313    0.000081836    0.000000009
  10   C   :   -0.000102535    0.000033455    0.000000002
  11   C   :   -0.000102534   -0.000033458   -0.000000013
  12   C   :   -0.000090311   -0.000081838   -0.000000017
  13   C   :   -0.000064301   -0.000044298    0.000000004
  14   O   :   -0.000000000   -0.000085667    0.000000022
  15   H   :    0.000036761    0.000018391   -0.000000006
  16   H   :    0.000036760   -0.000018391   -0.000000002
  17   H   :    0.000024267   -0.000048638    0.000000003
  18   H   :    0.000024266    0.000048637   -0.000000007
  19   H   :   -0.000024266    0.000048637    0.000000007
  20   H   :   -0.000036761    0.000018389    0.000000003
  21   H   :   -0.000036761   -0.000018390   -0.000000006
  22   H   :   -0.000024265   -0.000048638   -0.000000010

Difference to translation invariance:
           :   -0.0000000000    0.0000000000    0.0000000000

Difference to rotation invariance:
[...]
  17   2.0000      -0.821414       -22.3518 
  18   2.0000      -0.749321       -20.3901 
  19   2.0000      -0.740347       -20.1459 
  20   2.0000      -0.715797       -19.4778 
  21   2.0000      -0.696846       -18.9621 
  22   2.0000      -0.631836       -17.1931 
  23   2.0000      -0.613483       -16.6937 
  24   2.0000      -0.580246       -15.7893 
  25   2.0000      -0.562295       -15.3008 
  26   2.0000      -0.546167       -14.8620 
  27   2.0000      -0.489316       -13.3150 
  28   2.0000      -0.482081       -13.1181 
  29   2.0000      -0.450437       -12.2570 
  30   2.0000      -0.449111       -12.2209 
  31   2.0000      -0.447543       -12.1783 
  32   2.0000      -0.420126       -11.4322 
  33   2.0000      -0.413798       -11.2600 
  34   2.0000      -0.410342       -11.1660 
  35   2.0000      -0.386315       -10.5122 
  36   2.0000      -0.383691       -10.4408 
  37   2.0000      -0.365887        -9.9563 
  38   2.0000      -0.360735        -9.8161 
  39   2.0000      -0.358534        -9.7562 
  40   2.0000      -0.338157        -9.2017 
  41   2.0000      -0.337699        -9.1893 
  42   2.0000      -0.315294        -8.5796 
  43   2.0000      -0.304295        -8.2803 
  44   2.0000      -0.251805        -6.8520 
  45   2.0000      -0.250171        -6.8075 
  46   2.0000      -0.226318        -6.1584 
  47   2.0000      -0.184168        -5.0115 
  48   0.0000      -0.046583        -1.2676 
  49   0.0000      -0.040364        -1.0984 
  50   0.0000      -0.038116        -1.0372 
  51   0.0000      -0.004044        -0.1100 
  52   0.0000       0.031567         0.8590 
  53   0.0000       0.080208         2.1826 
  54   0.0000       0.095378         2.5954 
  55   0.0000       0.113797         3.0966 
  56   0.0000       0.118673         3.2293 
  57   0.0000       0.121088         3.2950 
  58   0.0000       0.127045         3.4571 
*Only the first 10 virtual orbitals were printed.
Total SCF time: 0 days 0 hours 0 min 5 sec 
Finished LeanSCF after   5.4 sec

Maximum memory used throughout the entire LEANSCF-calculation: 38.9 MB


-------------------------------------------------------------------------------
                          DFT DISPERSION CORRECTION                            
                                                                               
                                DFTD4 V3.4.0                                   
-------------------------------------------------------------------------------
-------------------------   ----------------
Dispersion correction           -0.009204055
-------------------------   ----------------

------------------   -----------------
gCP correction             0.006361333
------------------   -----------------

-------------------------   --------------------
FINAL SINGLE POINT ENERGY      -612.395447098001
-------------------------   --------------------

------------------------------------------------------------------------------
                         ORCA SCF GRADIENT CALCULATION
------------------------------------------------------------------------------

Nuc. rep. gradient        (SHARK) ... done (  0.0 sec)
HCore & Overlap gradient  (SHARK) ... done (  0.4 sec)
Split-RIJ-J gradient      (SHARK) ... done (  2.6 sec)
XC gradient                       ... done (  6.7 sec)
Dispersion correction             ... done (  0.0 sec)

-------------------
DISPERSION GRADIENT
-------------------

   1   C   :    0.000102385    0.000033449   -0.000000014
   2   C   :    0.000102386   -0.000033448   -0.000000010
   3   C   :    0.000090189   -0.000081895   -0.000000001
   4   C   :    0.000064130   -0.000044266    0.000000009
   5   C   :    0.000064129    0.000044267    0.000000007
   6   C   :    0.000090187    0.000081896   -0.000000009
   7   O   :   -0.000000001    0.000085541    0.000000018
   8   C   :   -0.000064130    0.000044266    0.000000014
   9   C   :   -0.000090189    0.000081895    0.000000008
  10   C   :   -0.000102386    0.000033448   -0.000000003
  11   C   :   -0.000102385   -0.000033449   -0.000000011
  12   C   :   -0.000090187   -0.000081896   -0.000000010
  13   C   :   -0.000064129   -0.000044267    0.000000008
  14   O   :    0.000000000   -0.000085541    0.000000015
  15   H   :    0.000036747    0.000018407   -0.000000006
  16   H   :    0.000036747   -0.000018407   -0.000000004
  17   H   :    0.000024196   -0.000048637    0.000000001
  18   H   :    0.000024195    0.000048637   -0.000000004
  19   H   :   -0.000024196    0.000048637    0.000000005
  20   H   :   -0.000036747    0.000018407   -0.000000001
  21   H   :   -0.000036747   -0.000018407   -0.000000006
  22   H   :   -0.000024195   -0.000048637   -0.000000006

Difference to translation invariance:
           :   -0.0000000000    0.0000000000    0.0000000000

Difference to rotation invariance:
           :    0.0000000000   -0.0000000000    0.0000000000

Norm of the Dispersion gradient    ...    0.0004040454
RMS gradient                       ...    0.0000497346
MAX gradient                       ...    0.0001023857
gCP correction                   ... done

------------------
CARTESIAN GRADIENT
------------------

   1   C   :    0.000053403    0.000015976   -0.000000510
   2   C   :    0.000053950   -0.000015194    0.000000423
   3   C   :    0.000008216    0.000011938    0.000000290
   4   C   :   -0.000018944   -0.000064650   -0.000001199
   5   C   :   -0.000019094    0.000065534    0.000000256
   6   C   :    0.000007930   -0.000012256   -0.000000449
   7   O   :    0.000000811    0.000011666   -0.000000168
   8   C   :    0.000019195    0.000063704    0.000000363
   9   C   :   -0.000008984   -0.000012122    0.000000377
  10   C   :   -0.000052737    0.000017054    0.000000416
  11   C   :   -0.000052327   -0.000017928   -0.000000167
  12   C   :   -0.000009954    0.000012712   -0.000001038
  13   C   :    0.000019188   -0.000064707   -0.000000594
  14   O   :   -0.000000745   -0.000011433    0.000002086
  15   H   :   -0.000002789    0.000018863   -0.000000165
  16   H   :   -0.000002655   -0.000019331    0.000000430
  17   H   :   -0.000015539   -0.000027187    0.000000486
  18   H   :   -0.000015074    0.000026846   -0.000000705
  19   H   :    0.000015202    0.000027320    0.000000550
  20   H   :    0.000002300    0.000018588    0.000000550
  21   H   :    0.000002332   -0.000018346   -0.000000434
  22   H   :    0.000016314   -0.000027046   -0.000000796

Difference to translation invariance:
           :   -0.0000000000   -0.0000000000   -0.0000000000

Difference to rotation invariance:
           :    0.0000000274    0.0000001840    0.0000013943

Norm of the Cartesian gradient     ...    0.0001925897
RMS gradient                       ...    0.0000237061
MAX gradient                       ...    0.0000655336

-------
TIMINGS
-------

Total SCF gradient time     ....        9.677 sec

Densities                   ....       0.001 sec  (  0.0%)
One electron gradient       ....       0.387 sec  (  4.0%)
RI-J Coulomb gradient       ....       2.553 sec  ( 26.4%)
XC gradient                 ....       6.718 sec  ( 69.4%)

Maximum memory used throughout the entire SCFGRAD-calculation: 46.7 MB

------------------------------------------------------------------------------
                              ORCA PROPERTY CALCULATIONS
------------------------------------------------------------------------------

GBWName                                 ... xtb_opt.gbw
Number of atoms                         ...     22
Number of basis functions               ...    316
Max core memory                         ...   1024 MB

Electric properties:
Dipole moment                           ... YES
Quadrupole moment                       ...  NO
Static polarizability (Dipole/Dipole)   ...  NO
Static polarizability (Dipole/Quad.)    ...  NO
Static polarizability (Quad./Quad.)     ...  NO
Static polarizability (Velocity)        ...  NO

Atomic electric properties:
Dipole moment                           ...  NO
Quadrupole moment                       ...  NO
Static polarizability                   ...  NO

Choice of electric origin               ... Center of mass
Position of electric origin             ...    -0.000008    -0.000018     0.000016

General magnetic properties:
Magnetizability                         ...  NO

EPR properties:
g-Tensor (aka g-matrix)                 ...  NO
Zero-Field splitting spin-orbit         ...  NO
Zero-field splitting spin-spin          ...  NO
Hyperfine couplings                     ...  NO (   0 nuclei)
Quadrupole couplings                    ...  NO (   0 nuclei)
Contact density                         ...  NO (   0 nuclei)

NMR properties:
Chemical shifts                         ...  NO (   0 nuclei)
Spin-rotation constants                 ...  NO (   0 nuclei)
Spin-spin couplings                     ...  NO (   0 nuclei,    0 pairs)

Choice of magnetic origin               ... GIAO
Position of magnetic origin             ...     0.000000     0.000000     0.000000

Properties with geometric perturbations:
SCF Hessian                             ...  NO
IR spectrum                             ...  NO
VCD spectrum                            ...  NO
X-ray spectroscopy properties:
SCF XES/XAS/RIXS spectra                ...  NO


-------------
DIPOLE MOMENT
-------------

Method             : SCF
Type of density    : Electron Density
Multiplicity       :   1
Irrep              :   0
Energy             :  -612.3926043762766085 Eh
Relativity type    : 
Basis              : AO
                                X                 Y                 Z
Electronic contribution:     -0.000009787       0.000008933       0.001062808
Nuclear contribution   :      0.000003401      -0.000022903      -0.001193076
                        -----------------------------------------
Total Dipole Moment    :     -0.000006387      -0.000013970      -0.000130267
                        -----------------------------------------
Magnitude (a.u.)       :      0.000131170
Magnitude (Debye)      :      0.000333407



--------------------
Rotational spectrum 
--------------------
 
Rotational constants in cm-1:             0.071434             0.015998             0.013071 
Rotational constants in MHz :          2141.542342           479.618472           391.858167 

Dipole components along the rotational axes: 
x,y,z [a.u.] :     0.000006    -0.000014    -0.000130 
x,y,z [Debye]:     0.000016    -0.000036    -0.000331 

 

Dipole moment calculation done in   0.0 sec 

Maximum memory used throughout the entire PROP-calculation: 25.3 MB

--------------------------------
SUGGESTED CITATIONS FOR THIS RUN
--------------------------------

Below you find a list of papers that are relevant to this ORCA run
We neither can nor want to force you to cite these papers, but we appreciate if you do
You receive ORCA, which is the product of decades of hard work by many enthusiastic individuals, for free
The only thing we kindly ask in return is that you cite our papers,
We deeply appreciate it, if you show your appreciation for ORCA by not just citing the generic ORCA reference.

Please note that relegating all ORCA citations to the supporting information does *not* help us.
SI sections are not indexed - citations you put there will not count into any citation statistics
But we need these citations in order to attract the funding resources that allow us to do what we are doing

Therefore, if you are a happy ORCA user, please consider citing a few of the papers listed below in the main body of your paper

In addition to the list printed below, the program has created the file xtb_opt.bibtex that contains the list in bibtex format
You can import this file easily into all common literature databanks and citation aid programs


List of essential papers. We consider these as the minimum necessary citations

  1. Neese,F.
     Software update: the ORCA program system, version 5.0
     WIRES Comput. Molec. Sci., 2022 12(1)e1606
     doi.org/10.1002/wcms.1606
  2. Grimme,S.; Hansen,A.; Ehlert,S.; Mewes,J.
     r2SCAN-3c: A 'Swiss army knife' composite electronic-structure method
     J. Chem. Phys., 2021 154 064103
     doi.org/10.1063/5.0040021

List of papers to cite with high priority. The work reported in these papers was absolutely
necessary for this run to complete.
Our perspective: the developers of density functionals and basis sets usually get cited in chemistry papers
Good! But without the algorithms to do something with them, the functionals or basis sets would not do anything.
Hence, in our opinion, the algorithm design and method developments papers are equally worthy of getting cited

  1. Neese,F.
     An improvement of the resolution of the identity approximation for the formation of the Coulomb matrix
     J. Comp. Chem., 2003 24(14)1740-1747
     doi.org/10.1002/jcc.10318
  2. Neese,F.
     The SHARK Integral Generation and Digestion System
     J. Comp. Chem., 2022  1-16
     doi.org/10.1002/jcc.26942
  3. Lehtola,S.; Steigemann,C.; Oliveira,M.; Marques,M.
     Recent developments in Libxc - A comprehensive library of functionals for density functional theory
     Software X, 2018 7 
     doi.org/10.1016/j.softx.2017.11.002
  4. Caldeweyher,E.; Bannwarth,C.; Grimme,S.
     Extension of the D3 dispersion coefficient model
     J. Chem. Phys., 2017 147 034112
     doi.org/10.1063/1.4993215
  5. Caldeweyher,E.; Ehlert,S.; Hansen,A.; Neugebauer,H.; Spicher,S.; Bannwarth,C.; Grimme,S.
     A generally applicable atomic-charge dependent London dispersion correction
     J. Chem. Phys., 2019 150 154122
     doi.org/10.1063/1.5090222
  6. Caldeweyher,E.; Mewes,J.; Ehlert,S.; Grimme,S.
     Extension and evaluation of the D4 London-dispersion model for periodic systems
     Phys. Chem. Chem. Phys., 2020 22(16)8499-8512
     doi.org/10.1039/D0CP00502A
  7. Wittmann,L.; Gordiy,I.; Friede,M.; Helmich-Paris,B.; Grimme,S.; Hansen,A.; Bursch,M.
     Extension of the D3 and D4 London Dispersion Corrections to the full Actinides Series
     Phys. Chem. Chem. Phys., 2024 26(32)21379-21394
     doi.org/https://doi.org/10.1039/D4CP01514B 

List of suggested additional citations. These are papers that are important in the 'surrounding' of 
of this run, or papers that preceded the highly important papers. If you like your results we are grateful for a citation.

  1. Neese,F.
     The ORCA program system
     WIRES Comput. Molec. Sci., 2012 2(1)73-78
     doi.org/10.1002/wcms.81
  2. Neese,F.
     Software update: the ORCA program system, version 4.0
     WIRES Comput. Molec. Sci., 2018 8(1)1-6
     doi.org/10.1002/wcms.1327
  3. Neese,F.; Wennmohs,F.; Becker,U.; Riplinger,C.
     The ORCA quantum chemistry program package
     J. Chem. Phys., 2020 152 Art. No. L224108
     doi.org/10.1063/5.0004608

List of optional additional citations

  1. Neese,F.
     Approximate second-order SCF convergence for spin unrestricted wavefunctions
     Chem. Phys. Lett., 2000 325(1-3)93-98
     doi.org/10.1016/s0009-2614(00)00662-x

Timings for individual modules:

Sum of individual times          ...       16.194 sec (=   0.270 min)
Startup calculation              ...        0.898 sec (=   0.015 min)   5.5 %
SCF iterations                   ...        5.519 sec (=   0.092 min)  34.1 %
Property calculations            ...        0.049 sec (=   0.001 min)   0.3 %
SCF Gradient evaluation          ...        9.728 sec (=   0.162 min)  60.1 %
                             ****ORCA TERMINATED NORMALLY****
TOTAL RUN TIME: 0 days 0 hours 0 minutes 16 seconds 263 msec
  ------------------------------------------------------------------------
          * successful ORCA run, taking over control again...

         :::::::::::::::::::::::::::::::::::::::::::::::::::::
         ::                  ORCA SUMMARY                   ::
         :::::::::::::::::::::::::::::::::::::::::::::::::::::
         :: total energy            -612.395447098001 Eh    ::
         :: gradient norm              0.000192589664 Eh/a0 ::
         :: HOMO-LUMO gap              0.000000000000 eV    ::
         :::::::::::::::::::::::::::::::::::::::::::::::::::::

           -------------------------------------------------
          |                Property Printout                |
           -------------------------------------------------
           -------------------------------------------------
          |                Geometry Summary                 |
           -------------------------------------------------

      molecular mass/u    :      184.1911666
   center of mass at/Å    :       -0.0000044      -0.0000093       0.0000083
  moments of inertia/u·Å² :        0.2359854E+03   0.1053685E+04   0.1289670E+04
rotational constants/cm⁻¹ :        0.7143508E-01   0.1599875E-01   0.1307128E-01

 * 24 selected distances

     #   Z          #   Z                                           value/Å
     1   6          2   6                                         1.3906130
     2   6          3   6                                         1.3926220
     3   6          4   6                                         1.3862169
     4   6          5   6                                         1.3949528 (max)
     1   6          6   6                                         1.3926223
     5   6          6   6                                         1.3862179
     5   6          7   8                                         1.3795479
     7   8          8   6                                         1.3795497
     8   6          9   6                                         1.3862185
     9   6         10   6                                         1.3926209
    10   6         11   6                                         1.3906150
    11   6         12   6                                         1.3926196
     8   6         13   6                                         1.3949514
    12   6         13   6                                         1.3862183
     4   6         14   8                                         1.3795476
    13   6         14   8                                         1.3795466
     1   6         15   1                                         1.0842815 (min)
     2   6         16   1                                         1.0842818
     3   6         17   1                                         1.0846275
     6   6         18   1                                         1.0846274
     9   6         19   1                                         1.0846278
    10   6         20   1                                         1.0842817
    11   6         21   1                                         1.0842816
    12   6         22   1                                         1.0846276

 * 3 distinct bonds (by element types)

   Z      Z             #   av. dist./Å        max./Å        min./Å
   1 H    6 C           8     1.0844546     1.0846278     1.0842815
   6 C    6 C          12     1.3905407     1.3949528     1.3862169
   6 C    8 O           4     1.3795480     1.3795497     1.3795466


optimized geometry written to: xtbopt.coord


           -------------------------------------------------
          | TOTAL ENERGY             -612.395447098001 Eh   |
          | GRADIENT NORM               0.000192589664 Eh/α |
           -------------------------------------------------

------------------------------------------------------------------------
 * finished run on 2025/04/08 at 23:54:18.571     
------------------------------------------------------------------------
 total:
 * wall-time:     0 d,  0 h,  1 min, 45.129 sec
 *  cpu-time:     0 d,  0 h,  0 min,  0.435 sec
 * ratio c/w:     0.004 speedup
 SCF:
 * wall-time:     0 d,  0 h,  0 min, 20.188 sec
 *  cpu-time:     0 d,  0 h,  0 min,  0.069 sec
 * ratio c/w:     0.003 speedup
 ANC optimizer:
 * wall-time:     0 d,  0 h,  1 min, 24.922 sec
 *  cpu-time:     0 d,  0 h,  0 min,  0.094 sec
 * ratio c/w:     0.001 speedup

