20
 energy: -36.133450437206 gnorm: 0.041114183859 xtb: 6.7.1 (41059b4)
C            0.67170616695430        1.68599345587520       -0.04515237399203
C            1.41151863880347        0.37849481782042       -0.30023746400138
H            1.57899132924271        0.26168490209899       -1.38411059055381
C            0.54472111709559       -0.77192785969182        0.18060656381969
H            0.40995753914470       -0.66767458292483        1.27524455387450
C           -0.81251323249315       -0.71477161533388       -0.51519102502506
H           -0.65706369282418       -0.86173766324770       -1.59109365993924
C           -1.47463446024885        0.65551876210535       -0.30498787809258
H           -2.35605357925865        0.75205606487232       -0.94520569489990
O           -0.60643452125877        1.69766745990096       -0.68981481379107
O           -1.97619984501995        0.78180583099947        1.02197863841184
O           -1.65422653133765       -1.77801572182843       -0.07866436181138
O            1.22446870567819       -1.98962892436222       -0.10107729241241
O            2.64537464201691        0.44742172012366        0.40181767626568
H            1.22787294068044        2.52949023321579       -0.45923570979560
H            0.58137994554221        1.85280738042166        1.04137586667050
H           -1.23483331731652        0.82294306547524        1.63899958292924
H           -2.08242963867963       -1.47196648045819        0.73385828056538
H            0.59824014391897       -2.70579533855876        0.06552507057490
H            3.04478651514206       -0.43010642803654        0.35562284749993
20
 energy: -36.135288093003 gnorm: 0.019393544340 xtb: 6.7.1 (41059b4)
C            0.66071480214046        1.69403181635214       -0.04739219893438
C            1.41252443046687        0.38711744523694       -0.29268849997362
H            1.59194757981451        0.26231262677384       -1.37180832619050
C            0.55126015000145       -0.77684496862718        0.19103074382535
H            0.40925644270647       -0.69158124008788        1.28522922261300
C           -0.80551451149043       -0.72205460847972       -0.51807186460980
H           -0.65039557669987       -0.88297298599717       -1.59087805947721
C           -1.46577704182510        0.65193032324106       -0.30270959432315
H           -2.35235533444323        0.75144323553011       -0.93609773844718
O           -0.61387189887114        1.69963034345615       -0.67860660954074
O           -1.95419866341793        0.76085850108139        1.01629600356476
O           -1.64764241833385       -1.76529853597765       -0.06786340605489
O            1.22485684792860       -1.98786054309859       -0.09000091713746
O            2.63694085870917        0.44512160798616        0.40496384791305
H            1.20639849598156        2.53541480911472       -0.47486237789654
H            0.57266089039457        1.86194360765833        1.03580345867588
H           -1.21134661892535        0.83286334422585        1.62911303990073
H           -2.10282493317097       -1.44304343753704        0.72439674180513
H            0.58807547368173       -2.70518591642224        0.03127443067754
H            3.03391989113467       -0.43356634596252        0.35313031990724
20
 energy: -36.135899968432 gnorm: 0.007029966169 xtb: 6.7.1 (41059b4)
C            0.65387194904427        1.69712113261044       -0.04893851254183
C            1.41788357785482        0.39125974279445       -0.28366202573623
H            1.60047419062729        0.25972306354289       -1.36094817184608
C            0.55584753316591       -0.78319994650760        0.19543625689545
H            0.40744169636337       -0.70539536211069        1.28811849371300
C           -0.80599634057065       -0.73327665156466       -0.51576642686630
H           -0.64783689864540       -0.90592334592610       -1.58521549563704
C           -1.46055310462405        0.64738996576320       -0.29690099865294
H           -2.34958584334681        0.74559997444358       -0.92930125076595
O           -0.61763782563238        1.69448238460133       -0.66922151680834
O           -1.93791927714828        0.74042901027511        1.01550014463353
O           -1.64802273499189       -1.75839393392376       -0.05270244234942
O            1.23192029867189       -1.98407600903344       -0.08630419398845
O            2.63218085168763        0.45133858060652        0.41429967050176
H            1.19231319579068        2.53373965897922       -0.49286405091414
H            0.57634398295376        1.87345819994225        1.03256479124620
H           -1.19403469394125        0.85500413004743        1.62356739669493
H           -2.13794517394321       -1.41471088725435        0.71284561240384
H            0.58440264601233       -2.70374318182956       -0.02291299976424
H            3.03148083645415       -0.42656744698956        0.36266393607942
20
 energy: -36.135993073627 gnorm: 0.005624835044 xtb: 6.7.1 (41059b4)
C            0.65374525875293        1.69709620308085       -0.05076806397944
C            1.41857905853210        0.39032962196999       -0.28207597815343
H            1.60201732929689        0.25819785742831       -1.35972896604706
C            0.55680479775354       -0.78667594371609        0.19491474525906
H            0.40843269895100       -0.70873258183368        1.28783681290988
C           -0.80719643888976       -0.73688425112061       -0.51424005843185
H           -0.65012203020156       -0.90984406935487       -1.58397984128219
C           -1.46079212006255        0.64571437648960       -0.29378287237459
H           -2.34971927958217        0.74225189194338       -0.92761386613830
O           -0.61857431326726        1.69188219182133       -0.66771838579361
O           -1.93649506900250        0.73572614672969        1.01895982970342
O           -1.64789421745150       -1.75906137990304       -0.04645285294469
O            1.23520212252930       -1.98483425697321       -0.09080045648142
O            2.62878968351001        0.45409370224085        0.42114674093997
H            1.19158357047827        2.53178989002456       -0.49959038003258
H            0.58238590331821        1.87848358687881        1.03099851580501
H           -1.19353738375793        0.86957730876905        1.62423166368704
H           -2.14690840911844       -1.40809427510206        0.70919911339351
H            0.58785162538349       -2.70380338371637       -0.04383283436959
H            3.03047607861012       -0.42295355718980        0.37355535062807
20
 energy: -36.136071597367 gnorm: 0.003633867589 xtb: 6.7.1 (41059b4)
C            0.65406187549464        1.69579534605510       -0.05390581566046
C            1.41959884467193        0.38830633319783       -0.28043751252374
H            1.60730582948332        0.25569171012089       -1.35798017125284
C            0.55829917852787       -0.79079253283396        0.19321528309341
H            0.41145230125602       -0.71433167764171        1.28676729550061
C           -0.80868255727179       -0.74150601251945       -0.51077043939660
H           -0.65524618748264       -0.91210908429309       -1.58185256987082
C           -1.46212355960151        0.64278182795624       -0.28953843174621
H           -2.35088732684058        0.73712612259445       -0.92483106614034
O           -0.62069254800243        1.68848887137281       -0.66610266423314
O           -1.93678505904342        0.73170328023354        1.02499827821935
O           -1.64717159658601       -1.76263643060867       -0.03734232057370
O            1.23959286252705       -1.98642213689396       -0.09866957183712
O            2.62475859606281        0.45750247494860        0.43155722221237
H            1.19136289970815        2.52800041591782       -0.50877405649300
H            0.59036456852652        1.88417022781309        1.02808311191563
H           -1.19651750384096        0.89682089705574        1.62520918009026
H           -2.15650017239111       -1.40284295820074        0.70511146148081
H            0.59226104422074       -2.70329940339866       -0.07532189788872
H            3.03017737636359       -0.41818819240916        0.39084290140146
20
 energy: -36.136093270433 gnorm: 0.002415145415 xtb: 6.7.1 (41059b4)
C            0.65406769215504        1.69492296739289       -0.05543386186529
C            1.41978726996497        0.38743638396841       -0.27958737913167
H            1.61169118953331        0.25406676455804       -1.35627420630095
C            0.55925610671228       -0.79206878671008        0.19289710818658
H            0.41363682016879       -0.71784803600225        1.28670861632616
C           -0.80827104890205       -0.74299592803639       -0.50873793923023
H           -0.65716134482453       -0.91236550564339       -1.58060542608041
C           -1.46259310756517        0.64083589370450       -0.28775454113220
H           -2.35172409254860        0.73413883372259       -0.92263885871818
O           -0.62215800602794        1.68695003466269       -0.66530530992291
O           -1.93677554652116        0.73063655640152        1.02795252960749
O           -1.64545938950721       -1.76492474709036       -0.03321497927513
O            1.24093144264645       -1.98744640173406       -0.10156336755031
O            2.62319621206089        0.45874229435709        0.43603574520089
H            1.19041285430373        2.52633818808537       -0.51299517920632
H            0.59237380071035        1.88572921720699        1.02624624051209
H           -1.19875236642117        0.91309646988778        1.62487357616352
H           -2.15933328570782       -1.40187351210810        0.70370600870738
H            0.59164535604502       -2.70265009876605       -0.09242839455305
H            3.02985830950701       -0.41646150939050        0.39837783455974
20
 energy: -36.136104231895 gnorm: 0.001211254591 xtb: 6.7.1 (41059b4)
C            0.65400135705488        1.69414105269927       -0.05615322690643
C            1.41981393800785        0.38697972963953       -0.27919693406219
H            1.61526984196710        0.25290855347142       -1.35487554365519
C            0.55984654961850       -0.79229632019874        0.19284358801920
H            0.41551931885300       -0.72006920422817        1.28671819680742
C           -0.80736595503047       -0.74321803484435       -0.50751159025960
H           -0.65760680230374       -0.91177775819109       -1.57983941791422
C           -1.46267181737673        0.63930984627587       -0.28677742671284
H           -2.35241942077015        0.73183042992178       -0.92062789218636
O           -0.62339956251916        1.68616969264575       -0.66453015547563
O           -1.93638989576958        0.72968801298118        1.02990007276813
O           -1.64370581428116       -1.76672365668785       -0.03189658756684
O            1.24053710687962       -1.98849038497635       -0.10278214937551
O            2.62273840716112        0.45919957063985        0.43821171533052
H            1.18915053781752        2.52539683066396       -0.51514509637635
H            0.59272029525671        1.88558536467558        1.02515234316244
H           -1.20071688072067        0.92650786380524        1.62388491607490
H           -2.15924685369460       -1.40355826391914        0.70322019382001
H            0.58912389969601       -2.70134064023937       -0.10254666501242
H            3.02943061593611       -0.41598360566770        0.40220987581816
20
 energy: -36.136109539454 gnorm: 0.001157417443 xtb: 6.7.1 (41059b4)
C            0.65382388423012        1.69357248245171       -0.05606758787571
C            1.41975241763295        0.38675458926088       -0.27902804345354
H            1.61682504347756        0.25219453644975       -1.35403001267461
C            0.56001312405877       -0.79209668205422        0.19339828075051
H            0.41597204823638       -0.72061058562154        1.28709375483648
C           -0.80628790336744       -0.74282101016385       -0.50738743872452
H           -0.65621119640588       -0.91103616570399       -1.57973383901808
C           -1.46253725720165        0.63817197432322       -0.28618100911164
H           -2.35295960558173        0.73010756879538       -0.91900938433803
O           -0.62443180087773        1.68583600080510       -0.66344079119367
O           -1.93557766080326        0.72803836901517        1.03114135121186
O           -1.64222444546002       -1.76798155365704       -0.03354815091932
O            1.23944837913817       -1.98941740789980       -0.10184521785645
O            2.62309107392203        0.45909096136856        0.43840695312556
H            1.18783856230647        2.52501928265109       -0.51569290343857
H            0.59269436967076        1.88461115144727        1.02505184460955
H           -1.20210287281813        0.93863086834665        1.62261095288149
H           -2.15683573469189       -1.40727950050983        0.70345128927960
H            0.58540425482066       -2.70006072589960       -0.10770871580987
H            3.02893418549603       -0.41646507493820        0.40277688401617
20
 energy: -36.136114444062 gnorm: 0.001141679891 xtb: 6.7.1 (41059b4)
C            0.65388121493781        1.69338149233173       -0.05537264586285
C            1.41951772013858        0.38656131125796       -0.27933892006462
H            1.61556820222760        0.25210746001451       -1.35446322277368
C            0.55952737289978       -0.79185902704375        0.19384232250469
H            0.41479394441458       -0.71916385835580        1.28727677870477
C           -0.80594431648817       -0.74228383504438       -0.50848242113830
H           -0.65444224330435       -0.90967538112644       -1.58067980906707
C           -1.46249086704066        0.63802321992176       -0.28602199539025
H           -2.35316255912769        0.73006238548451       -0.91860172108839
O           -0.62474833675590        1.68616580328906       -0.66233522381533
O           -1.93493371675425        0.72636587362712        1.03168361825368
O           -1.64202643285292       -1.76870473288008       -0.03770410687499
O            1.23826167636371       -1.99004220642072       -0.09980309485089
O            2.62371104636246        0.45847547914800        0.43696032287418
H            1.18759172302349        2.52514826654868       -0.51465399647736
H            0.59316328442157        1.88359807763587        1.02592207099656
H           -1.20324117045535        0.94554671064422        1.62166095465597
H           -2.15207562245697       -1.41235001579788        0.70470294366103
H            0.58328621111402       -2.69946077226279       -0.10549245882308
H            3.02839173511483       -0.41763717250488        0.40115882087313
20
 energy: -36.136118955522 gnorm: 0.001506350998 xtb: 6.7.1 (41059b4)
C            0.65373692367666        1.69289053137307       -0.05412630407798
C            1.41912158652114        0.38589666792452       -0.27945331856305
H            1.61262733824011        0.25164319772283       -1.35518738663640
C            0.55866285362109       -0.79210959690750        0.19496982537026
H            0.41113795043056       -0.71669140103055        1.28786508447559
C           -0.80538150851718       -0.74241477257774       -0.51078116883414
H           -0.65113450203849       -0.90718488321557       -1.58285415844217
C           -1.46268167270910        0.63726680180825       -0.28502622100315
H           -2.35358523529294        0.72941513368568       -0.91763561158370
O           -0.62575259007280        1.68647093316992       -0.65934960016410
O           -1.93367669432459        0.72161259662290        1.03350167358547
O           -1.64178391118546       -1.77052218091229       -0.04582676262460
O            1.23739007703316       -1.99097692702745       -0.09513570264117
O            2.62440742217132        0.45722774975013        0.43471204289105
H            1.18714660408205        2.52480955355869       -0.51358788594858
H            0.59532476238904        1.88249649543773        1.02760268285977
H           -1.20573694136661        0.96518173239973        1.61986926110244
H           -2.14246484533854       -1.42161046034270        0.70735744447090
H            0.58002903989087       -2.69930309417271       -0.10621312768833
H            3.02724220857188       -0.41983899880025        0.39955744974910
20
 energy: -36.136120479072 gnorm: 0.000667909740 xtb: 6.7.1 (41059b4)
C            0.65396469406456        1.69285970356918       -0.05393072247560
C            1.41884189948955        0.38567970732587       -0.27983272697736
H            1.61160230614177        0.25177934921267       -1.35588892969272
C            0.55820987523992       -0.79213507067710        0.19451284315732
H            0.41026768534162       -0.71592290555853        1.28740127458674
C           -0.80580908776560       -0.74240993002106       -0.51138779697743
H           -0.65161330233456       -0.90611119533353       -1.58363185612506
C           -1.46292420153766        0.63778529096444       -0.28512028108403
H           -2.35351716591668        0.73058062352448       -0.91804333736460
O           -0.62543830057885        1.68689104714026       -0.65907067857419
O           -1.93376741068689        0.72182788114580        1.03365639781975
O           -1.64239829810068       -1.77052133048080       -0.04716589754844
O            1.23745112794085       -1.99083295206639       -0.09480987276100
O            2.62422873667008        0.45677484309538        0.43392559456869
H            1.18782710841307        2.52474333958621       -0.51307151650192
H            0.59580660751997        1.88234446757631        1.02790332429872
H           -1.20694226383183        0.96386174951656        1.61965965728588
H           -2.13991133446868       -1.42268858262919        0.70842571249611
H            0.58185605912917       -2.69986193774365       -0.10281374256355
H            3.02689413105304       -0.42038501968022        0.39954077072989
20
 energy: -36.136120967234 gnorm: 0.000498999302 xtb: 6.7.1 (41059b4)
C            0.65385822012486        1.69279915374117       -0.05400455838638
C            1.41885495850523        0.38565913624965       -0.27973117258486
H            1.61211154590221        0.25182907813298       -1.35571444406488
C            0.55838470181781       -0.79241733518009        0.19415058507505
H            0.41067225726257       -0.71680876728774        1.28712946975120
C           -0.80584285785584       -0.74279486511612       -0.51113557121556
H           -0.65228471998688       -0.90645446231285       -1.58350026178589
C           -1.46290523742112        0.63752483982843       -0.28495119330966
H           -2.35346885307512        0.73005559840843       -0.91787593368407
O           -0.62557530949925        1.68675693129667       -0.65895849315726
O           -1.93386133513203        0.72152482244124        1.03379118601121
O           -1.64239944112159       -1.77050051898479       -0.04604455519997
O            1.23785660515066       -1.99077406870338       -0.09583261376358
O            2.62386439665566        0.45681621888049        0.43451763686927
H            1.18768777230669        2.52459692311161       -0.51333419779771
H            0.59589461682100        1.88243730271805        1.02779432558519
H           -1.20689414175180        0.96589403928923        1.61966036812410
H           -2.14100916493783       -1.42147523183803        0.70798281406211
H            0.58292407181376       -2.70016606661426       -0.10428934529222
H            3.02676078020318       -0.42024364959401        0.40060417106111
20
 energy: -36.136121118060 gnorm: 0.000156293226 xtb: 6.7.1 (41059b4)
C            0.65381089164903        1.69276388568815       -0.05394374214616
C            1.41888297444108        0.38566534012033       -0.27967405342964
H            1.61208944963976        0.25189815219585       -1.35567880031389
C            0.55844753458176       -0.79245771929484        0.19415351389180
H            0.41057419912367       -0.71702289149240        1.28713337689149
C           -0.80580608954693       -0.74292033000132       -0.51105710799075
H           -0.65237392230602       -0.90681918778308       -1.58340183668498
C           -1.46289077958727        0.63745265276024       -0.28496393596569
H           -2.35342979450527        0.72994740236902       -0.91791930015508
O           -0.62557500263164        1.68669193221673       -0.65891701265550
O           -1.93385045804571        0.72150062756236        1.03375545539870
O           -1.64239774068198       -1.77039588445251       -0.04559869670065
O            1.23827551000195       -1.99055980205147       -0.09589743963286
O            2.62389730235934        0.45680558857071        0.43447345864060
H            1.18763100970441        2.52458170076171       -0.51326470777484
H            0.59585979650380        1.88234812311394        1.02786248770448
H           -1.20707353323125        0.96630089047192        1.61955467547068
H           -2.14150358502606       -1.42078442313055        0.70797564060914
H            0.58330867841530       -2.70046277453920       -0.10500396181307
H            3.02675242492419       -0.42027420461891        0.40067020295342
20
 energy: -36.136121207508 gnorm: 0.000116037480 xtb: 6.7.1 (41059b4)
C            0.65382007619742        1.69273822288732       -0.05380509118916
C            1.41886184138194        0.38566739625808       -0.27975289677060
H            1.61195636580961        0.25202646485906       -1.35580418374931
C            0.55848842404291       -0.79250053106834        0.19402953601840
H            0.41067324932154       -0.71713058534950        1.28702645131440
C           -0.80581024359109       -0.74295703091841       -0.51109399779153
H           -0.65246771632529       -0.90688066655655       -1.58345116982217
C           -1.46288874909083        0.63744563333070       -0.28499908514265
H           -2.35337069763818        0.72997562744852       -0.91804173192839
O           -0.62556024410364        1.68672916605966       -0.65881305472790
O           -1.93394480789551        0.72143109009911        1.03373599714774
O           -1.64240919389169       -1.77041904220976       -0.04556380846097
O            1.23839564309768       -1.99053554277772       -0.09616246836430
O            2.62394763783952        0.45671752490066        0.43429930018275
H            1.18766005244949        2.52464065250324       -0.51296176176378
H            0.59585377939209        1.88216161978835        1.02804035131086
H           -1.20740089239322        0.96683828753148        1.61946920390022
H           -2.14155375197198       -1.42066010522037        0.70798479168034
H            0.58371079414342       -2.70060102768780       -0.10441845536918
H            3.02666729900801       -0.42042807541102        0.40054028982243
