
                                 *****************
                                 * O   R   C   A *
                                 *****************

                                            #,                                       
                                            ###                                      
                                            ####                                     
                                            #####                                    
                                            ######                                   
                                           ########,                                 
                                     ,,################,,,,,                         
                               ,,#################################,,                 
                          ,,##########################################,,             
                       ,#########################################, ''#####,          
                    ,#############################################,,   '####,        
                  ,##################################################,,,,####,       
                ,###########''''           ''''###############################       
              ,#####''   ,,,,##########,,,,          '''####'''          '####       
            ,##' ,,,,###########################,,,                        '##       
           ' ,,###''''                  '''############,,,                           
         ,,##''                                '''############,,,,        ,,,,,,###''
      ,#''                                            '''#######################'''  
     '                                                          ''''####''''         
             ,#######,   #######,   ,#######,      ##                                
            ,#'     '#,  ##    ##  ,#'     '#,    #''#        ,####,   ,####,        
            ##       ##  ##   ,#'  ##            #'  '#       #'       #'  '#        
            ##       ##  #######   ##           ,######,      #####,   #    #        
            '#,     ,#'  ##    ##  '#,     ,#' ,#      #,     #,   #   #,  ,#        
             '#######'   ##     ##  '#######'  #'      '#     '####' # '####'        



                #########################################################
                #                        -***-                          #
                #          Department of theory and spectroscopy        #
                #                                                       #
                #                      Frank Neese                      #
                #                                                       #
                #     Directorship, Architecture, Infrastructure        #
                #                    SHARK, DRIVERS                     #
                #        Core code/Algorithms in most modules           #
                #                                                       #
                #        Max Planck Institute fuer Kohlenforschung      #
                #                Kaiser Wilhelm Platz 1                 #
                #                 D-45470 Muelheim/Ruhr                 #
                #                      Germany                          #
                #                                                       #
                #                  All rights reserved                  #
                #                        -***-                          #
                #########################################################


                         Program Version 6.0.1  -  RELEASE   -


 With contributions from (in alphabetic order):
[Max-Planck-Institut fuer Kohlenforschung]                               
  Daniel Aravena         : Magnetic Suceptibility                        
  Michael Atanasov       : Ab Initio Ligand Field Theory (pilot matlab implementation)
  Alexander A. Auer      : GIAO ZORA, VPT2 properties, NMR spectrum      
  Ute Becker             : All parallelization in ORCA, NUMFREQ, NUMCALC 
  Giovanni Bistoni       : ED, misc. LED, open-shell LED, HFLD           
  Martin Brehm           : Molecular dynamics                            
  Dmytro Bykov           : pre 5.0 version of the SCF Hessian            
  Marcos Casanova-Páez   : Triplet and SCS-CIS(D). UHF-(DLPNO)-IP/EA/STEOM-CCSD. UHF-CVS-IP/STEOM-CCSD   
  Vijay G. Chilkuri      : MRCI spin determinant printing, contributions to CSF-ICE 
  Pauline Colinet        : FMM embedding                                 
  Dipayan Datta          : RHF DLPNO-CCSD density                        
  Achintya Kumar Dutta   : EOM-CC, STEOM-CC                              
  Nicolas Foglia         : Exact transition moments, OPA infrastructure, MCD improvements    
  Dmitry Ganyushin       : Spin-Orbit,Spin-Spin,Magnetic field MRCI      
  Miquel Garcia-Rates    : C-PCM and meta-GGA Hessian, CCSD/C-PCM, Gaussian charge scheme 
  Tiago L. C. Gouveia    : GS-ROHF, GS-ROCIS                             
  Yang Guo               : DLPNO-NEVPT2, F12-NEVPT2, CIM, IAO-localization        
  Andreas Hansen         : Spin unrestricted coupled pair/coupled cluster methods 
  Ingolf Harden          : AUTO-CI MPn and infrastructure                
  Benjamin Helmich-Paris : MC-RPA, TRAH-(SCF,CASSCF), AVAS, COSX integrals, SCF dyn. polar. 
  Lee Huntington         : MR-EOM, pCC                                   
  Robert Izsak           : Overlap fitted RIJCOSX, COSX-SCS-MP3, EOM     
  Riya Kayal             : Wick's Theorem for AUTO-CI, AUTO-CI UHF-CCSDT 
  Emily Kempfer          : AUTO-CI, RHF CISDT and CCSDT                  
  Christian Kollmar      : KDIIS, OOCD, Brueckner-CCSD(T), CCSD density, CASPT2, CASPT2-K, improved NEVPT2 
  Axel Koslowski         : Symmetry handling                             
  Simone Kossmann        : meta-GGA functionals, TD-DFT gradient, OOMP2, (MP2 Hessian; deprecated post 5.0) 
  Lucas Lang             : DCDCAS                                        
  Marvin Lechner         : AUTO-CI (C++ implementation), FIC-MRCC        
  Spencer Leger          : CASSCF response                               
  Dagmar Lenk            : GEPOL surface, SMD, ORCA-2-JSON               
  Dimitrios Liakos       : Extrapolation schemes; Compound Job, initial MDCI parallelization 
  Dimitrios Manganas     : Further ROCIS development; embedding schemes. LFT, Crystal Embedding 
  Dimitrios Pantazis     : SARC Basis sets                               
  Anastasios Papadopoulos: AUTO-CI, single reference methods and gradients 
  Taras Petrenko         : pre 6.0 DFT Hessian and TD-DFT gradient, (ASA, deprecated), ECA, 1-Electron XAS/XES, NRVS 
  Peter Pinski           : DLPNO-MP2, DLPNO-MP2 Gradient                 
  Christoph Reimann      : Effective Core Potentials                     
  Marius Retegan         : Local ZFS, SOC                                
  Christoph Riplinger    : Optimizer, TS searches, QM/MM, DLPNO-CCSD(T), (RO)-DLPNO pert. Triples 
  Michael Roemelt        : Original ROCIS implementation                 
  Masaaki Saitow         : Open-shell DLPNO-CCSD energy and density      
  Barbara Sandhoefer     : DKH picture change effects                    
  Kantharuban Sivalingam : CASSCF convergence/infrastructure, NEVPT2 and variants, FIC-MRCI 
  Bernardo de Souza      : ESD, SOC TD-DFT                               
  Georgi L. Stoychev     : AutoAux, RI-MP2 NMR, DLPNO-MP2 response, X2C  
  Van Anh Tran           : RI-MP2 g-tensors                              
  Willem Van den Heuvel  : Paramagnetic NMR                              
  Zikuan Wang            : NOTCH, Electric field optimization            
  Frank Wennmohs         : Technical directorship and infrastructure     
  Hang Xu                : AUTO-CI-Response properties                   
                                                                         
[FACCTs GmbH]                                                            
  Markus Bursch, Miquel Garcia-Rates, Christoph Riplinger, Bernardo de Souza, Georgi L. Stoychev 
                                                                 
  APM, Basis sets (HGBS, AHGBS, def-TZVP (Ac-Lr), def2-XVPD (La-Lu)), CI-OPT, improved COSX, DLPNO-Multilevel,           
  DOCKER, DRACO, updates on ESD, GOAT, IRC, LR-CPCM, MBIS, meta-GGA TD-DFT gradient, ML-optimized integration grids, 
  MM, NACMEs, nearIR, NEB, NEB-TS, NL-DFT gradient (VV10), 2- and 3-layer-ONIOM, interface openCOSMO-RS, QMMM,   
  Crystal-QMMM, SF, symmetry and pop. for TD-DFT, r2SCAN hybrids, SOLVATOR                                   
                                                                         
[Other institutions]                                                     
  V. Asgeirsson          : NEB                                           
  Christoph Bannwarth    : sTDA-DFT, sTD-DFT, PBEh-3c, B97-3c, D3        
  Sebastian Ehlert       : rSCAN, r2SCAN, r2SCAN-3c, D4, dhf basis sets  
  Marvin Friede          : D4 for Fr, Ra, Ac-Lr                          
  Lars Goerigk           : TD-DFT with DH, B97 family of functionals     
  Stefan Grimme          : VdW corrections, initial TS optimization, DFT functionals, gCP, sTDA/sTD-DF 
  Waldemar Hujo          : DFT-NL                                        
  H. Jonsson             : NEB                                           
  Holger Kruse           : gCP                                           
  Marcel Mueller         : wB97X-3c, vDZP basis set                      
  Hagen Neugebauer       : wr2SCAN                                       
  Tobias Risthaus        : range-separated hybrid DFT                    
  Lukas Wittmann         : regularized MP2, r2SCAN double-hybrids, wr2SCAN        
                                                                         
We gratefully acknowledge several colleagues who have allowed us to      
interface, adapt or use parts of their codes:                            
  Ed Valeev, F. Pavosevic, A. Kumar             : LibInt (2-el integral package), F12 methods 
  Garnet Chan, S. Sharma, J. Yang, R. Olivares  : DMRG                   
  Ulf Ekstrom                                   : XCFun DFT Library      
  Mihaly Kallay                                 : mrcc  (arbitrary order and MRCC methods)
  Frank Weinhold                                : gennbo (NPA and NBO analysis)           
  Simon Mueller                                 : openCOSMO-RS                            
  Christopher J. Cramer and Donald G. Truhlar   : smd solvation model                     
  S Lehtola, MJT Oliveira, MAL Marques          : LibXC Library                           
  Liviu Ungur et al                             : ANISO software                          


 Your calculation uses the libint2 library for the computation of 2-el integrals
 For citations please refer to: http://libint.valeyev.net

 Your ORCA version has been built with support for libXC version: 6.2.2
 For citations please refer to: https://libxc.gitlab.io

 This ORCA versions uses:
   CBLAS   interface :  Fast vector & matrix operations
   LAPACKE interface :  Fast linear algebra routines
   SCALAPACK package :  Parallel linear algebra routines
   Shared memory     :  Shared parallel matrices
   BLAS/LAPACK       :  OpenBLAS 0.3.27  USE64BITINT DYNAMIC_ARCH NO_AFFINITY Zen SINGLE_THREADED
        Core in use  :  Zen
   Copyright (c) 2011-2014, The OpenBLAS Project


Your calculation utilizes the geometrical counterpoise correction gCP
Please cite in your paper:
H.Kruse, S. Grimme J.Chem.Phys., 136, (2012), 154101 
   

Your calculation utilizes the DFT-NL dispersion correction.
Cite in your paper:
Vydrov, O. A.; Van Voorhis, T. J. Chem. Phys. 2010, 133, 244103
Hujo, W.; Grimme, S. J. Chem. Theory Comput. 2011, 7, 3866 
   

================================================================================

----- Orbital basis set information -----
Your calculation utilizes the basis: def2-TZVP
   F. Weigend and R. Ahlrichs, Phys. Chem. Chem. Phys. 7, 3297 (2005).

----- AuxJ basis set information -----
Your calculation utilizes the auxiliary basis: def2/J
   F. Weigend, Phys. Chem. Chem. Phys. 8, 1057 (2006).

================================================================================
                                        WARNINGS
                       Please study these warnings very carefully!
================================================================================

WARNING: Old DensityContainer found on disk!
         Will remove this file - 
         If you want to keep old densities, please start your calculation with a different basename. 


================================================================================
                                       INPUT FILE
================================================================================
NAME = sp.inp
|  1> ! wb97x-v def2-tzvp def2/J RIJCOSX DEFGRID2 scfconv7 GCP(DFT/TZ) printgap
|  2> %output
|  3>     printlevel normal
|  4> end
|  5> * xyz 0 1
|  6> C -0.7991216376787824 5.680395097146342e-05 0.6521687050425039
|  7> C 0.6087968549049062 -8.638867584605618e-05 -0.004477029920153266
|  8> Cl 1.4929943189215344 -1.4557631509344828 0.5666435145979074
|  9> Cl 1.4934714704853735 1.4551576093523966 0.5671064416610437
| 10> Cl 0.5130844580968025 0.0002196039803383991 -1.7808709390374053
| 11> Cl -1.7221952189954512 1.4669747991459174 0.21292315624718253
| 12> Cl -1.7226869628873311 -1.4664315695222905 0.21251374134430998
| 13> H -0.664905806487735 -0.00011536944262607399 1.7362619619918946
| 14> *
| 15> 
| 16>                          ****END OF INPUT****
================================================================================

                       ****************************
                       * Single Point Calculation *
                       ****************************

---------------------------------
CARTESIAN COORDINATES (ANGSTROEM)
---------------------------------
  C     -0.799122    0.000057    0.652169
  C      0.608797   -0.000086   -0.004477
  Cl     1.492994   -1.455763    0.566644
  Cl     1.493471    1.455158    0.567106
  Cl     0.513084    0.000220   -1.780871
  Cl    -1.722195    1.466975    0.212923
  Cl    -1.722687   -1.466432    0.212514
  H     -0.664906   -0.000115    1.736262

----------------------------
CARTESIAN COORDINATES (A.U.)
----------------------------
  NO LB      ZA    FRAG     MASS         X           Y           Z
   0 C     6.0000    0    12.011   -1.510121    0.000107    1.232420
   1 C     6.0000    0    12.011    1.150459   -0.000163   -0.008460
   2 Cl   17.0000    0    35.453    2.821350   -2.750994    1.070801
   3 Cl   17.0000    0    35.453    2.822252    2.749849    1.071676
   4 Cl   17.0000    0    35.453    0.969589    0.000415   -3.365358
   5 Cl   17.0000    0    35.453   -3.254477    2.772181    0.402366
   6 Cl   17.0000    0    35.453   -3.255407   -2.771154    0.401593
   7 H     1.0000    0     1.008   -1.256490   -0.000218    3.281060

--------------------------------
INTERNAL COORDINATES (ANGSTROEM)
--------------------------------
 C      0   0   0     0.000000000000     0.00000000     0.00000000
 C      1   0   0     1.553517983001     0.00000000     0.00000000
 Cl     2   1   0     1.796379321837   108.16600978     0.00000000
 Cl     2   1   3     1.796410847839   108.16462085   242.98467988
 Cl     2   1   3     1.778970566615   111.91997137   121.49330827
 Cl     1   2   3     1.787973683612   111.35334852   176.77170486
 Cl     1   2   3     1.787975823820   111.35339817   300.24458752
 H      1   2   3     1.092369950497   107.94652152    58.50823704

---------------------------
INTERNAL COORDINATES (A.U.)
---------------------------
 C      0   0   0     0.000000000000     0.00000000     0.00000000
 C      1   0   0     2.935723531994     0.00000000     0.00000000
 Cl     2   1   0     3.394664950911   108.16600978     0.00000000
 Cl     2   1   3     3.394724526421   108.16462085   242.98467988
 Cl     2   1   3     3.361767171209   111.91997137   121.49330827
 Cl     1   2   3     3.378780596685   111.35334852   176.77170486
 Cl     1   2   3     3.378784641092   111.35339817   300.24458752
 H      1   2   3     2.064280043365   107.94652152    58.50823704

---------------------
BASIS SET INFORMATION
---------------------
There are 3 groups of distinct atoms

 Group   1 Type C   : 11s6p2d1f contracted to 5s3p2d1f pattern {62111/411/11/1}
 Group   2 Type Cl  : 14s9p3d1f contracted to 5s5p2d1f pattern {73211/51111/21/1}
 Group   3 Type H   : 5s1p contracted to 3s1p pattern {311/1}

Atom   0C    basis set group =>   1
Atom   1C    basis set group =>   1
Atom   2Cl   basis set group =>   2
Atom   3Cl   basis set group =>   2
Atom   4Cl   basis set group =>   2
Atom   5Cl   basis set group =>   2
Atom   6Cl   basis set group =>   2
Atom   7H    basis set group =>   3
---------------------------------
AUXILIARY/J BASIS SET INFORMATION
---------------------------------
There are 3 groups of distinct atoms

 Group   1 Type C   : 12s5p4d2f1g contracted to 6s4p3d1f1g pattern {711111/2111/211/2/1}
 Group   2 Type Cl  : 14s5p5d2f1g contracted to 8s4p3d1f1g pattern {71111111/2111/311/2/1}
 Group   3 Type H   : 5s2p1d contracted to 3s1p1d pattern {311/2/1}

Atom   0C    basis set group =>   1
Atom   1C    basis set group =>   1
Atom   2Cl   basis set group =>   2
Atom   3Cl   basis set group =>   2
Atom   4Cl   basis set group =>   2
Atom   5Cl   basis set group =>   2
Atom   6Cl   basis set group =>   2
Atom   7H    basis set group =>   3

Checking for AutoStart:
The File: sp.gbw exists
Trying to determine its content:
     ... Fine, the file contains calculation information
     ... Fine, the calculation information was read
     ... Fine, the file contains a basis set
     ... Fine, the basis set was read
     ... Fine, the file contains a geometry
     ... Fine, the geometry was read
     ... Fine, the file contains a set of orbitals
     ... Fine, the orbitals can be read
     => possible old guess file was deleted
     => GBW file was renamed to GES file
     => GES file is set as startup file
     => Guess is set to MORead
     ... now leaving AutoStart

------------------------------------------------------------------------------
                             ORCA STARTUP CALCULATIONS
                           -- RI-GTO INTEGRALS CHOSEN --
------------------------------------------------------------------------------
------------------------------------------------------------------------------
                   ___                                                        
                  /   \      - P O W E R E D   B Y -                         
                 /     \                                                     
                 |  |  |   _    _      __       _____    __    __             
                 |  |  |  | |  | |    /  \     |  _  \  |  |  /  |          
                  \  \/   | |  | |   /    \    | | | |  |  | /  /          
                 / \  \   | |__| |  /  /\  \   | |_| |  |  |/  /          
                |  |  |   |  __  | /  /__\  \  |    /   |      \           
                |  |  |   | |  | | |   __   |  |    \   |  |\   \          
                \     /   | |  | | |  |  |  |  | |\  \  |  | \   \       
                 \___/    |_|  |_| |__|  |__|  |_| \__\ |__|  \__/        
                                                                              
                      - O R C A' S   B I G   F R I E N D -                    
                                      &                                       
                       - I N T E G R A L  F E E D E R -                       
                                                                              
 v1 FN, 2020, v2 2021, v3 2022-2024                                           
------------------------------------------------------------------------------


----------------------
SHARK INTEGRAL PACKAGE
----------------------

Number of atoms                             ...      8
Number of basis functions                   ...    253
Number of shells                            ...     91
Maximum angular momentum                    ...      3
Integral batch strategy                     ... SHARK/LIBINT Hybrid
RI-J (if used) integral strategy            ... SPLIT-RIJ (Revised 2003 algorithm where possible)
Printlevel                                  ...      1
Contraction scheme used                     ... SEGMENTED contraction
Prescreening option                         ... SCHWARTZ
   Thresh                                   ... 3.000e-11
   Tcut                                     ... 1.000e-12
   Tpresel                                  ... 1.000e-12 
Coulomb Range Separation                    ... NOT USED
Exchange Range Separation                   ... Long Range
   Mu parameter                             ... 3.000e-01
   Scaling (regular/separated)              ... 1.670e-01 8.330e-01
Multipole approximations                    ... NOT USED
Finite Nucleus Model                        ... NOT USED
CABS basis                                  ... NOT available
Auxiliary Coulomb fitting basis             ... AVAILABLE
   # of basis functions in Aux-J            ...    364
   # of shells in Aux-J                     ...    120
   Maximum angular momentum in Aux-J        ...      4
Auxiliary J/K fitting basis                 ... NOT available
Auxiliary Correlation fitting basis         ... NOT available
Auxiliary 'external' fitting basis          ... NOT available

Checking pre-screening integrals            ... done (  0.0 sec) Dimension = 91
Check shell pair data                       ... done (  0.0 sec)
Shell pair information
Shell pair cut-off parameter TPreSel        ...   1.0e-12
Total number of shell pairs                 ...      4186
Shell pairs after pre-screening             ...      3705
Total number of primitive shell pairs       ...     16698
Primitive shell pairs kept                  ...     10227
          la=0 lb=0:    586 shell pairs
          la=1 lb=0:   1021 shell pairs
          la=1 lb=1:    469 shell pairs
          la=2 lb=0:    500 shell pairs
          la=2 lb=1:    428 shell pairs
          la=2 lb=2:    105 shell pairs
          la=3 lb=0:    254 shell pairs
          la=3 lb=1:    216 shell pairs
          la=3 lb=2:     98 shell pairs
          la=3 lb=3:     28 shell pairs

Calculating one electron integrals          ... done (  0.0 sec)
Calculating RI/J V-Matrix + Cholesky decomp.... done (  0.0 sec)
Calculating Nuclear repulsion               ... done (  0.0 sec) ENN=    747.568820409874 Eh

Diagonalization of the overlap matrix:
Smallest eigenvalue                        ... 5.727e-04
Time for diagonalization                   ...    0.004 sec
Threshold for overlap eigenvalues          ... 1.000e-07
Number of eigenvalues below threshold      ... 0
Time for construction of square roots      ...    0.002 sec
Total time needed                          ...    0.007 sec

-------------------
DFT GRID GENERATION
-------------------

General Integration Accuracy     IntAcc      ... 4.388
Radial Grid Type                 RadialGrid  ... OptM3 with GC (2021)
Angular Grid (max. ang.)         AngularGrid ... 4 (Lebedev-302)
Angular grid pruning method      GridPruning ... 4 (adaptive)
Weight generation scheme         WeightScheme... mBecke (2022)
Basis function cutoff            BFCut       ... 1.0000e-11
Integration weight cutoff        WCut        ... 1.0000e-14
Partially contracted basis set               ... off
Rotationally invariant grid construction     ... off
Angular grids for H and He will be reduced by one unit

Total number of grid points                  ...    51977
Total number of batches                      ...      815
Average number of points per batch           ...       63
Average number of grid points per atom       ...     6497

--------------------
COSX GRID GENERATION
--------------------

GRIDX 1
-------
General Integration Accuracy     IntAcc      ... 3.816
Radial Grid Type                 RadialGrid  ... OptM3 with GC (2021)
Angular Grid (max. ang.)         AngularGrid ... 1 (Lebedev-50)
Angular grid pruning method      GridPruning ... 4 (adaptive)
Weight generation scheme         WeightScheme... mBecke (2022)
Basis function cutoff            BFCut       ... 1.0000e-11
Integration weight cutoff        WCut        ... 1.0000e-14
Partially contracted basis set               ... on
Rotationally invariant grid construction     ... off
Angular grids for H and He will be reduced by one unit

Total number of grid points                  ...    11741
Total number of batches                      ...       94
Average number of points per batch           ...      124
Average number of grid points per atom       ...     1468
UseSFitting                                  ... on

GRIDX 2
-------
General Integration Accuracy     IntAcc      ... 4.020
Radial Grid Type                 RadialGrid  ... OptM3 with GC (2021)
Angular Grid (max. ang.)         AngularGrid ... 2 (Lebedev-110)
Angular grid pruning method      GridPruning ... 4 (adaptive)
Weight generation scheme         WeightScheme... mBecke (2022)
Basis function cutoff            BFCut       ... 1.0000e-11
Integration weight cutoff        WCut        ... 1.0000e-14
Partially contracted basis set               ... on
Rotationally invariant grid construction     ... off
Angular grids for H and He will be reduced by one unit

Total number of grid points                  ...    14259
Total number of batches                      ...      116
Average number of points per batch           ...      122
Average number of grid points per atom       ...     1782
UseSFitting                                  ... on

GRIDX 3
-------
General Integration Accuracy     IntAcc      ... 4.338
Radial Grid Type                 RadialGrid  ... OptM3 with GC (2021)
Angular Grid (max. ang.)         AngularGrid ... 3 (Lebedev-194)
Angular grid pruning method      GridPruning ... 4 (adaptive)
Weight generation scheme         WeightScheme... mBecke (2022)
Basis function cutoff            BFCut       ... 1.0000e-11
Integration weight cutoff        WCut        ... 1.0000e-14
Partially contracted basis set               ... on
Rotationally invariant grid construction     ... off
Angular grids for H and He will be reduced by one unit

Total number of grid points                  ...    34551
Total number of batches                      ...      275
Average number of points per batch           ...      125
Average number of grid points per atom       ...     4319
UseSFitting                                  ... on
Initializing property integral containers    ... done (  0.0 sec)

SHARK setup successfully completed in   0.7 seconds

Maximum memory used throughout the entire STARTUP-calculation: 34.2 MB
-------------------------------------------------------------------------------
                                 ORCA GUESS
                   Start orbitals & Density for SCF / CASSCF
-------------------------------------------------------------------------------

------------
SCF SETTINGS
------------
Hamiltonian:
 Density Functional     Method          .... DFT(GTOs)
 Exchange Functional    Exchange        .... WB97X-V
 Correlation Functional Correlation     .... WB97X-V
 Gradients option       PostSCFGGA      .... off
 Hybrid DFT is turned on
   Fraction HF Exchange ScalHFX         ....  0.167000
   Scaling of DF-GGA-X  ScalDFX         ....  0.000000
   Scaling of DF-GGA-C  ScalDFC         ....  1.000000
   Scaling of DF-LDA-C  ScalLDAC        ....  1.000000
   Perturbative correction              ....  0.000000
 Long-range corrected/Screened/Range-Separated Hybrid DFT is turned on
   Amount of maximum screened exact exchange              ....  0.833000
   Range separation parameter mu (erf(mu*r12)/r12)        ....  0.300000
   NL short-range parameter             ....  6.000000
   NL long-range parameter              ....  0.010000
 RI-approximation to the Coulomb term is turned on
   Number of AuxJ basis functions       .... 364
   RIJ-COSX (HFX calculated with COS-X)).... on


General Settings:
 Integral files         IntName         .... sp
 Hartree-Fock type      HFTyp           .... RHF
 Total Charge           Charge          ....    0
 Multiplicity           Mult            ....    1
 Number of Electrons    NEL             ....   98
 Basis Dimension        Dim             ....  253
 Nuclear Repulsion      ENuc            ....    747.5688204099 Eh

Convergence Acceleration:
 AO-DIIS                CNVDIIS         .... on
   Start iteration      DIISMaxIt       ....    12
   Startup error        DIISStart       ....  0.200000
   # of expansion vecs  DIISMaxEq       ....     5
   Bias factor          DIISBfac        ....   1.050
   Max. coefficient     DIISMaxC        ....  10.000
 MO-DIIS                CNVKDIIS        .... off
 Trust-Rad. Augm. Hess. CNVTRAH         .... auto
   Auto Start mean grad. ratio tolernc. ....  1.125000
   Auto Start start iteration           ....     1
   Auto Start num. interpolation iter.  ....    10
   Max. Number of Micro iterations      ....    24
   Max. Number of Macro iterations      .... Maxiter - #DIIS iter
   Number of Davidson start vectors     ....     2
   Converg. threshold    (grad. norm)   ....   1.000e-04
   Grad. Scal. Fac. for Micro threshold ....   0.100
   Minimum threshold for Micro iter.    ....   1.000e-02
   NR start threshold (gradient norm)   ....   1.000e-04
   Initial trust radius                 ....   0.400
   Minimum AH scaling param. (alpha)    ....   1.000
   Maximum AH scaling param. (alpha)    .... 1000.000
   Quad. conv. algorithm                .... NR
   White noise on init. David. guess    .... on
   Maximum white noise                  ....   0.010
   Pseudo random numbers                .... off
   Inactive MOs                         .... canonical
   Orbital update algorithm             .... Taylor
   Preconditioner                       .... Diag
   Full preconditioner red. dimension   ....   250
 SOSCF                  CNVSOSCF        .... on
   Start iteration      SOSCFMaxIt      ....   150
   Startup grad/error   SOSCFStart      ....  0.003300
   Hessian update       SOSCFHessUp     .... L-BFGS
 Level Shifting         CNVShift        .... on
   Level shift para.    LevelShift      ....    0.2500
   Turn off err/grad.   ShiftErr        ....    0.0010
 Zerner damping         CNVZerner       .... off
 Static damping         CNVDamp         .... on
   Fraction old density DampFac         ....    0.7000
   Max. Damping (<1)    DampMax         ....    0.9800
   Min. Damping (>=0)   DampMin         ....    0.0000
   Turn off err/grad.   DampErr         ....    0.1000

SCF Procedure:
 Maximum # iterations   MaxIter         ....   125
 SCF integral mode      SCFMode         .... Direct
   Integral package                     .... SHARK and LIBINT hybrid scheme
 Reset frequency        DirectResetFreq ....    20
 Integral Threshold     Thresh          ....  3.000e-11 Eh
 Primitive CutOff       TCut            ....  1.000e-12 Eh

Convergence Tolerance:
 Convergence Check Mode ConvCheckMode   .... Total+1el-Energy
 Convergence forced     ConvForced      .... 0
 Energy Change          TolE            ....  1.000e-07 Eh
 1-El. energy change                    ....  1.000e-04 Eh
 Orbital Gradient       TolG            ....  1.000e-04
 Orbital Rotation angle TolX            ....  1.000e-04
 DIIS Error             TolErr          ....  1.000e-07

---------------------
INITIAL GUESS: MOREAD
---------------------
Guess MOs are being read from file: sp.ges
Input Geometry matches current geometry (good)
Atom 0: N(Shells)= 11 and 9 - projection required
Input basis set needs projection
NBasis(read)= 178
NBasis(calc)= 253
Basis set overlap was calculated
Using GuessMode=FMatrix for the initial guess
C*T matrix was formed
Effective Fockian was calculated
Effective Fockian was diagonalized
Initial density was built
                      ------------------
                      INITIAL GUESS DONE (   0.0 sec)
                      ------------------
             **** ENERGY FILE WAS UPDATED (sp.en.tmp) ****
Finished Guess after   0.1 sec
Maximum memory used throughout the entire GUESS-calculation: 23.0 MB

-------------------------------------------------------------------------------------------
                                      ORCA LEAN-SCF
                              memory conserving SCF solver
-------------------------------------------------------------------------------------------

----------------------------------------D-I-I-S--------------------------------------------
Iteration    Energy (Eh)           Delta-E    RMSDP     MaxDP     DIISErr   Damp  Time(sec)
-------------------------------------------------------------------------------------------
               ***  Starting incremental Fock matrix formation  ***
    1    -2377.8937191007048568     0.00e+00  8.82e-04  2.51e-02  5.19e-02  0.700   5.2
    2    -2377.9020472037336731    -8.33e-03  7.38e-04  2.12e-02  3.77e-02  0.700   3.7
                               ***Turning on AO-DIIS***
    3    -2377.9082876494817356    -6.24e-03  6.00e-04  1.90e-02  2.68e-02  0.700   3.6
    4    -2377.9128770033617002    -4.59e-03  1.50e-03  4.88e-02  1.91e-02  0.000   3.6
                              *** Initializing SOSCF ***
---------------------------------------S-O-S-C-F--------------------------------------
Iteration    Energy (Eh)           Delta-E    RMSDP     MaxDP     MaxGrad    Time(sec)
--------------------------------------------------------------------------------------
    5    -2377.9246089893908902    -1.17e-02  8.15e-05  2.45e-03  1.43e-03     3.8
               *** Restarting incremental Fock matrix formation ***
    6    -2377.9246826580510970    -7.37e-05  5.13e-05  1.03e-03  6.82e-04     5.2
    7    -2377.9247064080354903    -2.37e-05  3.56e-05  6.34e-04  2.79e-04     4.1
    8    -2377.9247096758890621    -3.27e-06  7.33e-06  2.32e-04  2.72e-04     4.0
    9    -2377.9247106443881421    -9.68e-07  4.53e-06  1.27e-04  1.26e-04     3.6
   10    -2377.9247108326708258    -1.88e-07  1.08e-06  3.69e-05  1.12e-05     3.4
                  *** Gradient check signals convergence ***

               *****************************************************
               *                     SUCCESS                       *
               *           SCF CONVERGED AFTER  10 CYCLES          *
               *****************************************************


------------------
NL GRID GENERATION
------------------

General Integration Accuracy     IntAcc      ... 4.004
Radial Grid Type                 RadialGrid  ... OptM3 with GC (2021)
Angular Grid (max. ang.)         AngularGrid ... 2 (Lebedev-110)
Angular grid pruning method      GridPruning ... 4 (adaptive)
Weight generation scheme         WeightScheme... mBecke (2022)
Basis function cutoff            BFCut       ... 1.0000e-10
Integration weight cutoff        WCut        ... 1.0000e-14
Partially contracted basis set               ... off
Rotationally invariant grid construction     ... off
Angular grids for H and He will be reduced by one unit

Total number of grid points                  ...    16671
Total number of batches                      ...      265
Average number of points per batch           ...       62
Average number of grid points per atom       ...     2084
Final grid set up in    0.1 sec

-------------------------------------------------------------------------------
                    post-SCF DFT-NL dispersion correction                      
-------------------------------------------------------------------------------

SCF Energy:    -2377.924710833 
NL    Energy:      0.391773090 
SC+NL Energy:  -2377.532937743 
NL done in  :              0.8 sec
-------------------------------------------------------------------------------
Recomputing exchange energy using gridx3       ... done (   10.416 sec)
Old exchange energy                            :    -37.865764639 Eh
New exchange energy                            :    -37.865777914 Eh
Exchange energy change after final integration :     -0.000013275 Eh
Total energy after final integration           :  -2377.532951018 Eh
             **** ENERGY FILE WAS UPDATED (sp.en.tmp) ****

----------------
TOTAL SCF ENERGY
----------------

Total Energy       :      -2377.53295101800768 Eh          -64695.96068 eV

Components:
Nuclear Repulsion  :        747.56882040987421 Eh           20342.38179 eV
Electronic Energy  :      -3125.49353124254503 Eh          -85049.00279 eV
One Electron Energy:      -4770.70574128001408 Eh         -129817.50301 eV
Two Electron Energy:       1645.21221003746882 Eh           44768.50022 eV

Virial components:
Potential Energy   :      -4751.22806319118172 Eh         -129287.48845 eV
Kinetic Energy     :       2373.69511217317404 Eh           64591.52777 eV
Virial Ratio       :          2.00161682046913

DFT components:
N(Alpha)           :       48.999996037817 electrons
N(Beta)            :       48.999996037817 electrons
N(Total)           :       97.999992075635 electrons
E(X)               :     -109.600889168672 Eh       
E(C)               :       -5.045261448862 Eh       
NL Energy, E(C,NL) :        0.391773090107 Eh       
E(XC)              :     -114.254377527427 Eh       

---------------
SCF CONVERGENCE
---------------

  Last Energy change         ...    1.8828e-07  Tolerance :   1.0000e-07
  Last MAX-Density change    ...    3.6892e-05  Tolerance :   1.0000e-05
  Last RMS-Density change    ...    1.0791e-06  Tolerance :   1.0000e-06
  Last DIIS Error            ...    1.4298e-03  Tolerance :   1.0000e-07
  Last Orbital Gradient      ...    1.1167e-05  Tolerance :   1.0000e-04
  Last Orbital Rotation      ...    2.1000e-05  Tolerance :   1.0000e-04


----------------
ORBITAL ENERGIES
----------------

  NO   OCC          E(Eh)            E(eV) 
   0   2.0000    -101.554789     -2763.4463 
   1   2.0000    -101.554786     -2763.4462 
   2   2.0000    -101.553607     -2763.4141 
   3   2.0000    -101.546038     -2763.2082 
   4   2.0000    -101.546035     -2763.2081 
   5   2.0000     -10.493972      -285.5555 
   6   2.0000     -10.439861      -284.0831 
   7   2.0000      -9.594336      -261.0752 
   8   2.0000      -9.594328      -261.0749 
   9   2.0000      -9.593133      -261.0424 
  10   2.0000      -9.585528      -260.8355 
  11   2.0000      -9.585527      -260.8355 
  12   2.0000      -7.350200      -200.0091 
  13   2.0000      -7.350196      -200.0090 
  14   2.0000      -7.349037      -199.9775 
  15   2.0000      -7.341236      -199.7652 
  16   2.0000      -7.341233      -199.7651 
  17   2.0000      -7.339766      -199.7252 
  18   2.0000      -7.339762      -199.7251 
  19   2.0000      -7.339593      -199.7205 
  20   2.0000      -7.339588      -199.7203 
  21   2.0000      -7.338475      -199.6901 
  22   2.0000      -7.338450      -199.6894 
  23   2.0000      -7.331036      -199.4876 
  24   2.0000      -7.331035      -199.4876 
  25   2.0000      -7.330920      -199.4845 
  26   2.0000      -7.330919      -199.4845 
  27   2.0000      -1.113780       -30.3075 
  28   2.0000      -1.041249       -28.3338 
  29   2.0000      -0.989761       -26.9328 
  30   2.0000      -0.984658       -26.7939 
  31   2.0000      -0.966586       -26.3022 
  32   2.0000      -0.850907       -23.1544 
  33   2.0000      -0.734309       -19.9816 
  34   2.0000      -0.643799       -17.5187 
  35   2.0000      -0.618663       -16.8347 
  36   2.0000      -0.617475       -16.8023 
  37   2.0000      -0.570803       -15.5323 
  38   2.0000      -0.552803       -15.0425 
  39   2.0000      -0.481352       -13.0983 
  40   2.0000      -0.476082       -12.9549 
  41   2.0000      -0.463174       -12.6036 
  42   2.0000      -0.457595       -12.4518 
  43   2.0000      -0.450470       -12.2579 
  44   2.0000      -0.443035       -12.0556 
  45   2.0000      -0.442150       -12.0315 
  46   2.0000      -0.429409       -11.6848 
  47   2.0000      -0.426298       -11.6002 
  48   2.0000      -0.414044       -11.2667 
  49   0.0000       0.040638         1.1058 
  50   0.0000       0.053873         1.4660 
  51   0.0000       0.055782         1.5179 
  52   0.0000       0.091749         2.4966 
  53   0.0000       0.126136         3.4323 
  54   0.0000       0.134062         3.6480 
  55   0.0000       0.173081         4.7098 
  56   0.0000       0.219630         5.9764 
  57   0.0000       0.258621         7.0374 
  58   0.0000       0.260708         7.0942 
  59   0.0000       0.298643         8.1265 
*Only the first 10 virtual orbitals were printed.

                    ********************************
                    * MULLIKEN POPULATION ANALYSIS *
                    ********************************

-----------------------
MULLIKEN ATOMIC CHARGES
-----------------------
   0 C :   -0.043725
   1 C :    0.093904
   2 Cl:   -0.038447
   3 Cl:   -0.038465
   4 Cl:   -0.024541
   5 Cl:   -0.059157
   6 Cl:   -0.059159
   7 H :    0.169590
Sum of atomic charges:   -0.0000000

--------------------------------
MULLIKEN REDUCED ORBITAL CHARGES
--------------------------------
  0 C s       :     3.193332  s :     3.193332
      pz      :     1.031376  p :     2.654855
      px      :     0.857373
      py      :     0.766106
      dz2     :     0.034891  d :     0.186338
      dxz     :     0.023385
      dyz     :     0.030241
      dx2y2   :     0.050292
      dxy     :     0.047529
      f0      :     0.001121  f :     0.009200
      f+1     :     0.001035
      f-1     :     0.000786
      f+2     :     0.000930
      f-2     :     0.001350
      f+3     :     0.001580
      f-3     :     0.002398

  1 C s       :     3.141642  s :     3.141642
      pz      :     0.807921  p :     2.492477
      px      :     0.901924
      py      :     0.782632
      dz2     :     0.057358  d :     0.259230
      dxz     :     0.050733
      dyz     :     0.054499
      dx2y2   :     0.048711
      dxy     :     0.047930
      f0      :     0.001817  f :     0.012746
      f+1     :     0.002359
      f-1     :     0.002283
      f+2     :     0.001094
      f-2     :     0.001382
      f+3     :     0.001554
      f-3     :     0.002259

  2 Cls       :     5.901340  s :     5.901340
      pz      :     3.859232  p :    11.076451
      px      :     3.764636
      py      :     3.452583
      dz2     :     0.008028  d :     0.055261
      dxz     :     0.004861
      dyz     :     0.010849
      dx2y2   :     0.011765
      dxy     :     0.019757
      f0      :     0.000595  f :     0.005394
      f+1     :     0.000294
      f-1     :     0.000652
      f+2     :     0.000425
      f-2     :     0.000996
      f+3     :     0.001549
      f-3     :     0.000883

  3 Cls       :     5.901350  s :     5.901350
      pz      :     3.859115  p :    11.076465
      px      :     3.764451
      py      :     3.452899
      dz2     :     0.008026  d :     0.055257
      dxz     :     0.004868
      dyz     :     0.010850
      dx2y2   :     0.011755
      dxy     :     0.019758
      f0      :     0.000596  f :     0.005394
      f+1     :     0.000294
      f-1     :     0.000652
      f+2     :     0.000424
      f-2     :     0.000997
      f+3     :     0.001548
      f-3     :     0.000883

  4 Cls       :     5.900208  s :     5.900208
      pz      :     3.192042  p :    11.061833
      px      :     3.934911
      py      :     3.934880
      dz2     :     0.035012  d :     0.056843
      dxz     :     0.009985
      dyz     :     0.009488
      dx2y2   :     0.000707
      dxy     :     0.001650
      f0      :     0.003301  f :     0.005658
      f+1     :     0.001169
      f-1     :     0.000973
      f+2     :     0.000059
      f-2     :     0.000123
      f+3     :     0.000014
      f-3     :     0.000019

  5 Cls       :     5.898926  s :     5.898926
      pz      :     3.907377  p :    11.100104
      px      :     3.744677
      py      :     3.448049
      dz2     :     0.008833  d :     0.054775
      dxz     :     0.004670
      dyz     :     0.008831
      dx2y2   :     0.011235
      dxy     :     0.021205
      f0      :     0.000474  f :     0.005352
      f+1     :     0.000383
      f-1     :     0.000795
      f+2     :     0.000277
      f-2     :     0.000843
      f+3     :     0.001681
      f-3     :     0.000900

  6 Cls       :     5.898930  s :     5.898930
      pz      :     3.907295  p :    11.100103
      px      :     3.744470
      py      :     3.448338
      dz2     :     0.008832  d :     0.054774
      dxz     :     0.004676
      dyz     :     0.008830
      dx2y2   :     0.011226
      dxy     :     0.021209
      f0      :     0.000474  f :     0.005352
      f+1     :     0.000383
      f-1     :     0.000794
      f+2     :     0.000277
      f-2     :     0.000844
      f+3     :     0.001680
      f-3     :     0.000900

  7 H s       :     0.808161  s :     0.808161
      pz      :     0.015408  p :     0.022249
      px      :     0.003631
      py      :     0.003210


------------------------
MULLIKEN OVERLAP CHARGES
------------------------
B(  0-C ,  1-C ) :   0.7889 B(  0-C ,  2-Cl) :  -0.0723 B(  0-C ,  3-Cl) :  -0.0723 
B(  0-C ,  4-Cl) :  -0.0677 B(  0-C ,  5-Cl) :   0.6931 B(  0-C ,  6-Cl) :   0.6930 
B(  0-C ,  7-H ) :   0.8587 B(  1-C ,  2-Cl) :   0.7564 B(  1-C ,  3-Cl) :   0.7564 
B(  1-C ,  4-Cl) :   0.7863 B(  1-C ,  7-H ) :  -0.0817 B(  2-Cl,  3-Cl) :  -0.1359 
B(  2-Cl,  4-Cl) :  -0.1297 B(  3-Cl,  4-Cl) :  -0.1297 B(  5-Cl,  6-Cl) :  -0.1217 
B(  5-Cl,  7-H ) :  -0.0696 B(  6-Cl,  7-H ) :  -0.0696 


                     *******************************
                     * LOEWDIN POPULATION ANALYSIS *
                     *******************************

----------------------
LOEWDIN ATOMIC CHARGES
----------------------
   0 C :   -0.811118
   1 C :   -1.081643
   2 Cl:    0.355669
   3 Cl:    0.355635
   4 Cl:    0.374391
   5 Cl:    0.336865
   6 Cl:    0.336862
   7 H :    0.133340

-------------------------------
LOEWDIN REDUCED ORBITAL CHARGES
-------------------------------
  0 C s       :     2.931531  s :     2.931531
      pz      :     1.102577  p :     3.154287
      px      :     1.047839
      py      :     1.003871
      dz2     :     0.134425  d :     0.667390
      dxz     :     0.088919
      dyz     :     0.096776
      dx2y2   :     0.166312
      dxy     :     0.180959
      f0      :     0.005881  f :     0.057910
      f+1     :     0.005231
      f-1     :     0.005030
      f+2     :     0.008381
      f-2     :     0.009556
      f+3     :     0.010396
      f-3     :     0.013436

  1 C s       :     2.966555  s :     2.966555
      pz      :     1.052538  p :     3.180009
      px      :     1.095643
      py      :     1.031827
      dz2     :     0.209099  d :     0.857436
      dxz     :     0.154135
      dyz     :     0.162520
      dx2y2   :     0.159467
      dxy     :     0.172214
      f0      :     0.010241  f :     0.077644
      f+1     :     0.013333
      f-1     :     0.013310
      f+2     :     0.009243
      f-2     :     0.010219
      f+3     :     0.009167
      f-3     :     0.012131

  2 Cls       :     5.594299  s :     5.594299
      pz      :     3.802311  p :    10.947648
      px      :     3.702715
      py      :     3.442621
      dz2     :     0.013393  d :     0.091546
      dxz     :     0.007762
      dyz     :     0.018301
      dx2y2   :     0.020376
      dxy     :     0.031713
      f0      :     0.001138  f :     0.010839
      f+1     :     0.000576
      f-1     :     0.001356
      f+2     :     0.000888
      f-2     :     0.001999
      f+3     :     0.002967
      f-3     :     0.001914

  3 Cls       :     5.594320  s :     5.594320
      pz      :     3.802215  p :    10.947669
      px      :     3.702553
      py      :     3.442902
      dz2     :     0.013390  d :     0.091538
      dxz     :     0.007774
      dyz     :     0.018301
      dx2y2   :     0.020359
      dxy     :     0.031715
      f0      :     0.001138  f :     0.010838
      f+1     :     0.000576
      f-1     :     0.001355
      f+2     :     0.000888
      f-2     :     0.002002
      f+3     :     0.002965
      f-3     :     0.001913

  4 Cls       :     5.583675  s :     5.583675
      pz      :     3.209915  p :    10.935812
      px      :     3.859667
      py      :     3.866230
      dz2     :     0.057365  d :     0.094645
      dxz     :     0.017691
      dyz     :     0.016321
      dx2y2   :     0.000756
      dxy     :     0.002512
      f0      :     0.006445  f :     0.011476
      f+1     :     0.002634
      f-1     :     0.002137
      f+2     :     0.000046
      f-2     :     0.000154
      f+3     :     0.000027
      f-3     :     0.000033

  5 Cls       :     5.587684  s :     5.587684
      pz      :     3.847405  p :    10.972867
      px      :     3.687064
      py      :     3.438398
      dz2     :     0.014054  d :     0.091605
      dxz     :     0.008161
      dyz     :     0.016446
      dx2y2   :     0.019782
      dxy     :     0.033162
      f0      :     0.001040  f :     0.010979
      f+1     :     0.000733
      f-1     :     0.001613
      f+2     :     0.000618
      f-2     :     0.001850
      f+3     :     0.003160
      f-3     :     0.001965

  6 Cls       :     5.587686  s :     5.587686
      pz      :     3.847337  p :    10.972869
      px      :     3.686880
      py      :     3.438653
      dz2     :     0.014052  d :     0.091604
      dxz     :     0.008172
      dyz     :     0.016444
      dx2y2   :     0.019767
      dxy     :     0.033168
      f0      :     0.001040  f :     0.010978
      f+1     :     0.000734
      f-1     :     0.001612
      f+2     :     0.000618
      f-2     :     0.001852
      f+3     :     0.003159
      f-3     :     0.001965

  7 H s       :     0.802595  s :     0.802595
      pz      :     0.043525  p :     0.064065
      px      :     0.011018
      py      :     0.009522


---------------------------------
LOEWDIN BOND ORDERS (THRESH 0.050000)
---------------------------------
B(  0-C ,  1-C ) :   1.2414 B(  0-C ,  2-Cl) :   0.1459 B(  0-C ,  3-Cl) :   0.1459 
B(  0-C ,  4-Cl) :   0.1307 B(  0-C ,  5-Cl) :   1.6275 B(  0-C ,  6-Cl) :   1.6275 
B(  0-C ,  7-H ) :   0.8675 B(  1-C ,  2-Cl) :   1.6051 B(  1-C ,  3-Cl) :   1.6050 
B(  1-C ,  4-Cl) :   1.6542 B(  1-C ,  5-Cl) :   0.1308 B(  1-C ,  6-Cl) :   0.1308 
B(  1-C ,  7-H ) :   0.0828 B(  2-Cl,  3-Cl) :   0.1051 B(  2-Cl,  4-Cl) :   0.1020 
B(  3-Cl,  4-Cl) :   0.1019 B(  5-Cl,  6-Cl) :   0.1029 B(  5-Cl,  7-H ) :   0.0500 
B(  6-Cl,  7-H ) :   0.0500 

------------------------------------------
LOEWDIN REDUCED ORBITAL POPULATIONS PER MO
-------------------------------------------
THRESHOLD FOR PRINTING IS 0.1%%
                      0         1         2         3         4         5   
                 -101.55479 -101.55479 -101.55361 -101.54604 -101.54603 -10.49397
                   2.00000   2.00000   2.00000   2.00000   2.00000   2.00000
                  --------  --------  --------  --------  --------  --------
 1 C  s               0.0       0.0       0.0       0.0       0.0      99.6
 2 Cl s              98.5       1.5       0.0       0.0       0.0       0.0
 3 Cl s               1.5      98.5       0.0       0.0       0.0       0.0
 4 Cl s               0.0       0.0     100.0       0.0       0.0       0.0
 5 Cl s               0.0       0.0       0.0      47.3      52.7       0.0
 6 Cl s               0.0       0.0       0.0      52.7      47.3       0.0

                      6         7         8         9        10        11   
                 -10.43986  -9.59434  -9.59433  -9.59313  -9.58553  -9.58553
                   2.00000   2.00000   2.00000   2.00000   2.00000   2.00000
                  --------  --------  --------  --------  --------  --------
 0 C  s              99.5       0.0       0.0       0.0       0.0       0.0
 0 C  py              0.0       0.0       0.0       0.0       0.2       0.0
 1 C  pz              0.0       0.0       0.0       0.1       0.0       0.0
 1 C  py              0.0       0.2       0.0       0.0       0.0       0.0
 2 Cl s               0.0      74.7      25.0       0.0       0.0       0.0
 3 Cl s               0.0      25.0      74.8       0.0       0.0       0.0
 4 Cl s               0.0       0.0       0.0      99.7       0.0       0.0
 5 Cl s               0.0       0.0       0.0       0.0      15.9      83.8
 6 Cl s               0.0       0.0       0.0       0.0      83.8      15.9

                     12        13        14        15        16        17   
                  -7.35020  -7.35020  -7.34904  -7.34124  -7.34123  -7.33977
                   2.00000   2.00000   2.00000   2.00000   2.00000   2.00000
                  --------  --------  --------  --------  --------  --------
 2 Cl pz             10.6       0.1       0.0       0.0       0.0      79.9
 2 Cl px             24.3       0.1       0.0       0.0       0.0      15.1
 2 Cl py             64.6       0.4       0.0       0.0       0.0       1.5
 3 Cl pz              0.1      10.6       0.0       0.0       0.0       2.8
 3 Cl px              0.1      24.3       0.0       0.0       0.0       0.6
 3 Cl py              0.4      64.5       0.0       0.0       0.0       0.0
 4 Cl pz              0.0       0.0      99.7       0.0       0.0       0.0
 4 Cl px              0.0       0.0       0.3       0.0       0.0       0.0
 5 Cl pz              0.0       0.0       0.0       2.7       3.0       0.0
 5 Cl px              0.0       0.0       0.0      13.0      14.4       0.0
 5 Cl py              0.0       0.0       0.0      31.7      35.3       0.0
 6 Cl pz              0.0       0.0       0.0       3.0       2.7       0.0
 6 Cl px              0.0       0.0       0.0      14.4      13.0       0.0
 6 Cl py              0.0       0.0       0.0      35.3      31.6       0.0

                     18        19        20        21        22        23   
                  -7.33976  -7.33959  -7.33959  -7.33847  -7.33845  -7.33104
                   2.00000   2.00000   2.00000   2.00000   2.00000   2.00000
                  --------  --------  --------  --------  --------  --------
 2 Cl pz              2.9       6.2       0.4       0.0       0.0       0.0
 2 Cl px              0.5      56.3       3.7       0.0       0.0       0.0
 2 Cl py              0.1      31.4       2.1       0.0       0.0       0.0
 3 Cl pz             79.9       0.4       6.2       0.0       0.0       0.0
 3 Cl px             15.1       3.7      56.2       0.0       0.0       0.0
 3 Cl py              1.5       2.1      31.4       0.0       0.0       0.0
 4 Cl pz              0.0       0.0       0.0       0.0       0.3       0.0
 4 Cl px              0.0       0.0       0.0       0.0      99.7       0.0
 4 Cl py              0.0       0.0       0.0     100.0       0.0       0.0
 5 Cl pz              0.0       0.0       0.0       0.0       0.0       2.1
 5 Cl px              0.0       0.0       0.0       0.0       0.0      29.8
 5 Cl py              0.0       0.0       0.0       0.0       0.0       9.4
 6 Cl pz              0.0       0.0       0.0       0.0       0.0       3.1
 6 Cl px              0.0       0.0       0.0       0.0       0.0      42.2
 6 Cl py              0.0       0.0       0.0       0.0       0.0      13.3

                     24        25        26        27        28        29   
                  -7.33104  -7.33092  -7.33092  -1.11378  -1.04125  -0.98976
                   2.00000   2.00000   2.00000   2.00000   2.00000   2.00000
                  --------  --------  --------  --------  --------  --------
 0 C  s               0.0       0.0       0.0      15.0      13.1       0.0
 0 C  pz              0.0       0.0       0.0       1.6       0.2       0.0
 0 C  px              0.0       0.0       0.0       1.3       9.2       0.0
 0 C  py              0.0       0.0       0.0       0.0       0.0      10.6
 0 C  dz2             0.0       0.0       0.0       0.3       0.4       0.0
 0 C  dxz             0.0       0.0       0.0       0.1       0.4       0.0
 0 C  dyz             0.0       0.0       0.0       0.0       0.0       0.5
 0 C  dx2y2           0.0       0.0       0.0       0.1       0.8       0.0
 0 C  dxy             0.0       0.0       0.0       0.0       0.0       0.4
 0 C  f+3             0.0       0.0       0.0       0.1       0.2       0.0
 1 C  s               0.0       0.0       0.0      28.4       3.2       0.0
 1 C  pz              0.0       0.0       0.0       0.0       0.7       0.0
 1 C  px              0.0       0.0       0.0       0.0       8.6       0.0
 1 C  py              0.0       0.0       0.0       0.0       0.0      18.4
 1 C  dz2             0.0       0.0       0.0       0.0       0.1       0.0
 1 C  dxz             0.0       0.0       0.0       0.0       0.4       0.0
 1 C  dyz             0.0       0.0       0.0       0.0       0.0       1.2
 1 C  dx2y2           0.0       0.0       0.0       0.0       0.8       0.0
 1 C  dxy             0.0       0.0       0.0       0.0       0.0       1.6
 1 C  f0              0.0       0.0       0.0       0.2       0.1       0.0
 1 C  f+3             0.0       0.0       0.0       0.2       0.0       0.0
 2 Cl s               0.0       0.0       0.0       9.8       5.9      23.2
 2 Cl pz              0.0       0.0       0.0       0.2       0.1       0.0
 2 Cl px              0.0       0.0       0.0       0.6       0.0       0.1
 2 Cl py              0.0       0.0       0.0       1.5       0.3       0.1
 2 Cl dxy             0.0       0.0       0.0       0.2       0.0       0.0
 3 Cl s               0.0       0.0       0.0       9.8       5.9      23.2
 3 Cl pz              0.0       0.0       0.0       0.2       0.1       0.0
 3 Cl px              0.0       0.0       0.0       0.6       0.0       0.1
 3 Cl py              0.0       0.0       0.0       1.5       0.3       0.1
 3 Cl dxy             0.0       0.0       0.0       0.2       0.0       0.0
 4 Cl s               0.0       0.0       0.0       9.8       4.9       0.0
 4 Cl pz              0.0       0.0       0.0       2.4       0.2       0.0
 4 Cl px              0.0       0.0       0.0       0.0       0.1       0.0
 4 Cl py              0.0       0.0       0.0       0.0       0.0       0.2
 4 Cl dz2             0.0       0.0       0.0       0.5       0.1       0.0
 5 Cl s               0.0       0.0       0.0       4.4      18.8       9.8
 5 Cl pz              3.5      32.4      56.4       0.0       0.1       0.0
 5 Cl px             42.1       0.2       0.5       0.5       0.1       0.1
 5 Cl py             13.1       3.7       6.8       0.8       1.0       0.0
 5 Cl dx2y2           0.0       0.0       0.0       0.0       0.1       0.0
 5 Cl dxy             0.0       0.0       0.0       0.1       0.1       0.0
 6 Cl s               0.0       0.0       0.0       4.4      18.8       9.8
 6 Cl pz              2.5      56.8      32.0       0.0       0.1       0.0
 6 Cl px             29.7       0.4       0.3       0.5       0.1       0.1
 6 Cl py              9.2       6.6       4.0       0.8       1.0       0.0
 6 Cl dx2y2           0.0       0.0       0.0       0.0       0.1       0.0
 6 Cl dxy             0.0       0.0       0.0       0.1       0.1       0.0
 7 H  s               0.0       0.0       0.0       2.7       2.3       0.0
 7 H  pz              0.0       0.0       0.0       0.2       0.2       0.0

                     30        31        32        33        34        35   
                  -0.98466  -0.96659  -0.85091  -0.73431  -0.64380  -0.61866
                   2.00000   2.00000   2.00000   2.00000   2.00000   2.00000
                  --------  --------  --------  --------  --------  --------
 0 C  s               0.1       0.0      10.6       5.9       0.2       0.7
 0 C  pz              0.8       0.0       0.6      10.2      24.8       0.0
 0 C  px              0.1       0.0      10.3       2.0       0.3      18.5
 0 C  py              0.0      11.8       0.0       0.0       0.0       0.0
 0 C  dz2             0.2       0.0       0.4       0.5       0.0       0.1
 0 C  dxz             0.1       0.0       0.6       0.3       0.1       0.0
 0 C  dyz             0.0       0.5       0.0       0.0       0.0       0.0
 0 C  dx2y2           0.0       0.0       0.9       0.2       0.0       0.0
 0 C  dxy             0.0       4.1       0.0       0.0       0.0       0.0
 0 C  f-2             0.0       0.1       0.0       0.0       0.0       0.0
 1 C  s               0.0       0.0       5.4      10.2       0.4       0.1
 1 C  pz             20.4       0.0       2.5       0.6       1.4      11.8
 1 C  px              2.7       0.0       9.5       0.4      15.9       6.6
 1 C  py              0.0       3.9       0.0       0.0       0.0       0.0
 1 C  dz2             4.5       0.0       0.0       0.2       0.5       0.1
 1 C  dxz             0.1       0.0       1.1       0.2       0.1       0.0
 1 C  dyz             0.0       0.3       0.0       0.0       0.0       0.0
 1 C  dx2y2           0.2       0.0       0.8       0.0       0.1       0.1
 1 C  dxy             0.0       2.3       0.0       0.0       0.0       0.0
 1 C  f-2             0.0       0.1       0.0       0.0       0.0       0.0
 2 Cl s              11.0      12.2       6.6       4.4       2.5       0.0
 2 Cl pz              0.2       0.0       0.0       1.3       0.3       3.3
 2 Cl px              0.0       0.0       1.1       1.1       0.2       1.8
 2 Cl py              0.0       0.1       0.9       4.1       9.9       0.2
 2 Cl dyz             0.0       0.0       0.0       0.2       0.1       0.2
 2 Cl dx2y2           0.0       0.0       0.0       0.1       0.4       0.1
 2 Cl dxy             0.0       0.0       0.3       0.2       0.1       0.0
 3 Cl s              11.0      12.2       6.6       4.4       2.5       0.0
 3 Cl pz              0.2       0.0       0.0       1.3       0.3       3.3
 3 Cl px              0.0       0.0       1.1       1.1       0.2       1.8
 3 Cl py              0.0       0.1       0.9       4.1       9.9       0.2
 3 Cl dyz             0.0       0.0       0.0       0.2       0.1       0.2
 3 Cl dx2y2           0.0       0.0       0.0       0.1       0.4       0.1
 3 Cl dxy             0.0       0.0       0.3       0.2       0.1       0.0
 4 Cl s              47.3       0.0       3.6       8.4       0.4       2.9
 4 Cl pz              0.3       0.0       1.0      10.6       1.2      13.7
 4 Cl px              0.0       0.0       0.1       0.0       4.0       2.3
 4 Cl dz2             0.0       0.0       0.2       1.0       0.0       0.5
 4 Cl dxz             0.0       0.0       0.1       0.0       0.3       0.2
 4 Cl f0              0.0       0.0       0.0       0.1       0.0       0.1
 5 Cl s               0.0      25.7      11.2       3.0       0.6       1.9
 5 Cl pz              0.0       0.0       0.2       1.4       2.4       0.8
 5 Cl px              0.0       0.0       1.4       0.6       1.7       0.0
 5 Cl py              0.0       0.2       1.4       2.5       1.7      11.8
 5 Cl dz2             0.0       0.0       0.1       0.0       0.2       0.1
 5 Cl dyz             0.0       0.0       0.0       0.2       0.1       0.1
 5 Cl dx2y2           0.0       0.0       0.0       0.1       0.0       0.4
 5 Cl dxy             0.0       0.0       0.4       0.1       0.1       0.1
 6 Cl s               0.0      25.7      11.2       3.0       0.6       1.9
 6 Cl pz              0.0       0.0       0.2       1.4       2.4       0.8
 6 Cl px              0.0       0.0       1.4       0.6       1.7       0.0
 6 Cl py              0.0       0.2       1.4       2.5       1.7      11.8
 6 Cl dz2             0.0       0.0       0.1       0.0       0.2       0.1
 6 Cl dyz             0.0       0.0       0.0       0.2       0.1       0.1
 6 Cl dx2y2           0.0       0.0       0.0       0.1       0.0       0.4
 6 Cl dxy             0.0       0.0       0.4       0.1       0.1       0.1
 7 H  s               0.1       0.0       4.1       9.3       8.7       0.0
 7 H  pz              0.0       0.0       0.6       0.7       0.3       0.0
 7 H  px              0.0       0.0       0.0       0.1       0.0       0.3

                     36        37        38        39        40        41   
                  -0.61747  -0.57080  -0.55280  -0.48135  -0.47608  -0.46317
                   2.00000   2.00000   2.00000   2.00000   2.00000   2.00000
                  --------  --------  --------  --------  --------  --------
 0 C  s               0.0       0.1       0.0       0.1       0.0       0.6
 0 C  pz              0.0       9.6       0.0       1.0       0.0       0.1
 0 C  px              0.0       2.2       0.0       0.4       0.0       1.3
 0 C  py              9.2       0.0      15.8       0.0       0.7       0.0
 0 C  dz2             0.0       0.9       0.0       0.9       0.0       0.2
 0 C  dxz             0.0       0.7       0.0       0.0       0.0       0.0
 0 C  dyz             0.2       0.0       0.1       0.0       0.4       0.0
 0 C  dx2y2           0.0       0.5       0.0       0.9       0.0       1.9
 0 C  dxy             0.7       0.0       1.2       0.0       0.6       0.0
 0 C  f+1             0.0       0.1       0.0       0.0       0.0       0.0
 1 C  s               0.0       0.0       0.0       0.1       0.0       0.2
 1 C  pz              0.0      10.8       0.0       1.8       0.0       0.1
 1 C  px              0.0       2.0       0.0       0.8       0.0       0.6
 1 C  py             18.7       0.0       6.0       0.0       2.2       0.0
 1 C  dz2             0.0       0.6       0.0       2.1       0.0       0.2
 1 C  dxz             0.0       0.9       0.0       1.7       0.0       0.1
 1 C  dyz             0.0       0.0       0.7       0.0       5.3       0.0
 1 C  dx2y2           0.0       0.5       0.0       1.2       0.0       3.2
 1 C  dxy             0.2       0.0       1.8       0.0       0.1       0.0
 1 C  f+2             0.0       0.0       0.0       0.0       0.0       0.2
 1 C  f-2             0.0       0.0       0.1       0.0       0.1       0.0
 2 Cl s               3.2       0.4       0.6       0.0       0.1       0.0
 2 Cl pz              2.9       0.9       4.9      12.4      10.9       1.2
 2 Cl px              8.9       0.1       1.2       7.8       9.5      23.1
 2 Cl py              5.8       9.6       3.1       2.5       4.3       2.8
 2 Cl dz2             0.0       0.1       0.0       0.0       0.0       0.0
 2 Cl dxz             0.1       0.0       0.1       0.0       0.0       0.0
 2 Cl dyz             0.1       0.0       0.0       0.0       0.0       0.0
 2 Cl dx2y2           0.0       0.2       0.0       0.0       0.0       0.0
 2 Cl dxy             0.3       0.0       0.1       0.0       0.0       0.0
 3 Cl s               3.2       0.4       0.6       0.0       0.1       0.0
 3 Cl pz              2.9       0.9       4.9      12.4      10.9       1.2
 3 Cl px              8.9       0.1       1.2       7.8       9.5      23.1
 3 Cl py              5.8       9.6       3.1       2.5       4.3       2.8
 3 Cl dz2             0.0       0.1       0.0       0.0       0.0       0.0
 3 Cl dxz             0.1       0.0       0.1       0.0       0.0       0.0
 3 Cl dyz             0.1       0.0       0.0       0.0       0.0       0.0
 3 Cl dx2y2           0.0       0.2       0.0       0.0       0.0       0.0
 3 Cl dxy             0.3       0.0       0.1       0.0       0.0       0.0
 4 Cl s               0.0       2.0       0.0       0.1       0.0       0.0
 4 Cl pz              0.0      19.0       0.0       7.5       0.0       0.1
 4 Cl px              0.0       0.2       0.0      17.7       0.0       1.1
 4 Cl py              4.8       0.0       6.5       0.0      30.8       0.0
 4 Cl dz2             0.0       0.4       0.0       0.1       0.0       0.0
 4 Cl dyz             0.4       0.0       0.2       0.0       0.0       0.0
 5 Cl s               1.8       0.5       1.7       0.0       0.1       0.0
 5 Cl pz              0.3       1.4       4.3       0.4       2.0       1.5
 5 Cl px              5.8       0.0       8.5       7.6       1.2      12.1
 5 Cl py              3.0       8.2       8.4       0.3       1.7       3.9
 5 Cl dx2y2           0.0       0.2       0.0       0.0       0.0       0.0
 5 Cl dxy             0.2       0.0       0.3       0.0       0.0       0.1
 6 Cl s               1.8       0.5       1.7       0.0       0.1       0.0
 6 Cl pz              0.3       1.3       4.3       0.4       2.0       1.5
 6 Cl px              5.8       0.0       8.5       7.6       1.2      12.1
 6 Cl py              3.0       8.2       8.4       0.3       1.7       3.9
 6 Cl dx2y2           0.0       0.2       0.0       0.0       0.0       0.0
 6 Cl dxy             0.2       0.0       0.3       0.0       0.0       0.1
 7 H  s               0.0       5.4       0.0       1.2       0.0       0.2
 7 H  pz              0.0       0.1       0.0       0.0       0.0       0.0
 7 H  py              0.1       0.0       0.3       0.0       0.0       0.0

                     42        43        44        45        46        47   
                  -0.45760  -0.45047  -0.44304  -0.44215  -0.42941  -0.42630
                   2.00000   2.00000   2.00000   2.00000   2.00000   2.00000
                  --------  --------  --------  --------  --------  --------
 0 C  s               0.0       0.5       0.1       0.0       0.1       0.0
 0 C  pz              0.0       0.3       3.4       0.0       2.3       0.0
 0 C  px              0.0       4.9       0.8       0.0       0.9       0.0
 0 C  py              0.8       0.0       0.0       0.8       0.0       0.0
 0 C  dz2             0.0       0.7       0.7       0.0       1.4       0.0
 0 C  dxz             0.0       0.2       0.2       0.0       1.6       0.0
 0 C  dyz             0.7       0.0       0.0       2.1       0.0       0.2
 0 C  dx2y2           0.0       2.7       0.1       0.0       0.2       0.0
 0 C  dxy             1.3       0.0       0.0       0.0       0.0       0.1
 0 C  f+2             0.0       0.0       0.0       0.0       0.1       0.0
 0 C  f-2             0.0       0.0       0.0       0.2       0.0       0.0
 0 C  f-3             0.2       0.0       0.0       0.0       0.0       0.0
 1 C  s               0.0       0.1       0.2       0.0       0.5       0.0
 1 C  pz              0.0       1.1       0.3       0.0       0.9       0.0
 1 C  px              0.0       2.0       3.3       0.0       2.2       0.0
 1 C  py              1.5       0.0       0.0       0.5       0.0       0.1
 1 C  dz2             0.0       0.3       0.8       0.0       0.9       0.0
 1 C  dxz             0.0       1.9       1.0       0.0       0.1       0.0
 1 C  dyz             0.0       0.0       0.0       0.6       0.0       0.1
 1 C  dx2y2           0.0       0.1       0.6       0.0       0.3       0.0
 1 C  dxy             1.7       0.0       0.0       0.2       0.0       0.2
 1 C  f+1             0.0       0.0       0.4       0.0       0.0       0.0
 1 C  f-1             0.0       0.0       0.0       0.0       0.0       0.6
 1 C  f-3             0.1       0.0       0.0       0.1       0.0       0.0
 2 Cl pz              4.4       9.3       9.9       2.3       5.2      19.7
 2 Cl px              8.2       2.6       0.9       3.7       3.5       0.0
 2 Cl py              6.8       1.2       0.1       8.5       0.0       1.0
 3 Cl pz              4.4       9.3       9.9       2.3       5.2      19.7
 3 Cl px              8.2       2.6       0.9       3.7       3.5       0.0
 3 Cl py              6.8       1.2       0.1       8.5       0.0       1.0
 4 Cl pz              0.0       2.0       0.2       0.0       2.3       0.0
 4 Cl px              0.0       5.3      54.1       0.0       7.9       0.0
 4 Cl py              1.7       0.0       0.0       2.7       0.0      46.3
 4 Cl dxz             0.0       0.0       0.2       0.0       0.0       0.0
 4 Cl dyz             0.0       0.0       0.0       0.0       0.0       0.1
 5 Cl pz             13.7       8.0       3.7      23.7      26.2       1.6
 5 Cl px              9.0      15.5       1.0       0.1       2.2       2.9
 5 Cl py              3.5       1.2       0.0       7.9       0.2       0.7
 6 Cl pz             13.7       8.0       3.7      23.7      26.2       1.6
 6 Cl px              9.0      15.5       1.0       0.1       2.2       2.9
 6 Cl py              3.5       1.2       0.0       7.9       0.2       0.7
 7 H  s               0.0       1.4       1.9       0.0       2.7       0.0

                     48        49        50        51        52        53   
                  -0.41404   0.04064   0.05387   0.05578   0.09175   0.12614
                   2.00000   0.00000   0.00000   0.00000   0.00000   0.00000
                  --------  --------  --------  --------  --------  --------
 0 C  s               0.0       0.0       0.0       7.8       7.8       0.0
 0 C  pz              0.0       0.2       0.0       2.6       1.9       0.0
 0 C  px              0.0       0.6       0.0       8.5       2.2       0.0
 0 C  py              0.1       0.0      10.5       0.0       0.0      21.4
 0 C  dz2             0.0       0.1       0.0       3.3       1.2       0.0
 0 C  dxz             0.0       0.5       0.0       1.4       0.3       0.0
 0 C  dyz             0.0       0.0       0.1       0.0       0.0       4.6
 0 C  dx2y2           0.0       0.5       0.0       0.3       0.6       0.0
 0 C  dxy             0.6       0.0       6.1       0.0       0.0       1.5
 0 C  f0              0.0       0.0       0.0       0.1       0.2       0.0
 0 C  f+1             0.0       0.0       0.0       0.0       0.2       0.0
 0 C  f-2             0.1       0.0       0.3       0.0       0.0       0.0
 0 C  f+3             0.0       0.0       0.0       0.5       0.0       0.0
 0 C  f-3             0.3       0.0       0.1       0.0       0.0       0.1
 1 C  s               0.0      17.8       0.0       0.1       0.8       0.0
 1 C  pz              0.0       0.6       0.0       8.2      13.4       0.0
 1 C  px              0.0       8.1       0.0       0.8       2.8       0.0
 1 C  py              0.0       0.0      18.8       0.0       0.0      12.4
 1 C  dz2             0.0       0.1       0.0       4.3       3.1       0.0
 1 C  dxz             0.0       0.6       0.0       0.1       0.2       0.0
 1 C  dyz             0.0       0.0       0.7       0.0       0.0       3.1
 1 C  dx2y2           0.0       0.8       0.0       0.1       0.9       0.0
 1 C  dxy             0.3       0.0       6.8       0.0       0.0       0.1
 1 C  f0              0.0       0.4       0.0       0.0       0.3       0.0
 1 C  f-2             0.0       0.0       0.3       0.0       0.0       0.0
 1 C  f+3             0.0       0.3       0.0       0.2       0.0       0.0
 1 C  f-3             0.2       0.0       0.0       0.0       0.0       0.2
 2 Cl s               0.0       1.0       1.4       0.5       0.0       0.5
 2 Cl pz              0.7       2.2       1.1       0.1       0.2       1.2
 2 Cl px             10.5       1.6       4.5       1.0       0.1       1.0
 2 Cl py              9.3       9.4       4.3       1.8       1.3       1.9
 2 Cl dz2             0.0       0.7       0.5       0.5       0.7       0.0
 2 Cl dxz             0.0       0.5       0.7       0.1       0.1       2.0
 2 Cl dyz             0.0       3.1       0.8       0.1       0.0       1.2
 2 Cl dx2y2           0.1       2.3       0.0       0.2       1.0       0.2
 2 Cl dxy             0.0       2.4       2.9       1.0       0.5       1.1
 2 Cl f0              0.0       0.1       0.0       0.0       0.0       0.0
 2 Cl f-2             0.0       0.1       0.1       0.0       0.0       0.1
 2 Cl f+3             0.0       0.2       0.0       0.0       0.0       0.1
 3 Cl s               0.0       1.0       1.4       0.5       0.0       0.5
 3 Cl pz              0.7       2.2       1.1       0.1       0.2       1.2
 3 Cl px             10.5       1.6       4.5       1.0       0.1       1.0
 3 Cl py              9.3       9.4       4.3       1.8       1.3       1.9
 3 Cl dz2             0.0       0.7       0.5       0.5       0.7       0.0
 3 Cl dxz             0.0       0.5       0.7       0.1       0.1       2.0
 3 Cl dyz             0.0       3.1       0.8       0.1       0.0       1.2
 3 Cl dx2y2           0.1       2.3       0.0       0.2       1.0       0.2
 3 Cl dxy             0.0       2.4       2.9       1.0       0.5       1.1
 3 Cl f0              0.0       0.1       0.0       0.0       0.0       0.0
 3 Cl f-2             0.0       0.1       0.1       0.0       0.0       0.1
 3 Cl f+3             0.0       0.2       0.0       0.0       0.0       0.1
 4 Cl s               0.0       0.8       0.0       0.6       2.5       0.0
 4 Cl pz              0.0      10.5       0.0       5.1      12.0       0.0
 4 Cl px              0.0       0.7       0.0       0.0       0.1       0.0
 4 Cl py              0.3       0.0       1.0       0.0       0.0       1.0
 4 Cl dz2             0.0       6.5       0.0       2.4       6.5       0.0
 4 Cl dxz             0.0       1.3       0.0       0.1       0.2       0.0
 4 Cl dyz             0.0       0.0       1.9       0.0       0.0       3.0
 4 Cl f0              0.0       0.4       0.0       0.1       0.3       0.0
 4 Cl f+1             0.0       0.1       0.0       0.0       0.0       0.0
 4 Cl f-1             0.0       0.0       0.1       0.0       0.0       0.1
 5 Cl s               0.0       0.0       0.9       1.5       0.2       1.7
 5 Cl pz              0.7       0.1       0.3       0.3       0.1       1.3
 5 Cl px             14.0       0.1       3.2       2.1       0.4       3.0
 5 Cl py             13.6       0.1       2.6       9.7       3.1       3.5
 5 Cl dz2             0.0       0.0       0.5       1.2       0.8       0.2
 5 Cl dxz             0.0       0.0       0.2       0.0       0.3       1.9
 5 Cl dyz             0.0       0.1       0.2       0.6       0.8       1.1
 5 Cl dx2y2           0.1       0.2       0.0       2.1       1.4       0.0
 5 Cl dxy             0.0       0.0       2.0       3.2       1.3       3.0
 5 Cl f+3             0.0       0.0       0.0       0.2       0.1       0.1
 6 Cl s               0.0       0.0       0.9       1.4       0.2       1.7
 6 Cl pz              0.7       0.1       0.3       0.3       0.1       1.3
 6 Cl px             13.9       0.1       3.2       2.1       0.4       3.0
 6 Cl py             13.6       0.1       2.6       9.7       3.1       3.5
 6 Cl dz2             0.0       0.0       0.5       1.2       0.8       0.2
 6 Cl dxz             0.0       0.0       0.2       0.0       0.3       1.9
 6 Cl dyz             0.0       0.1       0.2       0.6       0.8       1.1
 6 Cl dx2y2           0.1       0.2       0.0       2.1       1.4       0.0
 6 Cl dxy             0.0       0.0       2.0       3.2       1.3       3.0
 6 Cl f+3             0.0       0.0       0.0       0.2       0.1       0.1
 7 H  s               0.0       0.3       0.0       0.1      15.0       0.0
 7 H  pz              0.0       0.0       0.0       0.0       2.3       0.0
 7 H  px              0.0       0.1       0.0       0.5       0.0       0.0
 7 H  py              0.0       0.0       0.4       0.0       0.0       1.6

                     54        55        56        57        58        59   
                   0.13406   0.17308   0.21963   0.25862   0.26071   0.29864
[...]
 3 Cl f-1             0.1       0.0       0.0       0.0       0.0       0.0
 3 Cl f+2             0.0       0.1       0.0       0.0       0.0       0.0
 3 Cl f-2             0.1       0.1       0.0       0.0       0.0       0.0
 3 Cl f+3             0.3       0.2       0.0       0.0       0.0       0.0
 4 Cl s               0.0       1.3       0.1       0.0       0.0       0.0
 4 Cl pz              0.0       3.4       0.1       0.0       0.4       0.0
 4 Cl px              0.1       0.0       0.0       0.0       3.3       0.0
 4 Cl py              0.0       0.0       0.0      34.4       0.0       0.1
 4 Cl dz2             0.0       0.3       0.0       0.0       0.0       0.0
 4 Cl dxz             0.1       0.0       0.0       0.0       0.0       0.0
 4 Cl f0              0.0       0.8       0.0       0.0       0.0       0.0
 4 Cl f+1             0.4       0.0       0.0       0.0       0.0       0.0
 5 Cl s               1.1       1.1       0.1       0.0       0.0       0.0
 5 Cl pz              0.4       0.1       0.0       1.0       0.3      13.0
 5 Cl px              1.0       0.8       0.0       0.2       7.7      17.6
 5 Cl py              1.6       2.0       0.0       0.5       0.6      15.7
 5 Cl dyz             0.1       0.0       0.0       0.0       0.0       0.0
 5 Cl dxy             0.2       0.2       0.0       0.0       0.0       0.0
 5 Cl f0              0.3       0.0       0.0       0.0       0.0       0.0
 5 Cl f-1             0.0       0.2       0.0       0.0       0.0       0.0
 5 Cl f-2             0.3       0.0       0.0       0.0       0.0       0.0
 5 Cl f+3             0.2       0.3       0.0       0.0       0.0       0.0
 6 Cl s               1.1       1.1       0.1       0.0       0.0       0.0
 6 Cl pz              0.4       0.1       0.0       1.0       0.3      13.0
 6 Cl px              1.0       0.8       0.0       0.2       7.7      17.6
 6 Cl py              1.6       2.0       0.0       0.5       0.6      15.7
 6 Cl dyz             0.1       0.0       0.0       0.0       0.0       0.0
 6 Cl dxy             0.2       0.2       0.0       0.0       0.0       0.0
 6 Cl f0              0.3       0.0       0.0       0.0       0.0       0.0
 6 Cl f-1             0.0       0.2       0.0       0.0       0.0       0.0
 6 Cl f-2             0.3       0.0       0.0       0.0       0.0       0.0
 6 Cl f+3             0.2       0.3       0.0       0.0       0.0       0.0
 7 H  s              13.2       7.4       0.4       0.0       0.0       0.0
 7 H  pz              2.8       2.5       0.1       0.0       0.0       0.0
 7 H  px              0.1       0.0       0.0       0.0       0.0       0.0

                    234       235       236       237       238       239   
                  10.82993  10.83309  10.85004  10.86883  10.88771  10.88856
                   0.00000   0.00000   0.00000   0.00000   0.00000   0.00000
                  --------  --------  --------  --------  --------  --------
 2 Cl pz             13.4       0.4       1.5       0.1      18.8       8.6
 2 Cl px              1.1      23.9       2.5       0.5       8.0       4.7
 2 Cl py              2.3      12.6       1.6       0.9       0.2       4.3
 3 Cl pz             13.4       0.4       1.5       0.1      18.9       8.6
 3 Cl px              1.1      23.9       2.5       0.5       8.0       4.7
 3 Cl py              2.3      12.6       1.6       0.9       0.2       4.3
 4 Cl pz              0.0       0.0       0.3       0.0       0.0       0.1
 4 Cl px             41.6       0.0      13.2       0.0       0.0      39.0
 4 Cl py              0.0      18.8       0.0       0.5      45.5       0.0
 5 Cl pz              9.5       3.2      36.6      30.6       0.0       0.1
 5 Cl px              2.9       0.0       0.5      15.5       0.2       8.3
 5 Cl py              0.0       0.5       0.5       2.1       0.0       4.3
 6 Cl pz              9.5       3.2      36.6      30.6       0.0       0.1
 6 Cl px              2.9       0.0       0.5      15.5       0.1       8.3
 6 Cl py              0.0       0.5       0.5       2.1       0.0       4.3

                    240       241       242       243       244       245   
                  10.89861  11.29184  11.31949  11.36027  11.36608  11.48826
                   0.00000   0.00000   0.00000   0.00000   0.00000   0.00000
                  --------  --------  --------  --------  --------  --------
 0 C  s               0.0       0.0       0.1       0.0       0.0       0.3
 0 C  px              0.0       0.0       0.2       0.1       0.0       0.1
 0 C  py              0.0       0.5       0.0       0.0       0.0       0.0
 1 C  s               0.0       0.0       0.3       0.0       0.0       0.5
 1 C  pz              0.0       0.0       0.0       0.5       0.0       0.0
 1 C  px              0.0       0.0       0.2       0.0       0.0       0.1
 1 C  py              0.0       0.1       0.0       0.0       0.5       0.0
 2 Cl s               0.0       0.0       0.2       0.1       0.4       0.1
 2 Cl pz              0.1       0.2       3.1       0.1       5.6       1.0
 2 Cl px             13.2       1.0       4.4       2.2      13.5       4.2
 2 Cl py              6.6       2.3      19.1       7.9      26.2       7.4
 3 Cl s               0.0       0.0       0.2       0.1       0.4       0.1
 3 Cl pz              0.1       0.2       3.2       0.1       5.6       1.0
 3 Cl px             13.2       1.0       4.4       2.2      13.5       4.2
 3 Cl py              6.6       2.3      19.1       7.9      26.1       7.4
 4 Cl s               0.0       0.0       0.0       0.6       0.0       0.3
 4 Cl pz              0.4       0.0       2.7      69.6       0.0      24.6
 4 Cl px              2.4       0.0       0.4       0.0       0.0       0.0
 4 Cl py              0.0       0.0       0.0       0.0       0.8       0.0
 5 Cl s               0.0       0.3       0.1       0.0       0.0       0.3
 5 Cl pz              1.5       2.1       0.9       0.4       0.1       0.6
 5 Cl px             17.9      14.9       3.7       0.8       1.5       8.0
 5 Cl py              9.4      28.9      16.4       2.8       1.9      15.3
 6 Cl s               0.0       0.3       0.1       0.0       0.0       0.3
 6 Cl pz              1.5       2.1       0.9       0.4       0.1       0.6
 6 Cl px             17.9      14.9       3.7       0.8       1.5       8.0
 6 Cl py              9.4      28.8      16.4       2.8       1.9      15.3

                    246       247       248       249       250       251   
                  21.82131  22.06495  25.08547  25.30595  25.41557  25.59942
                   0.00000   0.00000   0.00000   0.00000   0.00000   0.00000
                  --------  --------  --------  --------  --------  --------
 0 C  s              11.0      87.2       0.0       0.7       0.2       0.0
 0 C  py              0.0       0.0       0.2       0.0       0.0       0.1
 1 C  s              87.8      11.0       0.0       0.0       1.3       0.0
 1 C  pz              0.0       0.0       0.0       0.2       0.0       0.0
 1 C  py              0.0       0.0       0.1       0.0       0.0       0.3
 2 Cl s               0.2       0.1      14.9       6.8      42.0      34.7
 3 Cl s               0.2       0.1      14.9       6.8      42.0      34.6
 4 Cl s               0.3       0.0       0.0      40.4       3.2       0.0
 4 Cl pz              0.0       0.0       0.0       0.1       0.0       0.0
 5 Cl s               0.0       0.4      34.8      22.4       5.5      14.8
 6 Cl s               0.0       0.4      34.8      22.4       5.5      14.8
 7 H  s               0.0       0.2       0.0       0.0       0.0       0.0

                    252   
                  25.71025
                   0.00000
                  --------
 0 C  s               0.8
 1 C  s               0.7
 1 C  pz              0.1
 2 Cl s               0.4
 3 Cl s               0.4
 4 Cl s              54.9
 4 Cl pz              0.1
 5 Cl s              21.1
 6 Cl s              21.1


                      *****************************
                      * MAYER POPULATION ANALYSIS *
                      *****************************

  NA   - Mulliken gross atomic population
  ZA   - Total nuclear charge
  QA   - Mulliken gross atomic charge
  VA   - Mayer's total valence
  BVA  - Mayer's bonded valence
  FA   - Mayer's free valence

  ATOM       NA         ZA         QA         VA         BVA        FA
  0 C      6.0437     6.0000    -0.0437     4.2594     4.2594    -0.0000
  1 C      5.9061     6.0000     0.0939     4.4742     4.4742    -0.0000
  2 Cl    17.0384    17.0000    -0.0384     1.2383     1.2383     0.0000
  3 Cl    17.0385    17.0000    -0.0385     1.2382     1.2382     0.0000
  4 Cl    17.0245    17.0000    -0.0245     1.2553     1.2553    -0.0000
  5 Cl    17.0592    17.0000    -0.0592     1.2098     1.2098     0.0000
  6 Cl    17.0592    17.0000    -0.0592     1.2098     1.2098    -0.0000
  7 H      0.8304     1.0000     0.1696     0.9744     0.9744     0.0000

  Mayer bond orders larger than 0.100000
B(  0-C ,  1-C ) :   0.9817 B(  0-C ,  5-Cl) :   1.1225 B(  0-C ,  6-Cl) :   1.1225 
B(  0-C ,  7-H ) :   0.9462 B(  1-C ,  2-Cl) :   1.1334 B(  1-C ,  3-Cl) :   1.1334 
B(  1-C ,  4-Cl) :   1.1599 

-------
TIMINGS
-------

Total SCF time: 0 days 0 hours 0 min 51 sec 

Total time                  ....      51.621 sec
Sum of individual times     ....      50.820 sec  ( 98.4%)

SCF preparation             ....       0.044 sec  (  0.1%)
Fock matrix formation       ....      50.405 sec  ( 97.6%)
  Startup                   ....       0.003 sec  (  0.0% of F)
  Split-RI-J                ....       1.848 sec  (  3.7% of F)
  Chain of spheres X        ....      45.107 sec  ( 89.5% of F)
  XC integration            ....       4.203 sec  (  8.3% of F)
    Basis function eval.    ....       1.050 sec  ( 25.0% of XC)
    Density eval.           ....       0.895 sec  ( 21.3% of XC)
    XC-Functional eval.     ....       1.032 sec  ( 24.6% of XC)
    XC-Potential eval.      ....       1.157 sec  ( 27.5% of XC)
Diagonalization             ....       0.000 sec  (  0.0%)
Density matrix formation    ....       0.114 sec  (  0.2%)
Total Energy calculation    ....       0.003 sec  (  0.0%)
Population analysis         ....       0.090 sec  (  0.2%)
Orbital Transformation      ....       0.018 sec  (  0.0%)
Orbital Orthonormalization  ....       0.000 sec  (  0.0%)
DIIS solution               ....       0.051 sec  (  0.1%)
  MO trafo                  ....       0.000 sec  (  0.0 % of DIIS)
  Orb grad                  ....       0.000 sec  (  0.0 % of DIIS)
  Energy W gradient         ....       0.000 sec  (  0.0 % of DIIS)
  DIIS error                ....       0.007 sec  ( 13.0 % of DIIS)
  DIIS work                 ....       0.037 sec  ( 71.7 % of DIIS)
  Form Q                    ....       0.000 sec  (  0.0 % of DIIS)
  Form QpQm                 ....       0.000 sec  (  0.0 % of DIIS)
  Exp/Cayley                ....       0.000 sec  (  0.0 % of DIIS)
  Orb update                ....       0.000 sec  (  0.0 % of DIIS)
  Wake-sleep                ....       0.001 sec  (  1.0 % of DIIS)
SOSCF solution              ....       0.031 sec  (  0.1%)
  MO trafo                  ....       0.016 sec  ( 50.4 % of SOSCF)
  Orb grad                  ....       0.000 sec  (  1.0 % of SOSCF)
  Rot update                ....       0.001 sec  (  4.4 % of SOSCF)
  Step                      ....       0.014 sec  ( 44.1 % of SOSCF)
Grid generation             ....       0.063 sec  (  0.1%)
Finished LeanSCF after  51.6 sec

Maximum memory used throughout the entire LEANSCF-calculation: 31.0 MB
------------------   -----------------
gCP correction             0.005226649
------------------   -----------------

-------------------------   --------------------
FINAL SINGLE POINT ENERGY     -2377.527724369008
-------------------------   --------------------


------------------------------------------------------------------------------
                              ORCA PROPERTY CALCULATIONS
------------------------------------------------------------------------------

GBWName                                 ... sp.gbw
Number of atoms                         ...      8
Number of basis functions               ...    253
Max core memory                         ...   1024 MB

Electric properties:
Dipole moment                           ... YES
Quadrupole moment                       ...  NO
Static polarizability (Dipole/Dipole)   ...  NO
Static polarizability (Dipole/Quad.)    ...  NO
Static polarizability (Quad./Quad.)     ...  NO
Static polarizability (Velocity)        ...  NO

Atomic electric properties:
Dipole moment                           ...  NO
Quadrupole moment                       ...  NO
Static polarizability                   ...  NO

Choice of electric origin               ... Center of mass
Position of electric origin             ...    -0.009510     0.000048     0.015602

General magnetic properties:
Magnetizability                         ...  NO

EPR properties:
g-Tensor (aka g-matrix)                 ...  NO
Zero-Field splitting spin-orbit         ...  NO
Zero-field splitting spin-spin          ...  NO
Hyperfine couplings                     ...  NO (   0 nuclei)
Quadrupole couplings                    ...  NO (   0 nuclei)
Contact density                         ...  NO (   0 nuclei)

NMR properties:
Chemical shifts                         ...  NO (   0 nuclei)
Spin-rotation constants                 ...  NO (   0 nuclei)
Spin-spin couplings                     ...  NO (   0 nuclei,    0 pairs)

Choice of magnetic origin               ... GIAO
Position of magnetic origin             ...     0.000000     0.000000     0.000000

Properties with geometric perturbations:
SCF Hessian                             ...  NO
IR spectrum                             ...  NO
VCD spectrum                            ...  NO
X-ray spectroscopy properties:
SCF XES/XAS/RIXS spectra                ...  NO


-------------
DIPOLE MOMENT
-------------

Method             : SCF
Type of density    : Electron Density
Multiplicity       :   1
Irrep              :   0
Energy             : -2377.5329510180076795 Eh
Relativity type    : 
Basis              : AO
                                X                 Y                 Z
Electronic contribution:      0.785540018       0.000076454      -1.611048633
Nuclear contribution   :     -0.726227310      -0.000173679       1.974128603
                        -----------------------------------------
Total Dipole Moment    :      0.059312708      -0.000097226       0.363079970
                        -----------------------------------------
Magnitude (a.u.)       :      0.367892744
Magnitude (Debye)      :      0.935109041



--------------------
Rotational spectrum 
--------------------
 
Rotational constants in cm-1:             0.037531             0.031396             0.024317 
Rotational constants in MHz :          1125.145907           941.241050           729.011834 

Dipole components along the rotational axes: 
x,y,z [a.u.] :    -0.050663    -0.000036     0.364388 
x,y,z [Debye]:    -0.128775    -0.000091     0.926200 

 

Dipole moment calculation done in   0.0 sec 

Maximum memory used throughout the entire PROP-calculation: 20.7 MB

--------------------------------
SUGGESTED CITATIONS FOR THIS RUN
--------------------------------

Below you find a list of papers that are relevant to this ORCA run
We neither can nor want to force you to cite these papers, but we appreciate if you do
You receive ORCA, which is the product of decades of hard work by many enthusiastic individuals, for free
The only thing we kindly ask in return is that you cite our papers,
We deeply appreciate it, if you show your appreciation for ORCA by not just citing the generic ORCA reference.

Please note that relegating all ORCA citations to the supporting information does *not* help us.
SI sections are not indexed - citations you put there will not count into any citation statistics
But we need these citations in order to attract the funding resources that allow us to do what we are doing

Therefore, if you are a happy ORCA user, please consider citing a few of the papers listed below in the main body of your paper

In addition to the list printed below, the program has created the file sp.bibtex that contains the list in bibtex format
You can import this file easily into all common literature databanks and citation aid programs


List of essential papers. We consider these as the minimum necessary citations

  1. Neese,F.
     Software update: the ORCA program system, version 5.0
     WIRES Comput. Molec. Sci., 2022 12(1)e1606
     doi.org/10.1002/wcms.1606

List of papers to cite with high priority. The work reported in these papers was absolutely
necessary for this run to complete.
Our perspective: the developers of density functionals and basis sets usually get cited in chemistry papers
Good! But without the algorithms to do something with them, the functionals or basis sets would not do anything.
Hence, in our opinion, the algorithm design and method developments papers are equally worthy of getting cited

  1. Neese,F.
     An improvement of the resolution of the identity approximation for the formation of the Coulomb matrix
     J. Comp. Chem., 2003 24(14)1740-1747
     doi.org/10.1002/jcc.10318
  2. Neese,F.; Wennmohs,F.; Hansen,A.; Becker,U.
     Efficient, approximate and parallel Hartree-Fock and hybrid DFT calculations. A 'chain-of-spheres' algorithm for the Hartree-Fock exchange
     Chem. Phys., 2009 356(1-3)98-109
     doi.org/10.1016/j.chemphys.2008.10.036
  3. Helmich-Paris,B.; de Souza,B.; Neese,F.; Izsák,R.
     An improved chain of spheres for exchange algorithm
     J. Chem. Phys., 2021 155 104109
     doi.org/doi: 10.1063/5.0058766.
  4. Neese,F.
     The SHARK Integral Generation and Digestion System
     J. Comp. Chem., 2022  1-16
     doi.org/10.1002/jcc.26942

List of suggested additional citations. These are papers that are important in the 'surrounding' of 
of this run, or papers that preceded the highly important papers. If you like your results we are grateful for a citation.

  1. Izsak,R.; Neese,F.
     An overlap fitted chain of spheres exchange method
     J. Chem. Phys., 2011 135 144105
     doi.org/10.1063/1.3646921
  2. Izsak,R.; Hansen,A.; Neese,F.
     The resolution of identity and chain of spheres approximations for the LPNO-CCSD singles Fock term
     Molec. Phys., 2012 110 2413-2417
     doi.org/10.1080/00268976.2012.687466
  3. Neese,F.
     The ORCA program system
     WIRES Comput. Molec. Sci., 2012 2(1)73-78
     doi.org/10.1002/wcms.81
  4. Izsak,R.; Neese,F.; Klopper,W.
     Robust fitting techniques in the chain of spheres approximation to the Fock exchange: The role of the complementary space
     J. Chem. Phys., 2013 139 
     doi.org/10.1063/1.4819264
  5. Neese,F.
     Software update: the ORCA program system, version 4.0
     WIRES Comput. Molec. Sci., 2018 8(1)1-6
     doi.org/10.1002/wcms.1327
  6. Neese,F.; Wennmohs,F.; Becker,U.; Riplinger,C.
     The ORCA quantum chemistry program package
     J. Chem. Phys., 2020 152 Art. No. L224108
     doi.org/10.1063/5.0004608

List of optional additional citations

  1. Neese,F.
     Approximate second-order SCF convergence for spin unrestricted wavefunctions
     Chem. Phys. Lett., 2000 325(1-3)93-98
     doi.org/10.1016/s0009-2614(00)00662-x

Timings for individual modules:

Sum of individual times          ...       52.439 sec (=   0.874 min)
Startup calculation              ...        0.703 sec (=   0.012 min)   1.3 %
SCF iterations                   ...       51.698 sec (=   0.862 min)  98.6 %
Property calculations            ...        0.038 sec (=   0.001 min)   0.1 %
                             ****ORCA TERMINATED NORMALLY****
TOTAL RUN TIME: 0 days 0 hours 0 minutes 52 seconds 482 msec
