
                                 *****************
                                 * O   R   C   A *
                                 *****************

                                            #,                                       
                                            ###                                      
                                            ####                                     
                                            #####                                    
                                            ######                                   
                                           ########,                                 
                                     ,,################,,,,,                         
                               ,,#################################,,                 
                          ,,##########################################,,             
                       ,#########################################, ''#####,          
                    ,#############################################,,   '####,        
                  ,##################################################,,,,####,       
                ,###########''''           ''''###############################       
              ,#####''   ,,,,##########,,,,          '''####'''          '####       
            ,##' ,,,,###########################,,,                        '##       
           ' ,,###''''                  '''############,,,                           
         ,,##''                                '''############,,,,        ,,,,,,###''
      ,#''                                            '''#######################'''  
     '                                                          ''''####''''         
             ,#######,   #######,   ,#######,      ##                                
            ,#'     '#,  ##    ##  ,#'     '#,    #''#        ,####,   ,####,        
            ##       ##  ##   ,#'  ##            #'  '#       #'       #'  '#        
            ##       ##  #######   ##           ,######,      #####,   #    #        
            '#,     ,#'  ##    ##  '#,     ,#' ,#      #,     #,   #   #,  ,#        
             '#######'   ##     ##  '#######'  #'      '#     '####' # '####'        



                #########################################################
                #                        -***-                          #
                #          Department of theory and spectroscopy        #
                #                                                       #
                #                      Frank Neese                      #
                #                                                       #
                #     Directorship, Architecture, Infrastructure        #
                #                    SHARK, DRIVERS                     #
                #        Core code/Algorithms in most modules           #
                #                                                       #
                #        Max Planck Institute fuer Kohlenforschung      #
                #                Kaiser Wilhelm Platz 1                 #
                #                 D-45470 Muelheim/Ruhr                 #
                #                      Germany                          #
                #                                                       #
                #                  All rights reserved                  #
                #                        -***-                          #
                #########################################################


                         Program Version 6.0.1  -  RELEASE   -


 With contributions from (in alphabetic order):
[Max-Planck-Institut fuer Kohlenforschung]                               
  Daniel Aravena         : Magnetic Suceptibility                        
  Michael Atanasov       : Ab Initio Ligand Field Theory (pilot matlab implementation)
  Alexander A. Auer      : GIAO ZORA, VPT2 properties, NMR spectrum      
  Ute Becker             : All parallelization in ORCA, NUMFREQ, NUMCALC 
  Giovanni Bistoni       : ED, misc. LED, open-shell LED, HFLD           
  Martin Brehm           : Molecular dynamics                            
  Dmytro Bykov           : pre 5.0 version of the SCF Hessian            
  Marcos Casanova-Páez   : Triplet and SCS-CIS(D). UHF-(DLPNO)-IP/EA/STEOM-CCSD. UHF-CVS-IP/STEOM-CCSD   
  Vijay G. Chilkuri      : MRCI spin determinant printing, contributions to CSF-ICE 
  Pauline Colinet        : FMM embedding                                 
  Dipayan Datta          : RHF DLPNO-CCSD density                        
  Achintya Kumar Dutta   : EOM-CC, STEOM-CC                              
  Nicolas Foglia         : Exact transition moments, OPA infrastructure, MCD improvements    
  Dmitry Ganyushin       : Spin-Orbit,Spin-Spin,Magnetic field MRCI      
  Miquel Garcia-Rates    : C-PCM and meta-GGA Hessian, CCSD/C-PCM, Gaussian charge scheme 
  Tiago L. C. Gouveia    : GS-ROHF, GS-ROCIS                             
  Yang Guo               : DLPNO-NEVPT2, F12-NEVPT2, CIM, IAO-localization        
  Andreas Hansen         : Spin unrestricted coupled pair/coupled cluster methods 
  Ingolf Harden          : AUTO-CI MPn and infrastructure                
  Benjamin Helmich-Paris : MC-RPA, TRAH-(SCF,CASSCF), AVAS, COSX integrals, SCF dyn. polar. 
  Lee Huntington         : MR-EOM, pCC                                   
  Robert Izsak           : Overlap fitted RIJCOSX, COSX-SCS-MP3, EOM     
  Riya Kayal             : Wick's Theorem for AUTO-CI, AUTO-CI UHF-CCSDT 
  Emily Kempfer          : AUTO-CI, RHF CISDT and CCSDT                  
  Christian Kollmar      : KDIIS, OOCD, Brueckner-CCSD(T), CCSD density, CASPT2, CASPT2-K, improved NEVPT2 
  Axel Koslowski         : Symmetry handling                             
  Simone Kossmann        : meta-GGA functionals, TD-DFT gradient, OOMP2, (MP2 Hessian; deprecated post 5.0) 
  Lucas Lang             : DCDCAS                                        
  Marvin Lechner         : AUTO-CI (C++ implementation), FIC-MRCC        
  Spencer Leger          : CASSCF response                               
  Dagmar Lenk            : GEPOL surface, SMD, ORCA-2-JSON               
  Dimitrios Liakos       : Extrapolation schemes; Compound Job, initial MDCI parallelization 
  Dimitrios Manganas     : Further ROCIS development; embedding schemes. LFT, Crystal Embedding 
  Dimitrios Pantazis     : SARC Basis sets                               
  Anastasios Papadopoulos: AUTO-CI, single reference methods and gradients 
  Taras Petrenko         : pre 6.0 DFT Hessian and TD-DFT gradient, (ASA, deprecated), ECA, 1-Electron XAS/XES, NRVS 
  Peter Pinski           : DLPNO-MP2, DLPNO-MP2 Gradient                 
  Christoph Reimann      : Effective Core Potentials                     
  Marius Retegan         : Local ZFS, SOC                                
  Christoph Riplinger    : Optimizer, TS searches, QM/MM, DLPNO-CCSD(T), (RO)-DLPNO pert. Triples 
  Michael Roemelt        : Original ROCIS implementation                 
  Masaaki Saitow         : Open-shell DLPNO-CCSD energy and density      
  Barbara Sandhoefer     : DKH picture change effects                    
  Kantharuban Sivalingam : CASSCF convergence/infrastructure, NEVPT2 and variants, FIC-MRCI 
  Bernardo de Souza      : ESD, SOC TD-DFT                               
  Georgi L. Stoychev     : AutoAux, RI-MP2 NMR, DLPNO-MP2 response, X2C  
  Van Anh Tran           : RI-MP2 g-tensors                              
  Willem Van den Heuvel  : Paramagnetic NMR                              
  Zikuan Wang            : NOTCH, Electric field optimization            
  Frank Wennmohs         : Technical directorship and infrastructure     
  Hang Xu                : AUTO-CI-Response properties                   
                                                                         
[FACCTs GmbH]                                                            
  Markus Bursch, Miquel Garcia-Rates, Christoph Riplinger, Bernardo de Souza, Georgi L. Stoychev 
                                                                 
  APM, Basis sets (HGBS, AHGBS, def-TZVP (Ac-Lr), def2-XVPD (La-Lu)), CI-OPT, improved COSX, DLPNO-Multilevel,           
  DOCKER, DRACO, updates on ESD, GOAT, IRC, LR-CPCM, MBIS, meta-GGA TD-DFT gradient, ML-optimized integration grids, 
  MM, NACMEs, nearIR, NEB, NEB-TS, NL-DFT gradient (VV10), 2- and 3-layer-ONIOM, interface openCOSMO-RS, QMMM,   
  Crystal-QMMM, SF, symmetry and pop. for TD-DFT, r2SCAN hybrids, SOLVATOR                                   
                                                                         
[Other institutions]                                                     
  V. Asgeirsson          : NEB                                           
  Christoph Bannwarth    : sTDA-DFT, sTD-DFT, PBEh-3c, B97-3c, D3        
  Sebastian Ehlert       : rSCAN, r2SCAN, r2SCAN-3c, D4, dhf basis sets  
  Marvin Friede          : D4 for Fr, Ra, Ac-Lr                          
  Lars Goerigk           : TD-DFT with DH, B97 family of functionals     
  Stefan Grimme          : VdW corrections, initial TS optimization, DFT functionals, gCP, sTDA/sTD-DF 
  Waldemar Hujo          : DFT-NL                                        
  H. Jonsson             : NEB                                           
  Holger Kruse           : gCP                                           
  Marcel Mueller         : wB97X-3c, vDZP basis set                      
  Hagen Neugebauer       : wr2SCAN                                       
  Tobias Risthaus        : range-separated hybrid DFT                    
  Lukas Wittmann         : regularized MP2, r2SCAN double-hybrids, wr2SCAN        
                                                                         
We gratefully acknowledge several colleagues who have allowed us to      
interface, adapt or use parts of their codes:                            
  Ed Valeev, F. Pavosevic, A. Kumar             : LibInt (2-el integral package), F12 methods 
  Garnet Chan, S. Sharma, J. Yang, R. Olivares  : DMRG                   
  Ulf Ekstrom                                   : XCFun DFT Library      
  Mihaly Kallay                                 : mrcc  (arbitrary order and MRCC methods)
  Frank Weinhold                                : gennbo (NPA and NBO analysis)           
  Simon Mueller                                 : openCOSMO-RS                            
  Christopher J. Cramer and Donald G. Truhlar   : smd solvation model                     
  S Lehtola, MJT Oliveira, MAL Marques          : LibXC Library                           
  Liviu Ungur et al                             : ANISO software                          


 Your calculation uses the libint2 library for the computation of 2-el integrals
 For citations please refer to: http://libint.valeyev.net

 Your ORCA version has been built with support for libXC version: 6.2.2
 For citations please refer to: https://libxc.gitlab.io

 This ORCA versions uses:
   CBLAS   interface :  Fast vector & matrix operations
   LAPACKE interface :  Fast linear algebra routines
   SCALAPACK package :  Parallel linear algebra routines
   Shared memory     :  Shared parallel matrices
   BLAS/LAPACK       :  OpenBLAS 0.3.27  USE64BITINT DYNAMIC_ARCH NO_AFFINITY Zen SINGLE_THREADED
        Core in use  :  Zen
   Copyright (c) 2011-2014, The OpenBLAS Project


Your calculation utilizes the geometrical counterpoise correction gCP
Please cite in your paper:
H.Kruse, S. Grimme J.Chem.Phys., 136, (2012), 154101 
   

Your calculation utilizes the DFT-NL dispersion correction.
Cite in your paper:
Vydrov, O. A.; Van Voorhis, T. J. Chem. Phys. 2010, 133, 244103
Hujo, W.; Grimme, S. J. Chem. Theory Comput. 2011, 7, 3866 
   

================================================================================

----- Orbital basis set information -----
Your calculation utilizes the basis: def2-TZVP
   F. Weigend and R. Ahlrichs, Phys. Chem. Chem. Phys. 7, 3297 (2005).

----- AuxJ basis set information -----
Your calculation utilizes the auxiliary basis: def2/J
   F. Weigend, Phys. Chem. Chem. Phys. 8, 1057 (2006).

================================================================================
                                        WARNINGS
                       Please study these warnings very carefully!
================================================================================


================================================================================
                                       INPUT FILE
================================================================================
NAME = sp.inp
|  1> ! wb97x-v def2-tzvp def2/J RIJCOSX DEFGRID2 scfconv7 GCP(DFT/TZ) printgap
|  2> %output
|  3>     printlevel normal
|  4> end
|  5> * xyz 0 1
|  6> C -1.9463030167598956 1.2161052068868194 0.18806560651719745
|  7> C -1.5018822190456707 -0.2012515830872113 -0.15558844133138988
|  8> C -0.020284611056347192 -0.48870680510032444 -0.0726030435010895
|  9> O 0.4611928258534622 -1.5970913060571974 -0.11666724750632129
| 10> O 0.7196102473645234 0.6397715992754106 0.042136223667410454
| 11> C 2.145297232590491 0.4211978713177888 0.10338902812065193
| 12> H -1.6562915186036828 1.4856422181748274 1.2065932784741322
| 13> H -1.5023042880831543 1.9482386929186057 -0.4894977617936113
| 14> H -3.0343485588297034 1.2946706425945946 0.11199848950946473
| 15> H -1.7977712912792692 -0.46350759436248634 -1.1793546024453931
| 16> H -1.9885930144257524 -0.9416750599677214 0.48766410291453405
| 17> H 2.3946766479204067 -0.2290655616812925 0.9454317056976363
| 18> H 2.586109828675844 1.409576427679612 0.23209286753004557
| 19> H 2.4975779365021205 -0.04290163559163285 -0.8214940564187612
| 20> *
| 21> 
| 22>                          ****END OF INPUT****
================================================================================

                       ****************************
                       * Single Point Calculation *
                       ****************************

---------------------------------
CARTESIAN COORDINATES (ANGSTROEM)
---------------------------------
  C     -1.946303    1.216105    0.188066
  C     -1.501882   -0.201252   -0.155588
  C     -0.020285   -0.488707   -0.072603
  O      0.461193   -1.597091   -0.116667
  O      0.719610    0.639772    0.042136
  C      2.145297    0.421198    0.103389
  H     -1.656292    1.485642    1.206593
  H     -1.502304    1.948239   -0.489498
  H     -3.034349    1.294671    0.111998
  H     -1.797771   -0.463508   -1.179355
  H     -1.988593   -0.941675    0.487664
  H      2.394677   -0.229066    0.945432
  H      2.586110    1.409576    0.232093
  H      2.497578   -0.042902   -0.821494

----------------------------
CARTESIAN COORDINATES (A.U.)
----------------------------
  NO LB      ZA    FRAG     MASS         X           Y           Z
   0 C     6.0000    0    12.011   -3.677980    2.298106    0.355392
   1 C     6.0000    0    12.011   -2.838146   -0.380310   -0.294020
   2 C     6.0000    0    12.011   -0.038332   -0.923522   -0.137200
   3 O     8.0000    0    15.999    0.871528   -3.018065   -0.220469
   4 O     8.0000    0    15.999    1.359866    1.208993    0.079626
   5 C     6.0000    0    12.011    4.054024    0.795949    0.195377
   6 H     1.0000    0     1.008   -3.129937    2.807457    2.280131
   7 H     1.0000    0     1.008   -2.838944    3.681638   -0.925017
   8 H     1.0000    0     1.008   -5.734088    2.446573    0.211646
   9 H     1.0000    0     1.008   -3.397295   -0.875902   -2.228657
  10 H     1.0000    0     1.008   -3.757896   -1.779508    0.921552
  11 H     1.0000    0     1.008    4.525283   -0.432871    1.786607
  12 H     1.0000    0     1.008    4.887039    2.663713    0.438592
  13 H     1.0000    0     1.008    4.719738   -0.081072   -1.552399

--------------------------------
INTERNAL COORDINATES (ANGSTROEM)
--------------------------------
 C      0   0   0     0.000000000000     0.00000000     0.00000000
 C      1   0   0     1.524633798697     0.00000000     0.00000000
 C      2   1   0     1.511505392949   116.75314019     0.00000000
 O      3   2   1     1.209247029473   124.23576240   168.38697337
 O      3   2   1     1.354279516972   112.43965800   347.67064475
 C      5   3   2     1.443644610162   114.64387317   180.95455243
 H      1   2   3     1.092774216414   111.22465962   300.89235633
 H      1   2   3     1.091900375727   111.40357565    61.14048280
 H      1   2   3     1.093527245018   109.94657037   181.15232354
 H      2   1   3     1.097463307432   110.72152119   239.06673155
 H      2   1   3     1.094937513803   111.50937532   121.97287071
 H      6   5   3     1.092734412356   110.37541625   301.96460025
 H      6   5   3     1.089849803332   105.49431707   182.13316527
 H      6   5   3     1.093114251453   110.28227360    62.47978920

---------------------------
INTERNAL COORDINATES (A.U.)
---------------------------
 C      0   0   0     0.000000000000     0.00000000     0.00000000
 C      1   0   0     2.881140334057     0.00000000     0.00000000
 C      2   1   0     2.856331242620   116.75314019     0.00000000
 O      3   2   1     2.285145713962   124.23576240   168.38697337
 O      3   2   1     2.559217395857   112.43965800   347.67064475
 C      5   3   2     2.728092947917   114.64387317   180.95455243
 H      1   2   3     2.065043995233   111.22465962   300.89235633
 H      1   2   3     2.063392675649   111.40357565    61.14048280
 H      1   2   3     2.066467013065   109.94657037   181.15232354
 H      2   1   3     2.073905093074   110.72152119   239.06673155
 H      2   1   3     2.069132034845   111.50937532   121.97287071
 H      6   5   3     2.064968776464   110.37541625   301.96460025
 H      6   5   3     2.059517655405   105.49431707   182.13316527
 H      6   5   3     2.065686568332   110.28227360    62.47978920

---------------------
BASIS SET INFORMATION
---------------------
There are 3 groups of distinct atoms

 Group   1 Type C   : 11s6p2d1f contracted to 5s3p2d1f pattern {62111/411/11/1}
 Group   2 Type O   : 11s6p2d1f contracted to 5s3p2d1f pattern {62111/411/11/1}
 Group   3 Type H   : 5s1p contracted to 3s1p pattern {311/1}

Atom   0C    basis set group =>   1
Atom   1C    basis set group =>   1
Atom   2C    basis set group =>   1
Atom   3O    basis set group =>   2
Atom   4O    basis set group =>   2
Atom   5C    basis set group =>   1
Atom   6H    basis set group =>   3
Atom   7H    basis set group =>   3
Atom   8H    basis set group =>   3
Atom   9H    basis set group =>   3
Atom  10H    basis set group =>   3
Atom  11H    basis set group =>   3
Atom  12H    basis set group =>   3
Atom  13H    basis set group =>   3
---------------------------------
AUXILIARY/J BASIS SET INFORMATION
---------------------------------
There are 3 groups of distinct atoms

 Group   1 Type C   : 12s5p4d2f1g contracted to 6s4p3d1f1g pattern {711111/2111/211/2/1}
 Group   2 Type O   : 12s5p4d2f1g contracted to 6s4p3d1f1g pattern {711111/2111/211/2/1}
 Group   3 Type H   : 5s2p1d contracted to 3s1p1d pattern {311/2/1}

Atom   0C    basis set group =>   1
Atom   1C    basis set group =>   1
Atom   2C    basis set group =>   1
Atom   3O    basis set group =>   2
Atom   4O    basis set group =>   2
Atom   5C    basis set group =>   1
Atom   6H    basis set group =>   3
Atom   7H    basis set group =>   3
Atom   8H    basis set group =>   3
Atom   9H    basis set group =>   3
Atom  10H    basis set group =>   3
Atom  11H    basis set group =>   3
Atom  12H    basis set group =>   3
Atom  13H    basis set group =>   3

Checking for AutoStart:
The File: sp.gbw exists
Trying to determine its content:
     ... Fine, the file contains calculation information
     ... Fine, the calculation information was read
     ... Fine, the file contains a basis set
     ... Fine, the basis set was read
     ... Fine, the file contains a geometry
     ... Fine, the geometry was read
     ... Fine, the file contains a set of orbitals
     ... Fine, the orbitals can be read
     => possible old guess file was deleted
     => GBW file was renamed to GES file
     => GES file is set as startup file
     => Guess is set to MORead
     ... now leaving AutoStart

------------------------------------------------------------------------------
                             ORCA STARTUP CALCULATIONS
                           -- RI-GTO INTEGRALS CHOSEN --
------------------------------------------------------------------------------
------------------------------------------------------------------------------
                   ___                                                        
                  /   \      - P O W E R E D   B Y -                         
                 /     \                                                     
                 |  |  |   _    _      __       _____    __    __             
                 |  |  |  | |  | |    /  \     |  _  \  |  |  /  |          
                  \  \/   | |  | |   /    \    | | | |  |  | /  /          
                 / \  \   | |__| |  /  /\  \   | |_| |  |  |/  /          
                |  |  |   |  __  | /  /__\  \  |    /   |      \           
                |  |  |   | |  | | |   __   |  |    \   |  |\   \          
                \     /   | |  | | |  |  |  |  | |\  \  |  | \   \       
                 \___/    |_|  |_| |__|  |__|  |_| \__\ |__|  \__/        
                                                                              
                      - O R C A' S   B I G   F R I E N D -                    
                                      &                                       
                       - I N T E G R A L  F E E D E R -                       
                                                                              
 v1 FN, 2020, v2 2021, v3 2022-2024                                           
------------------------------------------------------------------------------


----------------------
SHARK INTEGRAL PACKAGE
----------------------

Number of atoms                             ...     14
Number of basis functions                   ...    234
Number of shells                            ...     98
Maximum angular momentum                    ...      3
Integral batch strategy                     ... SHARK/LIBINT Hybrid
RI-J (if used) integral strategy            ... SPLIT-RIJ (Revised 2003 algorithm where possible)
Printlevel                                  ...      1
Contraction scheme used                     ... SEGMENTED contraction
Prescreening option                         ... SCHWARTZ
   Thresh                                   ... 3.000e-11
   Tcut                                     ... 1.000e-12
   Tpresel                                  ... 1.000e-12 
Coulomb Range Separation                    ... NOT USED
Exchange Range Separation                   ... Long Range
   Mu parameter                             ... 3.000e-01
   Scaling (regular/separated)              ... 1.670e-01 8.330e-01
Multipole approximations                    ... NOT USED
Finite Nucleus Model                        ... NOT USED
CABS basis                                  ... NOT available
Auxiliary Coulomb fitting basis             ... AVAILABLE
   # of basis functions in Aux-J            ...    382
   # of shells in Aux-J                     ...    130
   Maximum angular momentum in Aux-J        ...      4
Auxiliary J/K fitting basis                 ... NOT available
Auxiliary Correlation fitting basis         ... NOT available
Auxiliary 'external' fitting basis          ... NOT available

Checking pre-screening integrals            ... done (  0.0 sec) Dimension = 98
Check shell pair data                       ... done (  0.0 sec)
Shell pair information
Shell pair cut-off parameter TPreSel        ...   1.0e-12
Total number of shell pairs                 ...      4851
Shell pairs after pre-screening             ...      4544
Total number of primitive shell pairs       ...     14352
Primitive shell pairs kept                  ...     10404
          la=0 lb=0:   1347 shell pairs
          la=1 lb=0:   1312 shell pairs
          la=1 lb=1:    339 shell pairs
          la=2 lb=0:    613 shell pairs
          la=2 lb=1:    305 shell pairs
          la=2 lb=2:     77 shell pairs
          la=3 lb=0:    304 shell pairs
          la=3 lb=1:    154 shell pairs
          la=3 lb=2:     72 shell pairs
          la=3 lb=3:     21 shell pairs

Calculating one electron integrals          ... done (  0.0 sec)
Calculating RI/J V-Matrix + Cholesky decomp.... done (  0.0 sec)
Calculating Nuclear repulsion               ... done (  0.0 sec) ENN=    246.272548004808 Eh

Diagonalization of the overlap matrix:
Smallest eigenvalue                        ... 2.019e-04
Time for diagonalization                   ...    0.009 sec
Threshold for overlap eigenvalues          ... 1.000e-07
Number of eigenvalues below threshold      ... 0
Time for construction of square roots      ...    0.006 sec
Total time needed                          ...    0.023 sec

-------------------
DFT GRID GENERATION
-------------------

General Integration Accuracy     IntAcc      ... 4.388
Radial Grid Type                 RadialGrid  ... OptM3 with GC (2021)
Angular Grid (max. ang.)         AngularGrid ... 4 (Lebedev-302)
Angular grid pruning method      GridPruning ... 4 (adaptive)
Weight generation scheme         WeightScheme... mBecke (2022)
Basis function cutoff            BFCut       ... 1.0000e-11
Integration weight cutoff        WCut        ... 1.0000e-14
Partially contracted basis set               ... off
Rotationally invariant grid construction     ... off
Angular grids for H and He will be reduced by one unit

Total number of grid points                  ...    62175
Total number of batches                      ...      980
Average number of points per batch           ...       63
Average number of grid points per atom       ...     4441

--------------------
COSX GRID GENERATION
--------------------

GRIDX 1
-------
General Integration Accuracy     IntAcc      ... 3.816
Radial Grid Type                 RadialGrid  ... OptM3 with GC (2021)
Angular Grid (max. ang.)         AngularGrid ... 1 (Lebedev-50)
Angular grid pruning method      GridPruning ... 4 (adaptive)
Weight generation scheme         WeightScheme... mBecke (2022)
Basis function cutoff            BFCut       ... 1.0000e-11
Integration weight cutoff        WCut        ... 1.0000e-14
Partially contracted basis set               ... on
Rotationally invariant grid construction     ... off
Angular grids for H and He will be reduced by one unit

Total number of grid points                  ...     7983
Total number of batches                      ...       72
Average number of points per batch           ...      110
Average number of grid points per atom       ...      570
UseSFitting                                  ... on

GRIDX 2
-------
General Integration Accuracy     IntAcc      ... 4.020
Radial Grid Type                 RadialGrid  ... OptM3 with GC (2021)
Angular Grid (max. ang.)         AngularGrid ... 2 (Lebedev-110)
Angular grid pruning method      GridPruning ... 4 (adaptive)
Weight generation scheme         WeightScheme... mBecke (2022)
Basis function cutoff            BFCut       ... 1.0000e-11
Integration weight cutoff        WCut        ... 1.0000e-14
Partially contracted basis set               ... on
Rotationally invariant grid construction     ... off
Angular grids for H and He will be reduced by one unit

Total number of grid points                  ...    17074
Total number of batches                      ...      141
Average number of points per batch           ...      121
Average number of grid points per atom       ...     1220
UseSFitting                                  ... on

GRIDX 3
-------
General Integration Accuracy     IntAcc      ... 4.338
Radial Grid Type                 RadialGrid  ... OptM3 with GC (2021)
Angular Grid (max. ang.)         AngularGrid ... 3 (Lebedev-194)
Angular grid pruning method      GridPruning ... 4 (adaptive)
Weight generation scheme         WeightScheme... mBecke (2022)
Basis function cutoff            BFCut       ... 1.0000e-11
Integration weight cutoff        WCut        ... 1.0000e-14
Partially contracted basis set               ... on
Rotationally invariant grid construction     ... off
Angular grids for H and He will be reduced by one unit

Total number of grid points                  ...    37491
Total number of batches                      ...      298
Average number of points per batch           ...      125
Average number of grid points per atom       ...     2678
UseSFitting                                  ... on
Initializing property integral containers    ... done (  0.0 sec)

SHARK setup successfully completed in   1.5 seconds

Maximum memory used throughout the entire STARTUP-calculation: 34.7 MB
-------------------------------------------------------------------------------
                                 ORCA GUESS
                   Start orbitals & Density for SCF / CASSCF
-------------------------------------------------------------------------------

------------
SCF SETTINGS
------------
Hamiltonian:
 Density Functional     Method          .... DFT(GTOs)
 Exchange Functional    Exchange        .... WB97X-V
 Correlation Functional Correlation     .... WB97X-V
 Gradients option       PostSCFGGA      .... off
 Hybrid DFT is turned on
   Fraction HF Exchange ScalHFX         ....  0.167000
   Scaling of DF-GGA-X  ScalDFX         ....  0.000000
   Scaling of DF-GGA-C  ScalDFC         ....  1.000000
   Scaling of DF-LDA-C  ScalLDAC        ....  1.000000
   Perturbative correction              ....  0.000000
 Long-range corrected/Screened/Range-Separated Hybrid DFT is turned on
   Amount of maximum screened exact exchange              ....  0.833000
   Range separation parameter mu (erf(mu*r12)/r12)        ....  0.300000
   NL short-range parameter             ....  6.000000
   NL long-range parameter              ....  0.010000
 RI-approximation to the Coulomb term is turned on
   Number of AuxJ basis functions       .... 382
   RIJ-COSX (HFX calculated with COS-X)).... on


General Settings:
 Integral files         IntName         .... sp
 Hartree-Fock type      HFTyp           .... RHF
 Total Charge           Charge          ....    0
 Multiplicity           Mult            ....    1
 Number of Electrons    NEL             ....   48
 Basis Dimension        Dim             ....  234
 Nuclear Repulsion      ENuc            ....    246.2725480048 Eh

Convergence Acceleration:
 AO-DIIS                CNVDIIS         .... on
   Start iteration      DIISMaxIt       ....    12
   Startup error        DIISStart       ....  0.200000
   # of expansion vecs  DIISMaxEq       ....     5
   Bias factor          DIISBfac        ....   1.050
   Max. coefficient     DIISMaxC        ....  10.000
 MO-DIIS                CNVKDIIS        .... off
 Trust-Rad. Augm. Hess. CNVTRAH         .... auto
   Auto Start mean grad. ratio tolernc. ....  1.125000
   Auto Start start iteration           ....     1
   Auto Start num. interpolation iter.  ....    10
   Max. Number of Micro iterations      ....    24
   Max. Number of Macro iterations      .... Maxiter - #DIIS iter
   Number of Davidson start vectors     ....     2
   Converg. threshold    (grad. norm)   ....   1.000e-04
   Grad. Scal. Fac. for Micro threshold ....   0.100
   Minimum threshold for Micro iter.    ....   1.000e-02
   NR start threshold (gradient norm)   ....   1.000e-04
   Initial trust radius                 ....   0.400
   Minimum AH scaling param. (alpha)    ....   1.000
   Maximum AH scaling param. (alpha)    .... 1000.000
   Quad. conv. algorithm                .... NR
   White noise on init. David. guess    .... on
   Maximum white noise                  ....   0.010
   Pseudo random numbers                .... off
   Inactive MOs                         .... canonical
   Orbital update algorithm             .... Taylor
   Preconditioner                       .... Diag
   Full preconditioner red. dimension   ....   250
 SOSCF                  CNVSOSCF        .... on
   Start iteration      SOSCFMaxIt      ....   150
   Startup grad/error   SOSCFStart      ....  0.003300
   Hessian update       SOSCFHessUp     .... L-BFGS
 Level Shifting         CNVShift        .... on
   Level shift para.    LevelShift      ....    0.2500
   Turn off err/grad.   ShiftErr        ....    0.0010
 Zerner damping         CNVZerner       .... off
 Static damping         CNVDamp         .... on
   Fraction old density DampFac         ....    0.7000
   Max. Damping (<1)    DampMax         ....    0.9800
   Min. Damping (>=0)   DampMin         ....    0.0000
   Turn off err/grad.   DampErr         ....    0.1000

SCF Procedure:
 Maximum # iterations   MaxIter         ....   125
 SCF integral mode      SCFMode         .... Direct
   Integral package                     .... SHARK and LIBINT hybrid scheme
 Reset frequency        DirectResetFreq ....    20
 Integral Threshold     Thresh          ....  3.000e-11 Eh
 Primitive CutOff       TCut            ....  1.000e-12 Eh

Convergence Tolerance:
 Convergence Check Mode ConvCheckMode   .... Total+1el-Energy
 Convergence forced     ConvForced      .... 0
 Energy Change          TolE            ....  1.000e-07 Eh
 1-El. energy change                    ....  1.000e-04 Eh
 Orbital Gradient       TolG            ....  1.000e-04
 Orbital Rotation angle TolX            ....  1.000e-04
 DIIS Error             TolErr          ....  1.000e-07

---------------------
INITIAL GUESS: MOREAD
---------------------
Guess MOs are being read from file: sp.ges
Input Geometry matches current geometry (good)
Atom 0: N(Shells)= 11 and 9 - projection required
Input basis set needs projection
NBasis(read)= 164
NBasis(calc)= 234
Basis set overlap was calculated
Using GuessMode=FMatrix for the initial guess
C*T matrix was formed
Effective Fockian was calculated
Effective Fockian was diagonalized
Initial density was built
                      ------------------
                      INITIAL GUESS DONE (   0.0 sec)
                      ------------------
             **** ENERGY FILE WAS UPDATED (sp.en.tmp) ****
Finished Guess after   0.1 sec
Maximum memory used throughout the entire GUESS-calculation: 19.6 MB

-------------------------------------------------------------------------------------------
                                      ORCA LEAN-SCF
                              memory conserving SCF solver
-------------------------------------------------------------------------------------------

----------------------------------------D-I-I-S--------------------------------------------
Iteration    Energy (Eh)           Delta-E    RMSDP     MaxDP     DIISErr   Damp  Time(sec)
-------------------------------------------------------------------------------------------
               ***  Starting incremental Fock matrix formation  ***
    1    -307.9021043111059726     0.00e+00  7.84e-04  2.10e-02  5.82e-02  0.700  12.0
    2    -307.9061089493681038    -4.00e-03  6.79e-04  1.62e-02  4.23e-02  0.700   6.7
                               ***Turning on AO-DIIS***
    3    -307.9091288857106292    -3.02e-03  5.64e-04  1.29e-02  3.03e-02  0.700   5.2
    4    -307.9113536036819596    -2.22e-03  1.41e-03  3.37e-02  2.13e-02  0.000   5.5
                              *** Initializing SOSCF ***
---------------------------------------S-O-S-C-F--------------------------------------
Iteration    Energy (Eh)           Delta-E    RMSDP     MaxDP     MaxGrad    Time(sec)
--------------------------------------------------------------------------------------
    5    -307.9170272549636138    -5.67e-03  6.78e-05  2.09e-03  1.59e-03     6.2
               *** Restarting incremental Fock matrix formation ***
    6    -307.9170414390595170    -1.42e-05  3.38e-05  9.44e-04  5.32e-04    10.7
    7    -307.9170470648657556    -5.63e-06  2.01e-05  3.79e-04  1.81e-04     9.0
    8    -307.9170478511870215    -7.86e-07  4.31e-06  1.93e-04  8.86e-05     8.8
    9    -307.9170480556175562    -2.04e-07  2.51e-06  6.74e-05  5.38e-05     8.1
   10    -307.9170480891322086    -3.35e-08  6.23e-07  2.97e-05  1.92e-05     7.7
                 **** Energy Check signals convergence ****

               *****************************************************
               *                     SUCCESS                       *
               *           SCF CONVERGED AFTER  10 CYCLES          *
               *****************************************************


------------------
NL GRID GENERATION
------------------

General Integration Accuracy     IntAcc      ... 4.004
Radial Grid Type                 RadialGrid  ... OptM3 with GC (2021)
Angular Grid (max. ang.)         AngularGrid ... 2 (Lebedev-110)
Angular grid pruning method      GridPruning ... 4 (adaptive)
Weight generation scheme         WeightScheme... mBecke (2022)
Basis function cutoff            BFCut       ... 1.0000e-10
Integration weight cutoff        WCut        ... 1.0000e-14
Partially contracted basis set               ... off
Rotationally invariant grid construction     ... off
Angular grids for H and He will be reduced by one unit

Total number of grid points                  ...    19139
Total number of batches                      ...      305
Average number of points per batch           ...       62
Average number of grid points per atom       ...     1367
Final grid set up in    0.1 sec

-------------------------------------------------------------------------------
                    post-SCF DFT-NL dispersion correction                      
-------------------------------------------------------------------------------

SCF Energy:     -307.917048089 
NL    Energy:      0.187634282 
SC+NL Energy:   -307.729413807 
NL done in  :              1.7 sec
-------------------------------------------------------------------------------
Recomputing exchange energy using gridx3       ... done (   20.572 sec)
Old exchange energy                            :    -12.972281242 Eh
New exchange energy                            :    -12.972295627 Eh
Exchange energy change after final integration :     -0.000014386 Eh
Total energy after final integration           :   -307.729428193 Eh
             **** ENERGY FILE WAS UPDATED (sp.en.tmp) ****

----------------
TOTAL SCF ENERGY
----------------

Total Energy       :       -307.72942819271168 Eh           -8373.74345 eV

Components:
Nuclear Repulsion  :        246.27254800480833 Eh            6701.41672 eV
Electronic Energy  :       -554.18959609394051 Eh          -15080.26558 eV
One Electron Energy:       -905.89357060346151 Eh          -24650.61727 eV
Two Electron Energy:        351.70397450952106 Eh            9570.35169 eV

Virial components:
Potential Energy   :       -614.25078214351106 Eh          -16714.61354 eV
Kinetic Energy     :        306.52135395079932 Eh            8340.87008 eV
Virial Ratio       :          2.00394124006808

DFT components:
N(Alpha)           :       23.999981018664 electrons
N(Beta)            :       23.999981018664 electrons
N(Total)           :       47.999962037327 electrons
E(X)               :      -27.049571270322 Eh       
E(C)               :       -1.989061091140 Eh       
NL Energy, E(C,NL) :        0.187634282114 Eh       
E(XC)              :      -28.850998079348 Eh       

---------------
SCF CONVERGENCE
---------------

  Last Energy change         ...    3.3515e-08  Tolerance :   1.0000e-07
  Last MAX-Density change    ...    2.9668e-05  Tolerance :   1.0000e-05
  Last RMS-Density change    ...    6.2308e-07  Tolerance :   1.0000e-06
  Last DIIS Error            ...    1.5880e-03  Tolerance :   1.0000e-07
  Last Orbital Gradient      ...    1.9235e-05  Tolerance :   1.0000e-04
  Last Orbital Rotation      ...    2.4062e-05  Tolerance :   1.0000e-04


----------------
ORBITAL ENERGIES
----------------

  NO   OCC          E(Eh)            E(eV) 
   0   2.0000     -19.261489      -524.1317 
   1   2.0000     -19.196542      -522.3645 
   2   2.0000     -10.400389      -283.0090 
   3   2.0000     -10.326532      -280.9992 
   4   2.0000     -10.287758      -279.9441 
   5   2.0000     -10.268859      -279.4299 
   6   2.0000      -1.237376       -33.6707 
   7   2.0000      -1.145576       -31.1727 
   8   2.0000      -0.929231       -25.2857 
   9   2.0000      -0.850387       -23.1402 
  10   2.0000      -0.780444       -21.2370 
  11   2.0000      -0.685722       -18.6595 
  12   2.0000      -0.619293       -16.8518 
  13   2.0000      -0.612833       -16.6760 
  14   2.0000      -0.588126       -16.0037 
  15   2.0000      -0.565704       -15.3936 
  16   2.0000      -0.532154       -14.4807 
  17   2.0000      -0.510761       -13.8985 
  18   2.0000      -0.502429       -13.6718 
  19   2.0000      -0.475796       -12.9471 
  20   2.0000      -0.469108       -12.7651 
  21   2.0000      -0.455270       -12.3885 
  22   2.0000      -0.412537       -11.2257 
  23   2.0000      -0.381909       -10.3923 
  24   0.0000       0.096785         2.6336 
  25   0.0000       0.109602         2.9824 
  26   0.0000       0.134806         3.6683 
  27   0.0000       0.155746         4.2381 
  28   0.0000       0.174359         4.7445 
  29   0.0000       0.177921         4.8415 
  30   0.0000       0.183896         5.0041 
  31   0.0000       0.194367         5.2890 
  32   0.0000       0.203613         5.5406 
  33   0.0000       0.216898         5.9021 
  34   0.0000       0.250661         6.8208 
*Only the first 10 virtual orbitals were printed.

                    ********************************
                    * MULLIKEN POPULATION ANALYSIS *
                    ********************************

-----------------------
MULLIKEN ATOMIC CHARGES
-----------------------
   0 C :   -0.319939
   1 C :   -0.175641
   2 C :    0.297279
   3 O :   -0.344779
   4 O :   -0.236306
   5 C :   -0.194024
   6 H :    0.112148
   7 H :    0.114872
   8 H :    0.116068
   9 H :    0.118944
  10 H :    0.125750
  11 H :    0.130683
  12 H :    0.127286
  13 H :    0.127659
Sum of atomic charges:   -0.0000000

--------------------------------
MULLIKEN REDUCED ORBITAL CHARGES
--------------------------------
  0 C s       :     3.214032  s :     3.214032
      pz      :     1.057394  p :     3.044899
      px      :     1.046228
      py      :     0.941277
      dz2     :     0.010325  d :     0.057659
      dxz     :     0.002555
      dyz     :     0.017507
      dx2y2   :     0.016394
      dxy     :     0.010878
      f0      :     0.000505  f :     0.003348
      f+1     :     0.000315
      f-1     :     0.000569
      f+2     :     0.000338
      f-2     :     0.000161
      f+3     :     0.000892
      f-3     :     0.000568

  1 C s       :     3.157825  s :     3.157825
      pz      :     1.041439  p :     2.927326
      px      :     0.902536
      py      :     0.983350
      dz2     :     0.013968  d :     0.085296
      dxz     :     0.007943
      dyz     :     0.019687
      dx2y2   :     0.021214
      dxy     :     0.022485
      f0      :     0.000693  f :     0.005194
      f+1     :     0.000413
      f-1     :     0.000613
      f+2     :     0.000628
      f-2     :     0.000245
      f+3     :     0.001365
      f-3     :     0.001237

  2 C s       :     3.105613  s :     3.105613
      pz      :     0.729453  p :     2.299630
      px      :     0.849715
      py      :     0.720462
      dz2     :     0.008707  d :     0.273375
      dxz     :     0.028441
      dyz     :     0.070871
      dx2y2   :     0.088107
      dxy     :     0.077248
      f0      :     0.002849  f :     0.024103
      f+1     :     0.001145
      f-1     :     0.001517
      f+2     :     0.001969
      f-2     :     0.003547
      f+3     :     0.004376
      f-3     :     0.008700

  3 O s       :     3.792914  s :     3.792914
      pz      :     1.407954  p :     4.518121
      px      :     1.700893
      py      :     1.409274
      dz2     :     0.002764  d :     0.031835
      dxz     :     0.001798
      dyz     :     0.009907
      dx2y2   :     0.008690
      dxy     :     0.008676
      f0      :     0.000192  f :     0.001908
      f+1     :     0.000044
      f-1     :     0.000162
      f+2     :     0.000235
      f-2     :     0.000252
      f+3     :     0.000468
      f-3     :     0.000556

  4 O s       :     3.744195  s :     3.744195
      pz      :     1.719512  p :     4.451357
      px      :     1.229119
      py      :     1.502726
      dz2     :     0.004387  d :     0.038751
      dxz     :     0.004782
      dyz     :     0.004781
      dx2y2   :     0.012022
      dxy     :     0.012779
      f0      :     0.000266  f :     0.002003
      f+1     :     0.000335
      f-1     :     0.000209
      f+2     :     0.000143
      f-2     :     0.000184
      f+3     :     0.000456
      f-3     :     0.000410

  5 C s       :     3.238466  s :     3.238466
      pz      :     1.094948  p :     2.860546
      px      :     0.684189
      py      :     1.081408
      dz2     :     0.008380  d :     0.087851
      dxz     :     0.029039
      dyz     :     0.010049
      dx2y2   :     0.017380
      dxy     :     0.023003
      f0      :     0.000903  f :     0.007162
      f+1     :     0.000739
      f-1     :     0.000861
      f+2     :     0.001510
      f-2     :     0.000021
      f+3     :     0.001594
      f-3     :     0.001533

  6 H s       :     0.866868  s :     0.866868
      pz      :     0.011456  p :     0.020985
      px      :     0.004755
      py      :     0.004774

  7 H s       :     0.864024  s :     0.864024
      pz      :     0.007225  p :     0.021104
      px      :     0.005642
      py      :     0.008237

  8 H s       :     0.862850  s :     0.862850
      pz      :     0.004244  p :     0.021082
      px      :     0.012590
      py      :     0.004248

  9 H s       :     0.859343  s :     0.859343
      pz      :     0.011886  p :     0.021714
      px      :     0.004918
      py      :     0.004910

 10 H s       :     0.852705  s :     0.852705
      pz      :     0.007069  p :     0.021546
      px      :     0.005845
      py      :     0.008632

 11 H s       :     0.849089  s :     0.849089
      pz      :     0.009470  p :     0.020228
      px      :     0.003132
      py      :     0.007626

 12 H s       :     0.852399  s :     0.852399
      pz      :     0.004296  p :     0.020315
      px      :     0.004355
      py      :     0.011664

 13 H s       :     0.852185  s :     0.852185
      pz      :     0.010582  p :     0.020157
      px      :     0.003678
      py      :     0.005896


------------------------
MULLIKEN OVERLAP CHARGES
------------------------
B(  0-C ,  1-C ) :   0.5022 B(  0-C ,  2-C ) :  -0.0788 B(  0-C ,  6-H ) :   0.8237 
B(  0-C ,  7-H ) :   0.8039 B(  0-C ,  8-H ) :   0.8067 B(  0-C ,  9-H ) :  -0.0506 
B(  0-C , 10-H ) :  -0.0642 B(  1-C ,  2-C ) :   0.6596 B(  1-C ,  3-O ) :  -0.1638 
B(  1-C ,  4-O ) :  -0.2253 B(  1-C ,  6-H ) :  -0.0660 B(  1-C ,  8-H ) :  -0.0742 
B(  1-C ,  9-H ) :   0.7787 B(  1-C , 10-H ) :   0.8435 B(  2-C ,  3-O ) :   1.3807 
B(  2-C ,  4-O ) :   0.7307 B(  2-C ,  5-C ) :  -0.0916 B(  2-C , 10-H ) :  -0.0794 
B(  3-O ,  4-O ) :  -0.1956 B(  4-O ,  5-C ) :   0.4731 B(  4-O , 11-H ) :  -0.0715 
B(  4-O , 12-H ) :  -0.0685 B(  4-O , 13-H ) :  -0.0688 B(  5-C , 11-H ) :   0.8439 
B(  5-C , 12-H ) :   0.7913 B(  5-C , 13-H ) :   0.8374 B( 11-H , 12-H ) :  -0.0508 
B( 11-H , 13-H ) :  -0.0730 B( 12-H , 13-H ) :  -0.0515 


                     *******************************
                     * LOEWDIN POPULATION ANALYSIS *
                     *******************************

----------------------
LOEWDIN ATOMIC CHARGES
----------------------
   0 C :   -0.301054
   1 C :   -0.248548
   2 C :   -0.468586
   3 O :    0.094457
   4 O :    0.223982
   5 C :   -0.294613
   6 H :    0.119584
   7 H :    0.119868
   8 H :    0.118252
   9 H :    0.153329
  10 H :    0.151518
  11 H :    0.111500
  12 H :    0.109399
  13 H :    0.110911

-------------------------------
LOEWDIN REDUCED ORBITAL CHARGES
-------------------------------
  0 C s       :     2.826853  s :     2.826853
      pz      :     1.076753  p :     3.188291
      px      :     1.065599
      py      :     1.045939
      dz2     :     0.051336  d :     0.261058
      dxz     :     0.013062
      dyz     :     0.073532
      dx2y2   :     0.075362
      dxy     :     0.047767
      f0      :     0.002768  f :     0.024851
      f+1     :     0.002528
      f-1     :     0.003282
      f+2     :     0.002767
      f-2     :     0.004210
      f+3     :     0.005552
      f-3     :     0.003744

  1 C s       :     2.776906  s :     2.776906
      pz      :     1.031880  p :     3.067803
      px      :     0.999782
      py      :     1.036141
      dz2     :     0.061159  d :     0.367234
      dxz     :     0.042786
      dyz     :     0.074173
      dx2y2   :     0.094570
      dxy     :     0.094547
      f0      :     0.004313  f :     0.036605
      f+1     :     0.003600
      f-1     :     0.003590
      f+2     :     0.004574
      f-2     :     0.005144
      f+3     :     0.007649
      f-3     :     0.007734

  2 C s       :     2.761328  s :     2.761328
      pz      :     0.712355  p :     2.623243
      px      :     0.973806
      py      :     0.937082
      dz2     :     0.063259  d :     0.933558
      dxz     :     0.084162
      dyz     :     0.186187
      dx2y2   :     0.305286
      dxy     :     0.294664
      f0      :     0.009410  f :     0.150457
      f+1     :     0.006425
      f-1     :     0.012489
      f+2     :     0.012380
      f-2     :     0.023618
      f+3     :     0.028450
      f-3     :     0.057684

  3 O s       :     3.396628  s :     3.396628
      pz      :     1.326774  p :     4.436069
      px      :     1.596684
      py      :     1.512611
      dz2     :     0.008126  d :     0.066788
      dxz     :     0.002217
      dyz     :     0.012094
      dx2y2   :     0.022051
      dxy     :     0.022301
      f0      :     0.000419  f :     0.006059
      f+1     :     0.000221
      f-1     :     0.000855
      f+2     :     0.000460
      f-2     :     0.000398
      f+3     :     0.001828
      f-3     :     0.001878

  4 O s       :     3.263671  s :     3.263671
      pz      :     1.585481  p :     4.400847
      px      :     1.292938
      py      :     1.522428
      dz2     :     0.011065  d :     0.105011
      dxz     :     0.015996
      dyz     :     0.007725
      dx2y2   :     0.033778
      dxy     :     0.036447
      f0      :     0.000552  f :     0.006488
      f+1     :     0.000663
      f-1     :     0.000439
      f+2     :     0.000664
      f-2     :     0.000456
      f+3     :     0.001528
      f-3     :     0.002186

  5 C s       :     2.863512  s :     2.863512
      pz      :     1.116896  p :     3.019616
      px      :     0.796891
      py      :     1.105829
      dz2     :     0.047144  d :     0.360292
      dxz     :     0.092643
      dyz     :     0.041761
      dx2y2   :     0.081589
      dxy     :     0.097155
      f0      :     0.005278  f :     0.051193
      f+1     :     0.007462
      f-1     :     0.003232
      f+2     :     0.009411
      f-2     :     0.001904
      f+3     :     0.011391
      f-3     :     0.012516

  6 H s       :     0.819809  s :     0.819809
      pz      :     0.032207  p :     0.060607
      px      :     0.014751
      py      :     0.013650

  7 H s       :     0.819120  s :     0.819120
      pz      :     0.021824  p :     0.061012
      px      :     0.017142
      py      :     0.022045

  8 H s       :     0.821427  s :     0.821427
      pz      :     0.013436  p :     0.060320
      px      :     0.034356
      py      :     0.012529

  9 H s       :     0.787979  s :     0.787979
      pz      :     0.031169  p :     0.058693
      px      :     0.013755
      py      :     0.013768

 10 H s       :     0.789774  s :     0.789774
      pz      :     0.020592  p :     0.058708
      px      :     0.015796
      py      :     0.022321

 11 H s       :     0.826836  s :     0.826836
      pz      :     0.028781  p :     0.061664
      px      :     0.009686
      py      :     0.023198

 12 H s       :     0.830198  s :     0.830198
      pz      :     0.013893  p :     0.060402
      px      :     0.012377
      py      :     0.034132

 13 H s       :     0.827713  s :     0.827713
      pz      :     0.031985  p :     0.061376
      px      :     0.011163
      py      :     0.018228


---------------------------------
LOEWDIN BOND ORDERS (THRESH 0.050000)
---------------------------------
B(  0-C ,  1-C ) :   1.2834 B(  0-C ,  2-C ) :   0.1353 B(  0-C ,  6-H ) :   0.9078 
B(  0-C ,  7-H ) :   0.9075 B(  0-C ,  8-H ) :   0.9048 B(  0-C ,  9-H ) :   0.0724 
B(  0-C , 10-H ) :   0.0717 B(  1-C ,  2-C ) :   1.1754 B(  1-C ,  3-O ) :   0.1653 
B(  1-C ,  4-O ) :   0.1240 B(  1-C ,  6-H ) :   0.0774 B(  1-C ,  7-H ) :   0.0775 
B(  1-C ,  8-H ) :   0.0839 B(  1-C ,  9-H ) :   0.8272 B(  1-C , 10-H ) :   0.8328 
B(  2-C ,  3-O ) :   2.6543 B(  2-C ,  4-O ) :   1.6562 B(  2-C ,  5-C ) :   0.1995 
B(  2-C ,  9-H ) :   0.0926 B(  2-C , 10-H ) :   0.0894 B(  3-O ,  4-O ) :   0.1735 
B(  3-O ,  5-C ) :   0.0683 B(  4-O ,  5-C ) :   1.3759 B(  4-O , 12-H ) :   0.0517 
B(  5-C , 11-H ) :   0.9364 B(  5-C , 12-H ) :   0.9403 B(  5-C , 13-H ) :   0.9374 


------------------------------------------
LOEWDIN REDUCED ORBITAL POPULATIONS PER MO
-------------------------------------------
THRESHOLD FOR PRINTING IS 0.1%%
                      0         1         2         3         4         5   
                 -19.26149 -19.19654 -10.40039 -10.32653 -10.28776 -10.26886
                   2.00000   2.00000   2.00000   2.00000   2.00000   2.00000
                  --------  --------  --------  --------  --------  --------
 0 C  s               0.0       0.0       0.0       0.0       0.0      99.4
 1 C  s               0.0       0.0       0.0       0.0      99.2       0.0
 1 C  dx2y2           0.0       0.0       0.1       0.0       0.0       0.1
 2 C  s               0.0       0.0      99.0       0.0       0.0       0.0
 2 C  dx2y2           0.0       0.1       0.0       0.0       0.1       0.0
 3 O  s               0.0      99.6       0.0       0.0       0.0       0.0
 3 O  py              0.0       0.0       0.2       0.0       0.0       0.0
 3 O  dxy             0.0       0.0       0.1       0.0       0.0       0.0
 4 O  s              99.7       0.0       0.0       0.0       0.0       0.0
 4 O  px              0.0       0.0       0.0       0.1       0.0       0.0
 5 C  s               0.0       0.0       0.0      99.6       0.0       0.0

                      6         7         8         9        10        11   
                  -1.23738  -1.14558  -0.92923  -0.85039  -0.78044  -0.68572
                   2.00000   2.00000   2.00000   2.00000   2.00000   2.00000
                  --------  --------  --------  --------  --------  --------
 0 C  s               0.1       0.0      15.8       7.2      17.7       0.3
 0 C  pz              0.0       0.0       0.2       0.0       0.2       0.1
 0 C  px              0.3       0.0       0.4       0.1       0.5       0.1
 0 C  py              0.1       0.0       2.9       0.1       4.3       1.1
 0 C  dz2             0.0       0.0       0.1       0.0       0.1       0.0
 0 C  dx2y2           0.0       0.0       0.3       0.1       0.3       0.1
 0 C  dxy             0.0       0.0       0.2       0.0       0.2       0.0
 1 C  s               1.1       0.2      25.0       1.9       7.1       1.6
 1 C  pz              0.0       0.0       0.1       0.0       0.5       0.2
 1 C  px              2.3       0.2       0.1       2.4       2.2       3.8
 1 C  py              0.0       0.6       1.3       0.7       9.6       1.5
 1 C  dz2             0.1       0.0       0.2       0.0       0.1       0.2
 1 C  dyz             0.0       0.0       0.1       0.0       0.2       0.0
 1 C  dx2y2           0.3       0.0       0.0       0.7       0.9       0.3
 1 C  dxy             0.0       0.4       0.1       0.2       0.2       0.0
 1 C  f+3             0.0       0.0       0.1       0.0       0.0       0.0
 2 C  s              17.9       3.6       3.7       2.2       2.1       4.1
 2 C  pz              0.0       0.1       0.0       0.0       0.1       0.1
 2 C  px              4.4       0.1       9.9       0.4       8.2       0.9
 2 C  py              0.2      23.7       2.3       3.3       0.0       3.4
 2 C  dz2             1.8       0.1       0.1       0.0       0.0       0.2
 2 C  dx2y2           0.9       0.5       0.7       0.4       1.4       0.1
 2 C  dxy             0.4       4.8       0.1       0.3       0.1       0.1
 2 C  f+1             0.1       0.0       0.1       0.0       0.0       0.0
 2 C  f-1             0.0       0.4       0.0       0.0       0.0       0.0
 2 C  f+3             0.8       0.1       0.0       0.1       0.0       0.0
 3 O  s              13.8      36.3       1.3       0.4       1.4       2.1
 3 O  px              0.1       0.9       0.5       0.0       1.4       0.2
 3 O  py              3.3       2.3       0.2       0.3       0.3       3.7
 3 O  dx2y2           0.2       0.0       0.0       0.0       0.0       0.1
 3 O  dxy             0.0       0.2       0.0       0.0       0.1       0.0
 4 O  s              33.7      17.5       0.1       1.0       0.7       5.0
 4 O  pz              0.0       0.0       0.0       0.1       0.0       0.1
 4 O  px              0.0       0.3       5.9      17.1       0.1      10.0
 4 O  py              2.8       0.5       0.2       1.7       0.1      16.8
 4 O  dz2             0.1       0.0       0.0       0.0       0.0       0.1
 4 O  dx2y2           0.0       0.1       0.0       0.5       0.1       0.1
 4 O  dxy             0.1       0.0       0.2       0.3       0.0       0.2
 5 C  s               4.3       2.3       3.2      25.4       3.3       4.0
 5 C  px              5.7       1.9       0.2       0.7       1.0      12.3
 5 C  py              0.0       0.3       0.0       0.1       0.0       5.5
 5 C  dz2             0.6       0.2       0.0       0.0       0.1       0.5
 5 C  dx2y2           1.5       0.7       0.0       0.2       0.1       0.6
 5 C  dxy             0.0       0.1       0.0       0.0       0.0       0.8
 5 C  f+1             0.1       0.1       0.0       0.0       0.0       0.0
 5 C  f+3             0.2       0.1       0.0       0.0       0.0       0.0
 5 C  f-3             0.0       0.0       0.0       0.0       0.0       0.2
 6 H  s               0.0       0.0       3.1       1.7       6.8       0.4
 6 H  pz              0.0       0.0       0.2       0.1       0.6       0.0
 7 H  s               0.0       0.0       3.1       1.6       6.8       0.4
 7 H  pz              0.0       0.0       0.1       0.1       0.3       0.0
 7 H  px              0.0       0.0       0.0       0.0       0.2       0.0
 7 H  py              0.0       0.0       0.2       0.1       0.2       0.0
 8 H  s               0.0       0.0       3.1       2.2       7.0       0.0
 8 H  px              0.0       0.0       0.3       0.2       0.7       0.0
 9 H  s               0.2       0.0       5.2       0.6       3.5       1.9
 9 H  pz              0.0       0.0       0.4       0.1       0.3       0.2
10 H  s               0.2       0.1       5.1       0.7       3.4       2.3
10 H  pz              0.0       0.0       0.1       0.0       0.2       0.1
10 H  px              0.0       0.0       0.1       0.0       0.2       0.0
10 H  py              0.0       0.0       0.3       0.1       0.0       0.1
11 H  s               0.6       0.2       0.6       6.8       1.2       5.9
11 H  pz              0.0       0.0       0.0       0.4       0.1       0.4
11 H  py              0.0       0.0       0.0       0.3       0.0       0.1
12 H  s               0.5       0.3       0.7       8.2       1.5       0.8
12 H  px              0.0       0.0       0.0       0.1       0.0       0.1
12 H  py              0.0       0.0       0.1       0.7       0.1       0.2
13 H  s               0.6       0.2       0.6       6.8       1.3       5.6
13 H  pz              0.0       0.0       0.0       0.5       0.1       0.5
13 H  py              0.0       0.0       0.0       0.2       0.0       0.0

                     12        13        14        15        16        17   
                  -0.61929  -0.61283  -0.58813  -0.56570  -0.53215  -0.51076
                   2.00000   2.00000   2.00000   2.00000   2.00000   2.00000
                  --------  --------  --------  --------  --------  --------
 0 C  s               0.1       0.0       0.2       0.0       0.0       0.1
 0 C  pz              1.4       3.2       0.8      14.3       0.2       4.0
 0 C  px              3.9       0.3       1.2       0.0      13.6      17.8
 0 C  py              3.2       1.4       2.6       1.8       1.9       8.3
 0 C  dz2             0.1       0.0       0.0       0.0       0.3       0.0
 0 C  dxz             0.0       0.1       0.0       0.2       0.0       0.1
 0 C  dyz             0.2       0.0       0.0       0.0       0.0       0.0
 0 C  dx2y2           0.2       0.1       0.1       0.0       0.2       1.1
 1 C  s               1.0       0.1       0.4       0.0       0.1       0.5
 1 C  pz              2.3      10.3       0.2      19.1       0.0       0.6
 1 C  px             14.6       1.6       0.9       0.2       6.6       0.8
 1 C  py              0.1       0.8       1.7       0.9       0.1      15.2
 1 C  dz2             0.4       0.0       0.1       0.0       0.0       0.0
 1 C  dxz             0.0       0.1       0.0       0.4       0.0       0.2
 1 C  dx2y2           0.1       0.0       0.0       0.0       0.2       0.8
 1 C  dxy             0.1       0.0       0.5       0.1       0.0       0.0
 2 C  s               0.8       0.0       2.9       0.1       0.2       0.1
 2 C  pz              1.1      16.7       0.2       0.2       0.0       2.9
 2 C  px             10.4       0.3       0.3       0.0       4.2       2.3
 2 C  py              0.3       0.2       6.3       0.2       0.1       1.1
 2 C  dz2             0.0       0.0       0.5       0.1       0.1       0.0
 2 C  dxz             0.0       0.1       0.0       1.5       0.0       0.0
 2 C  dyz             0.0       0.1       0.0       0.1       0.0       0.2
 2 C  dx2y2           1.4       0.3       1.4       0.0       0.8       0.1
 2 C  dxy             0.1       0.0       1.1       0.0       0.0       1.6
 2 C  f0              0.0       0.3       0.0       0.0       0.0       0.0
 2 C  f-3             0.0       0.0       0.1       0.0       0.2       0.0
 3 O  s               0.0       0.1      12.3       0.3       0.3       0.5
 3 O  pz              0.3       7.8       0.0       0.0       0.0       4.5
 3 O  px              5.7       0.0      11.6       0.2       0.0       1.2
 3 O  py              1.1       0.2      32.6       1.3       3.5       6.8
 3 O  dz2             0.0       0.0       0.2       0.0       0.0       0.0
 3 O  dyz             0.0       0.3       0.0       0.0       0.0       0.1
 3 O  dx2y2           0.1       0.0       0.1       0.0       0.1       0.1
 3 O  dxy             0.2       0.0       0.3       0.0       0.0       0.0
 4 O  s               0.8       0.1       0.4       0.0       0.2       0.3
 4 O  pz              2.1      21.6       0.4       6.8       0.0       0.1
 4 O  px              2.3       0.2       9.2       0.1       7.9       0.7
 4 O  py             14.2       2.2       0.7       0.0       0.5       0.0
 4 O  dxz             0.0       0.0       0.0       0.2       0.0       0.1
 4 O  dyz             0.0       0.2       0.0       0.0       0.0       0.0
 4 O  dx2y2           0.1       0.0       0.0       0.0       0.2       0.0
 4 O  dxy             0.1       0.0       0.0       0.0       0.4       0.0
 5 C  s               0.2       0.0       0.3       0.0       0.1       0.0
 5 C  pz              1.4      12.6       0.8      18.7       0.2       2.8
 5 C  px              1.7       0.6       3.5       0.2       7.2       0.0
 5 C  py              9.7       1.3       0.5       0.0      19.4       3.9
 5 C  dz2             0.1       0.0       0.0       0.0       0.3       0.1
 5 C  dxz             0.0       0.3       0.0       0.0       0.0       0.1
 5 C  dyz             0.0       0.2       0.0       0.3       0.0       0.1
 5 C  dx2y2           0.2       0.0       0.1       0.0       0.3       0.0
 5 C  dxy             0.1       0.0       0.0       0.0       0.7       0.2
 6 H  s               1.8       0.4       0.7       3.7       1.6       1.2
 6 H  pz              0.1       0.0       0.0       0.1       0.1       0.0
 6 H  px              0.0       0.0       0.0       0.0       0.1       0.3
 6 H  py              0.0       0.0       0.0       0.1       0.0       0.1
 7 H  s               0.8       1.7       0.1       4.3       2.3       0.5
 7 H  pz              0.1       0.0       0.0       0.0       0.1       0.0
 7 H  px              0.0       0.0       0.0       0.1       0.0       0.1
 7 H  py              0.0       0.0       0.0       0.1       0.0       0.2
 8 H  s               0.7       0.0       0.9       0.0       6.2      10.4
 8 H  pz              0.0       0.0       0.0       0.1       0.0       0.1
 8 H  px              0.0       0.0       0.0       0.0       0.1       0.2
 9 H  s               4.7       1.6       0.4       6.0       0.2       0.4
 9 H  pz              0.3       0.0       0.0       0.1       0.0       0.0
 9 H  py              0.0       0.0       0.0       0.1       0.0       0.2
10 H  s               1.5       4.0       0.0       5.4       0.6       0.8
10 H  pz              0.1       0.0       0.0       0.0       0.0       0.1
10 H  py              0.1       0.1       0.0       0.2       0.0       0.1
11 H  s               0.0       3.4       1.7       4.3       1.2       3.6
11 H  pz              0.0       0.0       0.0       0.0       0.1       0.1
11 H  px              0.0       0.1       0.0       0.1       0.2       0.0
11 H  py              0.1       0.1       0.0       0.2       0.1       0.0
12 H  s               5.8       0.5       0.3       0.1      14.8       1.2
12 H  pz              0.0       0.1       0.0       0.2       0.0       0.1
12 H  py              0.2       0.0       0.0       0.0       0.3       0.0
13 H  s               0.7       3.2       0.2       6.5       0.8       0.1
13 H  px              0.1       0.0       0.0       0.1       0.2       0.0
13 H  py              0.0       0.1       0.0       0.1       0.1       0.1

                     18        19        20        21        22        23   
                  -0.50243  -0.47580  -0.46911  -0.45527  -0.41254  -0.38191
                   2.00000   2.00000   2.00000   2.00000   2.00000   2.00000
                  --------  --------  --------  --------  --------  --------
 0 C  s               0.0       0.2       0.0       0.0       0.0       0.1
 0 C  pz             14.1       1.2       0.4      13.0       0.8       0.0
 0 C  px              3.3       9.3       0.1       0.4       0.0       1.7
 0 C  py              4.0      15.6       3.2       0.8       0.0       0.9
 0 C  dz2             0.4       0.6       0.1       0.6       0.1       0.1
 0 C  dyz             0.6       0.0       0.0       2.4       0.1       0.0
 0 C  dx2y2           0.1       0.6       0.0       0.3       0.0       0.3
 0 C  dxy             0.0       1.4       0.0       0.1       0.0       0.3
 0 C  f-2             0.0       0.0       0.0       0.1       0.0       0.0
 0 C  f+3             0.0       0.1       0.0       0.0       0.0       0.0
 1 C  s               0.1       0.2       0.0       0.0       0.0       0.2
 1 C  pz              0.0       1.0       0.6      16.1       0.6       0.1
 1 C  px              0.1       5.5       2.5       0.1       0.0       6.1
 1 C  py              1.9      14.3       1.2       0.8       0.0       1.1
 1 C  dz2             0.1       0.6       0.1       1.0       0.1       0.0
 1 C  dxz             0.6       0.0       0.1       0.6       0.0       0.0
 1 C  dyz             1.1       0.0       0.0       2.1       0.0       0.0
 1 C  dx2y2           0.0       0.5       0.1       0.2       0.0       0.4
 1 C  dxy             0.0       2.8       0.0       0.1       0.0       0.0
 1 C  f+2             0.1       0.0       0.0       0.0       0.0       0.0
 1 C  f-2             0.0       0.1       0.0       0.2       0.0       0.0
 2 C  s               0.0       0.5       0.4       0.0       0.0       0.4
 2 C  pz             11.1       0.1       0.3       1.8       0.7       0.0
 2 C  px              0.9       4.1       0.2       0.0       0.0       1.7
 2 C  py              0.2       0.2       4.6       0.2       0.0       0.4
 2 C  dxz             0.3       0.0       0.1       2.0       0.0       0.0
 2 C  dyz             0.6       0.0       0.0       0.0       8.1       0.0
 2 C  dx2y2           0.1       0.0       1.9       0.1       0.0       4.9
 2 C  dxy             0.4       0.3       0.1       0.1       0.0       5.0
 2 C  f+2             0.1       0.0       0.0       0.3       0.1       0.0
 2 C  f-2             0.1       0.0       0.0       0.0       1.0       0.0
 2 C  f+3             0.0       0.1       0.0       0.0       0.0       0.1
 2 C  f-3             0.0       0.5       0.2       0.0       0.0       1.7
 3 O  s               0.0       0.1       1.2       0.0       0.0       0.0
 3 O  pz             16.9       0.2       0.5       4.7      31.1       0.2
 3 O  px              1.4       1.4       3.1       0.1       0.0      52.0
 3 O  py              1.5       2.0       7.9       0.1       0.0       8.4
 3 O  dyz             0.2       0.0       0.0       0.0       0.0       0.0
 4 O  s               0.1       0.2       3.1       0.1       0.0       0.2
 4 O  pz              0.9       0.1       0.1       6.9      39.7       0.2
 4 O  px              0.2       3.0       6.9       0.2       0.1       0.3
 4 O  py              0.1       0.6      26.0       0.6       0.3       8.7
 4 O  dz2             0.0       0.0       0.2       0.0       0.0       0.0
 4 O  dxz             0.3       0.0       0.0       0.1       0.1       0.0
 4 O  dyz             0.1       0.0       0.0       0.0       0.1       0.0
 4 O  dx2y2           0.0       0.2       0.2       0.0       0.0       0.0
 4 O  dxy             0.0       0.0       0.5       0.0       0.0       0.0
 5 C  s               0.0       0.1       0.2       0.0       0.0       0.1
 5 C  pz             10.8       0.1       0.2       4.2       4.1       0.0
 5 C  px              0.1       1.7       2.0       0.1       0.0       0.7
 5 C  py              0.9       0.1      13.1       0.2       0.0       0.2
 5 C  dz2             0.1       0.0       0.3       0.0       0.0       0.0
 5 C  dxz             0.5       0.0       0.0       0.8       2.9       0.0
 5 C  dyz             0.2       0.0       0.1       0.2       0.9       0.0
 5 C  dx2y2           0.0       0.0       0.0       0.0       0.0       0.2
 5 C  dxy             0.1       0.0       2.4       0.1       0.0       0.2
 5 C  f0              0.0       0.0       0.0       0.0       0.2       0.0
 5 C  f+2             0.0       0.0       0.0       0.1       0.3       0.0
 5 C  f+3             0.0       0.0       0.1       0.0       0.0       0.0
 5 C  f-3             0.0       0.0       0.2       0.0       0.0       0.1
 6 H  s               6.9       4.6       0.7       6.7       0.4       0.1
 6 H  pz              0.1       0.2       0.0       0.0       0.0       0.0
 6 H  py              0.2       0.1       0.0       0.1       0.0       0.0
 7 H  s               4.7       6.2       0.3       7.6       0.3       0.0
 7 H  pz              0.0       0.3       0.0       0.0       0.0       0.0
 7 H  px              0.2       0.0       0.0       0.0       0.0       0.0
 7 H  py              0.0       0.0       0.0       0.1       0.0       0.0
 8 H  s               2.8       6.0       0.0       0.1       0.0       1.5
 8 H  pz              0.2       0.0       0.0       0.2       0.0       0.0
 8 H  py              0.0       0.2       0.1       0.0       0.0       0.0
 9 H  s               0.0       4.3       0.3       9.6       0.3       0.2
 9 H  pz              0.0       0.1       0.0       0.0       0.0       0.0
 9 H  px              0.0       0.0       0.1       0.1       0.0       0.1
 9 H  py              0.0       0.1       0.0       0.1       0.0       0.0
10 H  s               0.3       6.4       0.1       8.2       0.2       0.1
10 H  pz              0.0       0.3       0.0       0.0       0.0       0.0
10 H  px              0.0       0.0       0.0       0.1       0.0       0.1
10 H  py              0.0       0.0       0.0       0.1       0.0       0.0
11 H  s               1.8       0.0       5.4       1.1       3.3       0.1
11 H  pz              0.0       0.0       0.2       0.0       0.0       0.0
11 H  py              0.1       0.0       0.0       0.1       0.0       0.0
12 H  s               0.8       0.4       5.4       0.2       0.0       0.1
12 H  pz              0.1       0.0       0.0       0.1       0.1       0.0
12 H  px              0.0       0.0       0.1       0.0       0.0       0.0
13 H  s               6.1       0.1       1.9       2.9       3.6       0.1
13 H  pz              0.1       0.0       0.1       0.0       0.0       0.0

                     24        25        26        27        28        29   
                   0.09678   0.10960   0.13481   0.15575   0.17436   0.17792
                   0.00000   0.00000   0.00000   0.00000   0.00000   0.00000
                  --------  --------  --------  --------  --------  --------
 0 C  s               1.0       4.4       1.5       4.7       0.7       0.0
 0 C  pz              0.3       0.0       0.0       1.0       0.0       8.6
 0 C  px              0.0       0.2       0.8       0.3       6.7       0.0
 0 C  py              0.0       1.0       0.1       8.9       0.1       1.2
 0 C  dz2             0.1       0.3       0.0       0.1       0.0       0.9
 0 C  dxz             0.4       0.0       0.0       0.0       0.0       0.1
 0 C  dyz             0.1       0.3       0.0       0.5       0.0       2.5
 0 C  dx2y2           0.0       0.6       0.2       1.3       0.3       0.2
 0 C  dxy             0.0       0.1       0.0       0.0       0.2       0.0
 1 C  s               0.5       3.7       0.2       4.3       0.2       0.0
 1 C  pz              0.4       0.0       0.0       0.8       0.0       8.9
 1 C  px              0.0       0.3       0.8       1.0       3.5       0.0
 1 C  py              0.1       0.9       0.2       3.1       0.4       0.6
 1 C  dz2             1.4       0.4       0.0       0.1       0.1       0.6
 1 C  dxz             6.8       1.1       0.0       0.0       0.0       0.0
 1 C  dyz             0.0       0.6       0.1       0.2       0.0       2.3
 1 C  dx2y2           0.1       0.3       0.2       1.1       0.2       0.2
 1 C  dxy             0.0       0.2       0.4       0.0       0.2       0.0
 1 C  f0              0.1       0.0       0.0       0.1       0.0       0.0
 1 C  f+2             0.2       0.0       0.0       0.0       0.0       0.0
 2 C  s               0.5       3.6       1.0       0.8       1.8       0.2
 2 C  pz             34.4       4.5       0.0       0.5       0.0       6.0
 2 C  px              0.0       1.0       0.6       0.2       0.8       0.0
 2 C  py              0.1       0.2       1.1       1.8       0.3       0.3
 2 C  dz2             0.4       2.5       0.4       0.6       1.2       0.1
 2 C  dxz             1.9       0.0       0.0       0.1       0.0       0.1
 2 C  dyz             1.2       0.4       0.0       0.0       0.0       0.0
 2 C  dx2y2           0.0       0.2       0.2       0.1       0.0       0.0
 2 C  dxy             0.0       0.1       0.4       0.0       0.0       0.0
 2 C  f0              0.9       0.1       0.0       0.0       0.0       0.2
 2 C  f+2             0.4       0.0       0.0       0.0       0.0       0.0
 2 C  f+3             0.0       0.2       0.0       0.0       0.1       0.0
 2 C  f-3             0.0       0.0       0.0       0.0       0.1       0.0
 3 O  s               0.0       0.3       0.4       0.5       0.2       0.1
 3 O  pz             16.8       2.0       0.0       0.0       0.0       1.7
 3 O  px              0.0       0.2       0.2       0.4       0.2       0.1
 3 O  py              0.0       0.2       0.1       0.2       0.2       0.2
 3 O  dxz             0.4       0.0       0.0       0.0       0.0       0.0
 3 O  dyz             2.0       0.3       0.0       0.0       0.0       0.0
 4 O  s               0.1       1.4       0.3       0.1       3.5       0.0
 4 O  pz              6.5       1.0       0.0       0.0       0.0       0.6
 4 O  px              0.0       0.0       0.7       0.0       3.6       0.0
 4 O  py              0.0       0.2       0.0       0.3       0.3       0.1
 4 O  dz2             0.0       0.0       0.2       0.0       0.1       0.0
 4 O  dxz             0.6       0.1       0.0       0.0       0.0       0.0
 4 O  dyz             1.0       0.1       0.0       0.0       0.0       0.0
 4 O  dx2y2           0.0       0.0       0.4       0.0       0.2       0.0
 5 C  s               0.1       1.0      11.6       0.3       1.2       0.0
 5 C  pz              0.1       0.0       0.0       0.1       0.1       1.5
 5 C  px              0.3       4.3       4.1       0.1      36.4       0.2
 5 C  py              0.1       0.6       0.2       1.3       1.8       1.2
 5 C  dz2             0.0       0.7       0.1       0.0       3.9       0.2
 5 C  dxz             0.8       0.2       0.0       0.0       0.1       0.0
 5 C  dyz             0.6       0.1       0.0       0.0       0.0       0.2
 5 C  dx2y2           0.1       0.5       0.0       0.1       5.8       0.0
 5 C  dxy             0.0       0.0       0.0       0.0       0.2       0.0
 5 C  f+1             0.0       0.0       0.1       0.0       0.1       0.0
 5 C  f-1             0.0       0.0       0.1       0.0       0.0       0.0
 5 C  f+3             0.0       0.0       0.1       0.0       0.2       0.0
 6 H  s               1.9       8.0       1.0      12.5       0.0      10.5
 6 H  pz              0.2       0.8       0.2       1.4       0.0       0.7
 6 H  py              0.0       0.0       0.0       0.2       0.0       0.4
 7 H  s               1.0       8.0       1.0       9.6       0.4      13.3
 7 H  pz              0.1       0.6       0.1       0.5       0.0       0.2
 7 H  px              0.0       0.3       0.1       0.1       0.0       0.2
 7 H  py              0.1       0.2       0.0       0.7       0.0       1.1
 8 H  s               1.2       6.9       4.5       4.5      14.9       0.3
 8 H  pz              0.0       0.0       0.0       0.0       0.0       0.2
 8 H  px              0.2       0.9       0.5       0.6       1.4       0.0
 9 H  s               9.4       8.3       0.4      17.4       0.5      12.3
 9 H  pz              0.6       0.8       0.1       1.9       0.1       0.8
 9 H  px              0.3       0.0       0.0       0.0       0.0       0.1
 9 H  py              0.0       0.0       0.0       0.2       0.0       0.4
10 H  s               1.5      14.6       1.3      10.1       2.5      13.1
10 H  pz              0.0       0.8       0.1       0.6       0.1       0.1
[...]
 5 C  dxz             0.0       0.0       0.0       0.5       0.0       0.2
 5 C  dx2y2           0.0       0.2       0.0       0.0       0.1       0.0
 5 C  dxy             0.0       0.0       0.1       0.0       0.1       0.0
 5 C  f+2             0.0       0.0       0.0       0.2       0.0       0.1
 5 C  f+3             0.0       0.2       0.0       0.0       0.1       0.0
 5 C  f-3             0.0       0.1       0.0       0.0       0.1       0.0
12 H  s               0.0       0.0       0.1       0.0       0.0       0.0

                    222       223       224       225       226       227   
                   6.96051   6.98150   7.10340   7.21626   7.35157   7.49059
                   0.00000   0.00000   0.00000   0.00000   0.00000   0.00000
                  --------  --------  --------  --------  --------  --------
 1 C  s               0.2       0.0       0.1       0.1       0.0       0.0
 1 C  py              0.0       0.0       0.2       0.0       0.0       0.1
 1 C  dx2y2           0.2       0.0       0.0       0.1       0.0       0.0
 1 C  dxy             0.3       0.0       0.0       0.0       0.2       0.1
 1 C  f+3             0.2       0.0       0.1       0.0       0.0       0.1
 1 C  f-3             0.3       0.0       0.0       0.0       0.1       0.0
 2 C  s               0.2       0.0       0.4       3.7       1.7       0.1
 2 C  pz              0.0       0.1       0.0       0.0       0.0       0.0
 2 C  px              0.0       0.0       0.9       0.8       0.5       0.1
 2 C  py              0.1       0.0       1.1       1.4       0.2       0.1
 2 C  dz2             0.1       0.0       0.0       0.2       0.1       0.0
 2 C  dyz             0.0       2.6       0.0       0.0       0.0       0.0
 2 C  dx2y2           0.6       0.0       0.5       0.5       0.9       1.6
 2 C  dxy             2.2       0.0       1.5       0.2       2.5       0.6
 2 C  f+1             0.0       0.0       0.0       0.0       0.2       0.0
 2 C  f-1             0.0       0.0       0.2       0.4       0.1       0.1
 2 C  f-2             0.0       0.3       0.0       0.0       0.0       0.0
 2 C  f+3             0.6       0.0       0.0       1.4       1.4       0.4
 2 C  f-3             8.8       0.0       0.0       1.9       2.9       1.5
 3 O  s               0.1       0.0       0.3       1.8       0.0       0.5
 3 O  pz              0.0       1.1       0.0       0.0       0.0       0.0
 3 O  px              0.8       0.0       1.6       0.2       1.9       0.0
 3 O  py              0.1       0.0       0.0       3.2       0.2       0.1
 3 O  dz2             3.3       0.2       3.1      12.0       0.8       1.1
 3 O  dxz             0.0       7.6       0.0       0.1       0.0       0.0
 3 O  dyz             0.1      27.0       0.1       0.3       0.0       0.1
 3 O  dx2y2           6.4       0.2       7.2      36.8       1.8       1.5
 3 O  dxy             4.2       0.0      38.8      12.1       7.3       1.4
 3 O  f0              0.0       2.9       0.0       0.1       0.0       0.0
 3 O  f+1             0.4       0.0       0.7       0.1       1.3       0.1
 3 O  f-1             0.0       0.1       0.3       4.6       0.0       0.3
 3 O  f+2             0.1       3.8       0.0       0.1       0.1       0.0
 3 O  f-2             0.0       2.8       0.0       0.0       0.0       0.0
 3 O  f+3             0.8       0.0       4.5       2.5       2.3       0.2
 3 O  f-3            11.2       0.0       4.6       8.1      11.3       0.7
 4 O  s               1.0       0.0       0.7       0.2       1.0       2.2
 4 O  px              2.8       0.0       0.1       0.0       0.6       0.2
 4 O  py              0.8       0.0       0.2       0.1       0.6       0.2
 4 O  dz2            10.8       0.8      15.6       3.5       1.7       7.1
 4 O  dxz             0.2      36.3       0.3       0.0       0.3       0.6
 4 O  dyz             0.0       5.9       0.5       0.1       0.3       0.0
 4 O  dx2y2           3.1       0.0       1.0       0.6       0.6      61.5
 4 O  dxy            25.2       0.2      13.5       0.2      44.0       1.1
 4 O  f+1             2.1       0.0       0.0       0.1       0.3       0.3
 4 O  f-1             1.1       0.1       0.7       0.3       0.4       0.0
 4 O  f+2             0.3       2.8       0.0       0.0       0.1       0.0
 4 O  f-2             0.0       3.6       0.0       0.0       0.0       0.1
 4 O  f+3             3.1       0.1       0.5       0.3       6.1       1.3
 4 O  f-3             5.5       0.0       0.1       1.2       4.3       9.6
 5 C  s               0.8       0.0       0.0       0.0       0.1       1.3
 5 C  px              0.8       0.0       0.0       0.0       0.1       1.7
 5 C  py              0.0       0.0       0.1       0.0       0.1       0.1
 5 C  dz2             0.1       0.0       0.0       0.0       0.0       0.2
 5 C  dxz             0.0       0.4       0.0       0.0       0.0       0.0
 5 C  dx2y2           0.3       0.0       0.1       0.0       0.0       0.6
 5 C  dxy             0.0       0.0       0.0       0.0       0.5       0.1
 5 C  f+2             0.0       0.2       0.0       0.0       0.0       0.0
 5 C  f+3             0.1       0.0       0.0       0.0       0.1       0.0
 5 C  f-3             0.0       0.0       0.0       0.1       0.3       0.0

                    228       229       230       231       232       233   
                  22.37972  22.42919  22.55284  23.34852  43.95663  44.12898
                   0.00000   0.00000   0.00000   0.00000   0.00000   0.00000
                  --------  --------  --------  --------  --------  --------
 0 C  s               6.0      91.4       0.7       0.5       0.0       0.0
 1 C  s               0.2       0.6      97.7       0.2       0.0       0.0
 2 C  s               1.3       0.2       0.2      94.5       0.0       0.0
 2 C  px              0.0       0.0       0.2       0.3       0.0       0.0
 2 C  dz2             0.0       0.0       0.0       0.1       0.0       0.0
 2 C  dx2y2           0.0       0.0       0.1       0.1       0.0       0.0
 3 O  s               0.0       0.0       0.0       0.9      98.7       1.2
 3 O  px              0.0       0.0       0.0       0.1       0.0       0.0
 3 O  py              0.0       0.0       0.0       0.5       0.0       0.0
 4 O  s               0.2       0.0       0.0       0.4       1.2      98.5
 4 O  px              0.2       0.0       0.0       0.2       0.0       0.0
 4 O  py              0.0       0.0       0.0       0.3       0.0       0.0
 4 O  dxy             0.0       0.0       0.0       0.1       0.0       0.0
 5 C  s              90.8       6.4       0.0       1.0       0.0       0.1
 6 H  s               0.0       0.2       0.0       0.0       0.0       0.0
 7 H  s               0.0       0.2       0.0       0.0       0.0       0.0
 8 H  s               0.0       0.2       0.0       0.0       0.0       0.0
 9 H  s               0.0       0.0       0.2       0.0       0.0       0.0
10 H  s               0.0       0.0       0.2       0.0       0.0       0.0
11 H  s               0.2       0.0       0.0       0.0       0.0       0.0
12 H  s               0.2       0.0       0.0       0.0       0.0       0.0
13 H  s               0.2       0.0       0.0       0.0       0.0       0.0



                      *****************************
                      * MAYER POPULATION ANALYSIS *
                      *****************************

  NA   - Mulliken gross atomic population
  ZA   - Total nuclear charge
  QA   - Mulliken gross atomic charge
  VA   - Mayer's total valence
  BVA  - Mayer's bonded valence
  FA   - Mayer's free valence

  ATOM       NA         ZA         QA         VA         BVA        FA
  0 C      6.3199     6.0000    -0.3199     3.9124     3.9124    -0.0000
  1 C      6.1756     6.0000    -0.1756     3.8551     3.8551    -0.0000
  2 C      5.7027     6.0000     0.2973     4.2333     4.2333     0.0000
  3 O      8.3448     8.0000    -0.3448     2.1689     2.1689    -0.0000
  4 O      8.2363     8.0000    -0.2363     2.1003     2.1003    -0.0000
  5 C      6.1940     6.0000    -0.1940     3.8955     3.8955    -0.0000
  6 H      0.8879     1.0000     0.1121     0.9793     0.9793    -0.0000
  7 H      0.8851     1.0000     0.1149     0.9815     0.9815    -0.0000
  8 H      0.8839     1.0000     0.1161     0.9683     0.9683    -0.0000
  9 H      0.8811     1.0000     0.1189     0.9762     0.9762     0.0000
 10 H      0.8743     1.0000     0.1257     0.9812     0.9812    -0.0000
 11 H      0.8693     1.0000     0.1307     0.9728     0.9728    -0.0000
 12 H      0.8727     1.0000     0.1273     0.9655     0.9655    -0.0000
 13 H      0.8723     1.0000     0.1277     0.9710     0.9710    -0.0000

  Mayer bond orders larger than 0.100000
B(  0-C ,  1-C ) :   0.9847 B(  0-C ,  6-H ) :   0.9783 B(  0-C ,  7-H ) :   0.9731 
B(  0-C ,  8-H ) :   0.9739 B(  1-C ,  2-C ) :   0.9808 B(  1-C ,  9-H ) :   0.9508 
B(  1-C , 10-H ) :   0.9716 B(  2-C ,  3-O ) :   2.0581 B(  2-C ,  4-O ) :   1.1790 
B(  4-O ,  5-C ) :   0.9131 B(  5-C , 11-H ) :   0.9786 B(  5-C , 12-H ) :   0.9728 
B(  5-C , 13-H ) :   0.9780 

-------
TIMINGS
-------

Total SCF time: 0 days 0 hours 1 min 42 sec 

Total time                  ....     102.640 sec
Sum of individual times     ....     100.811 sec  ( 98.2%)

SCF preparation             ....       0.089 sec  (  0.1%)
Fock matrix formation       ....     100.260 sec  ( 97.7%)
  Startup                   ....       0.004 sec  (  0.0% of F)
  Split-RI-J                ....       3.806 sec  (  3.8% of F)
  Chain of spheres X        ....      87.980 sec  ( 87.8% of F)
  XC integration            ....      10.188 sec  ( 10.2% of F)
    XC Preparation          ....       0.000 sec  (  0.0% of XC)
    Basis function eval.    ....       2.658 sec  ( 26.1% of XC)
    Density eval.           ....       2.270 sec  ( 22.3% of XC)
    XC-Functional eval.     ....       2.452 sec  ( 24.1% of XC)
    XC-Potential eval.      ....       2.606 sec  ( 25.6% of XC)
Diagonalization             ....       0.000 sec  (  0.0%)
Density matrix formation    ....       0.024 sec  (  0.0%)
Total Energy calculation    ....       0.004 sec  (  0.0%)
Population analysis         ....       0.136 sec  (  0.1%)
Orbital Transformation      ....       0.021 sec  (  0.0%)
Orbital Orthonormalization  ....       0.000 sec  (  0.0%)
DIIS solution               ....       0.081 sec  (  0.1%)
  MO trafo                  ....       0.000 sec  (  0.0 % of DIIS)
  Orb grad                  ....       0.000 sec  (  0.0 % of DIIS)
  Energy W gradient         ....       0.000 sec  (  0.0 % of DIIS)
  DIIS error                ....       0.009 sec  ( 10.6 % of DIIS)
  DIIS work                 ....       0.061 sec  ( 74.7 % of DIIS)
  Form Q                    ....       0.000 sec  (  0.0 % of DIIS)
  Form QpQm                 ....       0.000 sec  (  0.0 % of DIIS)
  Exp/Cayley                ....       0.000 sec  (  0.0 % of DIIS)
  Orb update                ....       0.000 sec  (  0.0 % of DIIS)
  Wake-sleep                ....       0.001 sec  (  0.8 % of DIIS)
SOSCF solution              ....       0.052 sec  (  0.1%)
  MO trafo                  ....       0.024 sec  ( 47.1 % of SOSCF)
  Orb grad                  ....       0.000 sec  (  0.8 % of SOSCF)
  Rot update                ....       0.001 sec  (  2.5 % of SOSCF)
  Step                      ....       0.026 sec  ( 49.5 % of SOSCF)
Grid generation             ....       0.143 sec  (  0.1%)
Finished LeanSCF after 102.6 sec

Maximum memory used throughout the entire LEANSCF-calculation: 28.0 MB
------------------   -----------------
gCP correction             0.009479988
------------------   -----------------

-------------------------   --------------------
FINAL SINGLE POINT ENERGY      -307.719948204412
-------------------------   --------------------


------------------------------------------------------------------------------
                              ORCA PROPERTY CALCULATIONS
------------------------------------------------------------------------------

GBWName                                 ... sp.gbw
Number of atoms                         ...     14
Number of basis functions               ...    234
Max core memory                         ...   1024 MB

Electric properties:
Dipole moment                           ... YES
Quadrupole moment                       ...  NO
Static polarizability (Dipole/Dipole)   ...  NO
Static polarizability (Dipole/Quad.)    ...  NO
Static polarizability (Quad./Quad.)     ...  NO
Static polarizability (Velocity)        ...  NO

Atomic electric properties:
Dipole moment                           ...  NO
Quadrupole moment                       ...  NO
Static polarizability                   ...  NO

Choice of electric origin               ... Center of mass
Position of electric origin             ...     0.010254     0.011991     0.001390

General magnetic properties:
Magnetizability                         ...  NO

EPR properties:
g-Tensor (aka g-matrix)                 ...  NO
Zero-Field splitting spin-orbit         ...  NO
Zero-field splitting spin-spin          ...  NO
Hyperfine couplings                     ...  NO (   0 nuclei)
Quadrupole couplings                    ...  NO (   0 nuclei)
Contact density                         ...  NO (   0 nuclei)

NMR properties:
Chemical shifts                         ...  NO (   0 nuclei)
Spin-rotation constants                 ...  NO (   0 nuclei)
Spin-spin couplings                     ...  NO (   0 nuclei,    0 pairs)

Choice of magnetic origin               ... GIAO
Position of magnetic origin             ...     0.000000     0.000000     0.000000

Properties with geometric perturbations:
SCF Hessian                             ...  NO
IR spectrum                             ...  NO
VCD spectrum                            ...  NO
X-ray spectroscopy properties:
SCF XES/XAS/RIXS spectra                ...  NO


-------------
DIPOLE MOMENT
-------------

Method             : SCF
Type of density    : Electron Density
Multiplicity       :   1
Irrep              :   0
Energy             :  -307.7294281927116799 Eh
Relativity type    : 
Basis              : AO
                                X                 Y                 Z
Electronic contribution:      2.286277528      -3.365876630      -0.423709599
Nuclear contribution   :     -2.369750849       4.123214101       0.456282944
                        -----------------------------------------
Total Dipole Moment    :     -0.083473320       0.757337471       0.032573345
                        -----------------------------------------
Magnitude (a.u.)       :      0.762619737
Magnitude (Debye)      :      1.938425321



--------------------
Rotational spectrum 
--------------------
 
Rotational constants in cm-1:             0.203084             0.088877             0.064216 
Rotational constants in MHz :          6088.299126          2664.471877          1925.149353 

Dipole components along the rotational axes: 
x,y,z [a.u.] :    -0.239414     0.721883    -0.056163 
x,y,z [Debye]:    -0.608543     1.834881    -0.142755 

 

Dipole moment calculation done in   0.0 sec 

Maximum memory used throughout the entire PROP-calculation: 17.2 MB

--------------------------------
SUGGESTED CITATIONS FOR THIS RUN
--------------------------------

Below you find a list of papers that are relevant to this ORCA run
We neither can nor want to force you to cite these papers, but we appreciate if you do
You receive ORCA, which is the product of decades of hard work by many enthusiastic individuals, for free
The only thing we kindly ask in return is that you cite our papers,
We deeply appreciate it, if you show your appreciation for ORCA by not just citing the generic ORCA reference.

Please note that relegating all ORCA citations to the supporting information does *not* help us.
SI sections are not indexed - citations you put there will not count into any citation statistics
But we need these citations in order to attract the funding resources that allow us to do what we are doing

Therefore, if you are a happy ORCA user, please consider citing a few of the papers listed below in the main body of your paper

In addition to the list printed below, the program has created the file sp.bibtex that contains the list in bibtex format
You can import this file easily into all common literature databanks and citation aid programs


List of essential papers. We consider these as the minimum necessary citations

  1. Neese,F.
     Software update: the ORCA program system, version 5.0
     WIRES Comput. Molec. Sci., 2022 12(1)e1606
     doi.org/10.1002/wcms.1606

List of papers to cite with high priority. The work reported in these papers was absolutely
necessary for this run to complete.
Our perspective: the developers of density functionals and basis sets usually get cited in chemistry papers
Good! But without the algorithms to do something with them, the functionals or basis sets would not do anything.
Hence, in our opinion, the algorithm design and method developments papers are equally worthy of getting cited

  1. Neese,F.
     An improvement of the resolution of the identity approximation for the formation of the Coulomb matrix
     J. Comp. Chem., 2003 24(14)1740-1747
     doi.org/10.1002/jcc.10318
  2. Neese,F.; Wennmohs,F.; Hansen,A.; Becker,U.
     Efficient, approximate and parallel Hartree-Fock and hybrid DFT calculations. A 'chain-of-spheres' algorithm for the Hartree-Fock exchange
     Chem. Phys., 2009 356(1-3)98-109
     doi.org/10.1016/j.chemphys.2008.10.036
  3. Helmich-Paris,B.; de Souza,B.; Neese,F.; Izsák,R.
     An improved chain of spheres for exchange algorithm
     J. Chem. Phys., 2021 155 104109
     doi.org/doi: 10.1063/5.0058766.
  4. Neese,F.
     The SHARK Integral Generation and Digestion System
     J. Comp. Chem., 2022  1-16
     doi.org/10.1002/jcc.26942

List of suggested additional citations. These are papers that are important in the 'surrounding' of 
of this run, or papers that preceded the highly important papers. If you like your results we are grateful for a citation.

  1. Izsak,R.; Neese,F.
     An overlap fitted chain of spheres exchange method
     J. Chem. Phys., 2011 135 144105
     doi.org/10.1063/1.3646921
  2. Izsak,R.; Hansen,A.; Neese,F.
     The resolution of identity and chain of spheres approximations for the LPNO-CCSD singles Fock term
     Molec. Phys., 2012 110 2413-2417
     doi.org/10.1080/00268976.2012.687466
  3. Neese,F.
     The ORCA program system
     WIRES Comput. Molec. Sci., 2012 2(1)73-78
     doi.org/10.1002/wcms.81
  4. Izsak,R.; Neese,F.; Klopper,W.
     Robust fitting techniques in the chain of spheres approximation to the Fock exchange: The role of the complementary space
     J. Chem. Phys., 2013 139 
     doi.org/10.1063/1.4819264
  5. Neese,F.
     Software update: the ORCA program system, version 4.0
     WIRES Comput. Molec. Sci., 2018 8(1)1-6
     doi.org/10.1002/wcms.1327
  6. Neese,F.; Wennmohs,F.; Becker,U.; Riplinger,C.
     The ORCA quantum chemistry program package
     J. Chem. Phys., 2020 152 Art. No. L224108
     doi.org/10.1063/5.0004608

List of optional additional citations

  1. Neese,F.
     Approximate second-order SCF convergence for spin unrestricted wavefunctions
     Chem. Phys. Lett., 2000 325(1-3)93-98
     doi.org/10.1016/s0009-2614(00)00662-x

Timings for individual modules:

Sum of individual times          ...      104.385 sec (=   1.740 min)
Startup calculation              ...        1.519 sec (=   0.025 min)   1.5 %
SCF iterations                   ...      102.812 sec (=   1.714 min)  98.5 %
Property calculations            ...        0.054 sec (=   0.001 min)   0.1 %
                             ****ORCA TERMINATED NORMALLY****
TOTAL RUN TIME: 0 days 0 hours 1 minutes 44 seconds 487 msec
