15
 energy: -233.610650859741 gnorm: 0.026144522819 xtb: 6.7.1 (41059b4)
C            0.75638700293518       -1.25498295375612       -0.47215284880922
C            0.00142134190063       -0.00000188300000       -0.01728976870766
C           -1.41999834912924       -0.00135725410060       -0.57889700155652
C            0.75356806333393        1.25695502105699       -0.47138192460888
O           -0.13652997936050       -0.00064199020028        1.39648597491882
H            1.77141793578496       -1.25524523315623       -0.07691052803408
H            0.24532004510871       -2.14464076475035       -0.11180312614954
H            0.80786673955799       -1.29447197607361       -1.55662836998978
H           -1.95021776646419       -0.88261730769111       -0.22880498790139
H           -1.40053669292061       -0.00159840720071       -1.66475221843770
H           -1.95186037996492        0.87907109768954       -0.22915984890155
H            1.76883329068382        1.25887119655784       -0.07676885213402
H            0.80432561735642        1.29763475427502       -1.55585139268944
H            0.24095253630677        2.14524949665062       -0.10984345454867
H            0.74223569742890        0.00063389260028        1.79135198179380
15
 energy: -233.611206735178 gnorm: 0.010913174164 xtb: 6.7.1 (41059b4)
C            0.75589151770056       -1.25824775910765       -0.47411294232294
C            0.00551997900864        0.00002808008131       -0.02338616808291
C           -1.41938320061610       -0.00138457943165       -0.57180721825700
C            0.75312810522634        1.26023278867311       -0.47331244702645
O           -0.14225717341994       -0.00059892296800        1.39970972738522
H            1.77547473176047       -1.26006017396422       -0.07580532485242
H            0.24090746655805       -2.15156118139008       -0.11270291086850
H            0.81804183578227       -1.30423204413313       -1.56420258814319
H           -1.95463542094685       -0.88767330617976       -0.22399045607196
H           -1.40421223568645       -0.00157629996373       -1.66327342963005
H           -1.95631249930368        0.88401845637938       -0.22431215391828
H            1.77293877638247        1.26372688438082       -0.07559519139439
H            0.81455351836367        1.30739103371355       -1.56339279510180
H            0.23652474040523        2.15215035733485       -0.11076115356030
H            0.73700488601745        0.00064410876284        1.79453883464485
15
 energy: -233.611314240720 gnorm: 0.003669176211 xtb: 6.7.1 (41059b4)
C            0.75559073446511       -1.25822957840386       -0.47379248351969
C            0.00483478835305        0.00003151917881       -0.02903440405445
C           -1.42047460238828       -0.00137642179565       -0.57115321393433
C            0.75283094947501        1.26020791064094       -0.47300363467626
O           -0.14157153050054       -0.00057738553960        1.40299256475786
H            1.77661257534130       -1.26310813146146       -0.07287645964893
H            0.23797410102449       -2.15259329922588       -0.11343500663981
H            0.82571336682727       -1.30899204411018       -1.56596193764415
H           -1.95645884310726       -0.88931409356080       -0.22218284641805
H           -1.41380357740885       -0.00151849361394       -1.66534232338289
H           -1.95820637078586        0.88560126793908       -0.22242899337878
H            1.77404937784585        1.26678151653411       -0.07260381597728
H            0.82228969133965        1.31213178737670       -1.56516028895714
H            0.23355826293081        2.15317170818056       -0.11155951257898
H            0.74024597166560        0.00064099081468        1.79313622781117
15
 energy: -233.611329056725 gnorm: 0.001406190124 xtb: 6.7.1 (41059b4)
C            0.75516220132339       -1.25853154210207       -0.47392740140411
C            0.00534103685980        0.00003796683538       -0.03202809542207
C           -1.42020985375026       -0.00137807089184       -0.57106073562110
C            0.75241296962557        1.26051022816588       -0.47314538930339
O           -0.14098534575396       -0.00056733676131        1.40342834458642
H            1.77498087718944       -1.26406968370821       -0.07038874509116
H            0.23626105356170       -2.15234620344882       -0.11473288838888
H            0.82849408917216       -1.31030340835789       -1.56577349684243
H           -1.95555063786566       -0.88903476237028       -0.22101409480183
H           -1.41699852211275       -0.00147775720204       -1.66522649665788
H           -1.95732366908149        0.88527502792102       -0.22118481345481
H            1.77240882325582        1.26776238943873       -0.07007274092571
H            0.82513305612757        1.31341685025230       -1.56497750048647
H            0.23183288567424        2.15293006914222       -0.11291492747844
H            0.74222584971450        0.00063337823494        1.79061292768398
15
 energy: -233.611333737523 gnorm: 0.000953955150 xtb: 6.7.1 (41059b4)
C            0.75496706227392       -1.25793276097141       -0.47440254167320
C            0.00516739463958        0.00004117833639       -0.03417112369892
C           -1.42049179247698       -0.00137206173946       -0.57099404671243
C            0.75222593268871        1.25990849771192       -0.47363672940498
O           -0.13975600664485       -0.00055259979440        1.40407587720936
H            1.77239024356496       -1.26487784454973       -0.06648629059079
H            0.23358405389389       -2.15049657314192       -0.11763697035106
H            0.83227182632256       -1.30950167914471       -1.56542321012579
H           -1.95432919021581       -0.88848678777740       -0.21940622311449
H           -1.42014664476255       -0.00138347578479       -1.66467144735938
H           -1.95615131132672        0.88465242569579       -0.21942284470883
H            1.76978566328847        1.26860496687237       -0.06608575749284
H            0.82902804053455        1.31254732745477       -1.56464203995629
H            0.22912106720073        2.15109345758766       -0.11594314222321
H            0.74551832542912        0.00061292643804        1.78644056943913
15
 energy: -233.611333737523 gnorm: 0.000953955150 xtb: 6.7.1 (41059b4)
C            0.75496706227392       -1.25793276097141       -0.47440254167320
C            0.00516739463958        0.00004117833639       -0.03417112369892
C           -1.42049179247698       -0.00137206173946       -0.57099404671243
C            0.75222593268871        1.25990849771192       -0.47363672940498
O           -0.13975600664485       -0.00055259979440        1.40407587720936
H            1.77239024356496       -1.26487784454973       -0.06648629059079
H            0.23358405389389       -2.15049657314192       -0.11763697035106
H            0.83227182632256       -1.30950167914471       -1.56542321012579
H           -1.95432919021581       -0.88848678777740       -0.21940622311449
H           -1.42014664476255       -0.00138347578479       -1.66467144735938
H           -1.95615131132672        0.88465242569579       -0.21942284470883
H            1.76978566328847        1.26860496687237       -0.06608575749284
H            0.82902804053455        1.31254732745477       -1.56464203995629
H            0.22912106720073        2.15109345758766       -0.11594314222321
H            0.74551832542912        0.00061292643804        1.78644056943913
