7
 energy: -244.977706442494 gnorm: 0.043836622236 xtb: 6.7.1 (41059b4)
C            1.37781563631055        0.00070886900031       -0.00201873300089
N           -0.09067123084018       -0.00002678820001       -0.00531760390236
O           -0.64044267068380       -1.07277232737537        0.00155736000069
O           -0.64175374438438        1.07209294077507        0.00157104940070
H            1.71488599325991        0.00174055750077        1.03493904685861
H            1.73923559397070        0.90081597899918       -0.49416873701898
H            1.74027710837116       -0.89984717509875       -0.49247542781823
7
 energy: -244.979026151893 gnorm: 0.013696298677 xtb: 6.7.1 (41059b4)
C            1.39159880318569        0.00072438379833       -0.00537149082460
N           -0.09464370728661       -0.00006754707818       -0.01300795399943
O           -0.64924726896008       -1.08518467966937        0.00723621015597
O           -0.65043353078175        1.08443606833763        0.00722552357924
H            1.70964566740059        0.00182204759719        1.04038193825450
H            1.74572779534472        0.90593718361276       -0.49698254252075
H            1.74669886057941       -0.90495540710170       -0.49539475170038
7
 energy: -244.979131604882 gnorm: 0.010454847683 xtb: 6.7.1 (41059b4)
C            1.40141455018290        0.00072767579628       -0.00505234293305
N           -0.09789475030073       -0.00003699296388        0.00253442457511
O           -0.65395502232581       -1.08974223259412        0.00051242329987
O           -0.65505663651270        1.08892992682279        0.00048053005567
H            1.71279754702032        0.00185591095834        1.04308822473786
H            1.74552311306801        0.90861729275865       -0.49950518856430
H            1.74651785301491       -0.90763951564792       -0.49797113419339
7
 energy: -244.979226437043 gnorm: 0.005413695093 xtb: 6.7.1 (41059b4)
C            1.40489266619120        0.00072400927292       -0.00578965117709
N           -0.09976878264870       -0.00003807538644       -0.01063290052867
O           -0.65514530844433       -1.08961541946081        0.00669944668453
O           -0.65624547710330        1.08880633493789        0.00665923929941
H            1.70971212617835        0.00185167283192        1.04413854296401
H            1.74744994853331        0.90920373714637       -0.49925921702807
H            1.74845143969991       -0.90822020382808       -0.49772853190254
7
 energy: -244.979240992417 gnorm: 0.002253456738 xtb: 6.7.1 (41059b4)
C            1.40429311957954        0.00072195531136       -0.00517996958379
N           -0.10030677944729       -0.00006414995081       -0.00872575897056
O           -0.65480448548235       -1.08840947173460        0.00553340447018
O           -0.65594025120986        1.08763353119585        0.00550133804810
H            1.71106755560844        0.00184425378709        1.04363063073741
H            1.74702285252264        0.90863593975687       -0.49911108202469
H            1.74801461091948       -0.90765000078493       -0.49756163155405
7
 energy: -244.979243594254 gnorm: 0.000605550547 xtb: 6.7.1 (41059b4)
C            1.40484653222635        0.00072753283414       -0.00501587179703
N           -0.10108237750223        0.00001208068904       -0.00839569870140
O           -0.65491923000555       -1.08798305181042        0.00535698778186
O           -0.65604375915983        1.08714395970540        0.00534142972313
H            1.71129708866445        0.00184920136910        1.04367117607642
H            1.74712627337382        0.90852740067983       -0.49921110061305
H            1.74812209599610       -0.90756506553228       -0.49765999107276
7
 energy: -244.979243594254 gnorm: 0.000605550547 xtb: 6.7.1 (41059b4)
C            1.40484653222635        0.00072753283414       -0.00501587179703
N           -0.10108237750223        0.00001208068904       -0.00839569870140
O           -0.65491923000555       -1.08798305181042        0.00535698778186
O           -0.65604375915983        1.08714395970540        0.00534142972313
H            1.71129708866445        0.00184920136910        1.04367117607642
H            1.74712627337382        0.90852740067983       -0.49921110061305
H            1.74812209599610       -0.90756506553228       -0.49765999107276
