14
 energy: -20.782681461614 gnorm: 0.026834461079 xtb: 6.7.1 (41059b4)
C           -2.49826787915682       -0.06808570259273       -0.08300057399997
C           -1.23422402338511        0.76436526167009        0.07660559845697
C            0.02191637319950       -0.06570073491227       -0.03396615146873
O            0.06572747950202       -1.26386226399372       -0.18463062839921
O            1.12448661629763        0.71766896993923        0.06057916890658
C            2.37866081289743        0.01077627423139       -0.02948907750879
H           -2.51985006523118       -0.55957319240975       -1.05866121116166
H           -2.54806587723410       -0.84993342914251        0.67829154297735
H           -3.38498165578473        0.56480756114555        0.00773413278917
H           -1.20779212452207        1.27434515617829        1.04742365108052
H           -1.17557315888486        1.56113007524331       -0.67420732544249
H            2.45440999476092       -0.51203993375212       -0.98645935466476
H            2.46615686038825       -0.71691430973703        0.78160493724623
H            3.15125113706319        0.77492242439475        0.05407013977265
14
 energy: -20.783337856213 gnorm: 0.009594204363 xtb: 6.7.1 (41059b4)
C           -2.49198440578117       -0.06545888259809       -0.08256160927519
C           -1.23031970115716        0.76629821196548        0.07683097288497
C            0.02126633705859       -0.07008931729961       -0.03502920475092
O            0.06302207409695       -1.26110897744859       -0.18459230243763
O            1.12158143692013        0.70324330460390        0.05873133545876
C            2.37168365838206        0.01336645049949       -0.02911672903387
H           -2.50640138579271       -0.55166998341194       -1.05604533764713
H           -2.53371578348463       -0.84174052004104        0.67875885879237
H           -3.37534407808707        0.56397906100091        0.00835639372192
H           -1.20959460611196        1.26524775299243        1.05059664438719
H           -1.17685911669244        1.55337221245895       -0.68092555684597
H            2.44403601511713       -0.50795707129713       -0.98472810506293
H            2.45534310840863       -0.71263542482464        0.78094782255781
H            3.14114093703372        0.77705933966236        0.05467166583450
14
 energy: -20.783426757587 gnorm: 0.003254064324 xtb: 6.7.1 (41059b4)
C           -2.48924691642941       -0.06494349627483       -0.08254896571227
C           -1.22832379260234        0.77029409772595        0.07738056658396
C            0.02051431865126       -0.07186041719697       -0.03488954625124
O            0.05994668552477       -1.26186284511148       -0.18476905182113
O            1.11899928759056        0.69637960021045        0.05801386046471
C            2.36564681533561        0.01510035799120       -0.02893061472723
H           -2.50029627030637       -0.54934620769847       -1.05509976647300
H           -2.52685257622454       -0.83961644271708        0.67836290696215
H           -3.37200490534058        0.56200612395064        0.00858323305871
H           -1.20863280188321        1.26398826085153        1.05185541645769
H           -1.17529203151502        1.55231411123272       -0.68320806661109
H            2.44208351932382       -0.50722868498789       -0.98362370127335
H            2.45334840279950       -0.71169834763920        0.77989636201955
H            3.13396475498601        0.77838004592592        0.05487221590641
14
 energy: -20.783434766946 gnorm: 0.001063700442 xtb: 6.7.1 (41059b4)
C           -2.48981966208581       -0.06465032031435       -0.08246738917404
C           -1.22829491010834        0.77121732854700        0.07743479072723
C            0.02048040417527       -0.07212644543983       -0.03511628314925
O            0.05840968940739       -1.26278560008560       -0.18477952803292
O            1.11866631028530        0.69496075405214        0.05785352693460
C            2.36450169284450        0.01578797892436       -0.02875842186814
H           -2.49983576641301       -0.54875288442906       -1.05519305687107
H           -2.52578506765008       -0.83958160968530        0.67829355314910
H           -3.37306305861223        0.56165249898612        0.00904671559852
H           -1.20836534910803        1.26437223165395        1.05170057552088
H           -1.17496076991795        1.55228294898422       -0.68350655677373
H            2.44387605648117       -0.50753080272797       -0.98332148805477
H            2.45501808132662       -0.71209177121971        0.77955537143309
H            3.13302683928526        0.77915184901651        0.05515303914438
14
 energy: -20.783435860382 gnorm: 0.000559183433 xtb: 6.7.1 (41059b4)
C           -2.49046895145968       -0.06460585750798       -0.08248515785500
C           -1.22854096340320        0.77142192881320        0.07731116409647
C            0.02056747859725       -0.07234525845550       -0.03473609612563
O            0.05687045231078       -1.26349601738216       -0.18463477771464
O            1.11878958044217        0.69425899395566        0.05791713990633
C            2.36436897262355        0.01624193584243       -0.02867662807838
H           -2.50082838546450       -0.54837672812906       -1.05559704971624
H           -2.52594060406896       -0.84008628215956        0.67801254806131
H           -3.37380825086009        0.56179192914466        0.00976915333162
H           -1.20844364502523        1.26502659299877        1.05129583385625
H           -1.17480617621386        1.55234299621341       -0.68370741202392
H            2.44588457025390       -0.50775294235917       -0.98329877136760
H            2.45705699210960       -0.71242003875768        0.77941236865170
H            3.13315342006832        0.77990490404548        0.05531253356161
14
 energy: -20.783436098133 gnorm: 0.000099084419 xtb: 6.7.1 (41059b4)
C           -2.49034385054667       -0.06460857198935       -0.08240731141700
C           -1.22850943609171        0.77116213723720        0.07717828690717
C            0.02062282928224       -0.07238499419203       -0.03514300488994
O            0.05704696702019       -1.26342603363257       -0.18457069333815
O            1.11884564649906        0.69436471782668        0.05783455970116
C            2.36458549560038        0.01613503334039       -0.02858734341492
H           -2.50123042911600       -0.54816287630287       -1.05558526144029
H           -2.52591868812055       -0.84022300303509        0.67790069372506
H           -3.37353221971968        0.56191093367735        0.01019850615817
H           -1.20840156102410        1.26501797394171        1.05114754404015
H           -1.17498399160183        1.55215450534178       -0.68390234241652
H            2.44573519886817       -0.50754793197907       -0.98325697982903
H            2.45670309930403       -0.71232254924915        0.77956650877333
H            3.13323542955654        0.77983681527750        0.05552168602470
14
 energy: -20.783436125755 gnorm: 0.000097757449 xtb: 6.7.1 (41059b4)
C           -2.49031011152500       -0.06457516773160       -0.08242472354999
C           -1.22847805630985        0.77109888340841        0.07705375727126
C            0.02063589588403       -0.07252853269676       -0.03483468261467
O            0.05704013198675       -1.26349625605935       -0.18450081256008
O            1.11880634111889        0.69429931071864        0.05787282513275
C            2.36461476374502        0.01613747030794       -0.02858695229261
H           -2.50154490485972       -0.54786523121994       -1.05571147287408
H           -2.52571572182673       -0.84037797598452        0.67767648174072
H           -3.37344753919420        0.56193217572387        0.01062165169815
H           -1.20841066835691        1.26508125241401        1.05096795791396
H           -1.17489209975881        1.55201337834945       -0.68413213861310
H            2.44572671606587       -0.50747139800519       -0.98324776612919
H            2.45666314705860       -0.71223680887007        0.77958744981547
H            3.13316659588214        0.77989505590760        0.05555327364529
