      -----------------------------------------------------------      
     |                   =====================                   |     
     |                           x T B                           |     
     |                   =====================                   |     
     |                         S. Grimme                         |     
     |          Mulliken Center for Theoretical Chemistry        |     
     |                    University of Bonn                     |     
      -----------------------------------------------------------      

   * xtb version 6.7.1 (41059b4) compiled by 'michael@archlinux' on 2025-03-24

   xtb is free software: you can redistribute it and/or modify it under
   the terms of the GNU Lesser General Public License as published by
   the Free Software Foundation, either version 3 of the License, or
   (at your option) any later version.
   
   xtb is distributed in the hope that it will be useful,
   but WITHOUT ANY WARRANTY; without even the implied warranty of
   MERCHANTABILITY or FITNESS FOR A PARTICULAR PURPOSE.  See the
   GNU Lesser General Public License for more details.
   
   Cite this work as:
   * C. Bannwarth, E. Caldeweyher, S. Ehlert, A. Hansen, P. Pracht,
     J. Seibert, S. Spicher, S. Grimme, WIREs Comput. Mol. Sci., 2020, 11,
     e01493. DOI: 10.1002/wcms.1493
   
   for GFN2-xTB:
   * C. Bannwarth, S. Ehlert and S. Grimme., J. Chem. Theory Comput., 2019,
     15, 1652-1671. DOI: 10.1021/acs.jctc.8b01176
   for GFN1-xTB:
   * S. Grimme, C. Bannwarth, P. Shushkov, J. Chem. Theory Comput., 2017,
     13, 1989-2009. DOI: 10.1021/acs.jctc.7b00118
   for GFN0-xTB:
   * P. Pracht, E. Caldeweyher, S. Ehlert, S. Grimme, ChemRxiv, 2019, preprint.
     DOI: 10.26434/chemrxiv.8326202.v1
   for GFN-FF:
   * S. Spicher and S. Grimme, Angew. Chem. Int. Ed., 2020, 59, 15665-15673.
     DOI: 10.1002/anie.202004239
   
   for ALPB and GBSA implicit solvation:
   * S. Ehlert, M. Stahn, S. Spicher, S. Grimme, J. Chem. Theory Comput.,
     2021, 17, 4250-4261. DOI: 10.1021/acs.jctc.1c00471
   
   for ddCOSMO and CPCM-X implicit solvation:
   * M. Stahn, S. Ehlert, S. Grimme, J. Phys. Chem. A,
     2023, XX, XXXX-XXXX. DOI: 10.1021/acs.jpca.3c04382
   
   for DFT-D4:
   * E. Caldeweyher, C. Bannwarth and S. Grimme, J. Chem. Phys., 2017,
     147, 034112. DOI: 10.1063/1.4993215
   * E. Caldeweyher, S. Ehlert, A. Hansen, H. Neugebauer, S. Spicher,
     C. Bannwarth and S. Grimme, J. Chem. Phys., 2019, 150, 154122.
     DOI: 10.1063/1.5090222
   * E. Caldeweyher, J.-M. Mewes, S. Ehlert and S. Grimme, Phys. Chem. Chem. Phys.
     2020, 22, 8499-8512. DOI: 10.1039/D0CP00502A
   
   for sTDA-xTB:
   * S. Grimme and C. Bannwarth, J. Chem. Phys., 2016, 145, 054103.
     DOI: 10.1063/1.4959605
   
   in the mass-spec context:
   * V. Asgeirsson, C. Bauer and S. Grimme, Chem. Sci., 2017, 8, 4879.
     DOI: 10.1039/c7sc00601b
   * J. Koopman and S. Grimme, ACS Omega 2019, 4, 12, 15120-15133.
     DOI: 10.1021/acsomega.9b02011
   
   for metadynamics refer to:
   * S. Grimme, J. Chem. Theory Comput., 2019, 155, 2847-2862
     DOI: 10.1021/acs.jctc.9b00143
   
   for SPH calculations refer to:
   * S. Spicher and S. Grimme, J. Chem. Theory Comput., 2021, 17, 1701-1714
     DOI: 10.1021/acs.jctc.0c01306
   
   for ONIOM refer to:
   * C. Plett, A. Katbashev, S. Ehlert, S. Grimme, M. Bursch,
     Phys. Chem. Chem. Phys., 2023, 25, 17860-17868. DOI: 10.1039/D3CP02178E
   
   for DIPRO refer to:
   * J. Kohn, N. Gildemeister, S. Grimme, D. Fazzi, A. Hansen,
     J. Chem. Phys., 2023, just accepted.
   
   for PTB refer to:
   * S. Grimme, M. Mueller, A. Hansen, J. Chem. Phys., 2023, 158, 124111.
     DOI: 10.1063/5.0137838
   
   with help from (in alphabetical order)
   P. Atkinson, C. Bannwarth, F. Bohle, G. Brandenburg, E. Caldeweyher
   M. Checinski, S. Dohm, S. Ehlert, S. Ehrlich, I. Gerasimov, C. Hölzer
   A. Katbashev, J. Kohn, J. Koopman, C. Lavigne, S. Lehtola, F. März, M. Müller,
   F. Musil, H. Neugebauer, J. Pisarek, C. Plett, P. Pracht, F. Pultar,
   J. Seibert, P. Shushkov, S. Spicher, M. Stahn, M. Steiner, T. Strunk,
   J. Stückrath, T. Rose, and J. Unsleber
   
 * started run on 2025/04/08 at 22:45:27.179     
   ID    Z sym.   atoms
    1    6 C      1-6
    2    8 O      7
    3   17 Cl     8
    4    1 H      9-13

           -------------------------------------------------
          |                Calculation Setup                |
           -------------------------------------------------

          program call               : /usr/bin/xtb xtb_opt.coord --opt normal --orca -I xtb_opt-xcontrol-inp
          coordinate file            : xtb_opt.coord
          omp threads                :                    16

           -------------------------------------------------
          |                   Orca driver                   |
           -------------------------------------------------
orca executable           : /home/michael/Documents/CHEM4561/orca_avx2/orca
orca input file           : xtb_opt.inp
orca input line           : 
orca parallel             : true
orca number of threads    : 16
                         * ORCA takes the control...
  ------------------------------------------------------------------------

                                 *****************
                                 * O   R   C   A *
                                 *****************

                                            #,                                       
                                            ###                                      
                                            ####                                     
                                            #####                                    
                                            ######                                   
                                           ########,                                 
                                     ,,################,,,,,                         
                               ,,#################################,,                 
                          ,,##########################################,,             
                       ,#########################################, ''#####,          
                    ,#############################################,,   '####,        
                  ,##################################################,,,,####,       
                ,###########''''           ''''###############################       
              ,#####''   ,,,,##########,,,,          '''####'''          '####       
            ,##' ,,,,###########################,,,                        '##       
           ' ,,###''''                  '''############,,,                           
         ,,##''                                '''############,,,,        ,,,,,,###''
      ,#''                                            '''#######################'''  
     '                                                          ''''####''''         
             ,#######,   #######,   ,#######,      ##                                
            ,#'     '#,  ##    ##  ,#'     '#,    #''#        ,####,   ,####,        
            ##       ##  ##   ,#'  ##            #'  '#       #'       #'  '#        
            ##       ##  #######   ##           ,######,      #####,   #    #        
            '#,     ,#'  ##    ##  '#,     ,#' ,#      #,     #,   #   #,  ,#        
             '#######'   ##     ##  '#######'  #'      '#     '####' # '####'        



                #########################################################
                #                        -***-                          #
                #          Department of theory and spectroscopy        #
                #                                                       #
                #                      Frank Neese                      #
                #                                                       #
                #     Directorship, Architecture, Infrastructure        #
                #                    SHARK, DRIVERS                     #
                #        Core code/Algorithms in most modules           #
                #                                                       #
                #        Max Planck Institute fuer Kohlenforschung      #
                #                Kaiser Wilhelm Platz 1                 #
                #                 D-45470 Muelheim/Ruhr                 #
                #                      Germany                          #
                #                                                       #
                #                  All rights reserved                  #
                #                        -***-                          #
                #########################################################


                         Program Version 6.0.1  -  RELEASE   -


 With contributions from (in alphabetic order):
[Max-Planck-Institut fuer Kohlenforschung]                               
  Daniel Aravena         : Magnetic Suceptibility                        
  Michael Atanasov       : Ab Initio Ligand Field Theory (pilot matlab implementation)
  Alexander A. Auer      : GIAO ZORA, VPT2 properties, NMR spectrum      
  Ute Becker             : All parallelization in ORCA, NUMFREQ, NUMCALC 
  Giovanni Bistoni       : ED, misc. LED, open-shell LED, HFLD           
  Martin Brehm           : Molecular dynamics                            
  Dmytro Bykov           : pre 5.0 version of the SCF Hessian            
  Marcos Casanova-Páez   : Triplet and SCS-CIS(D). UHF-(DLPNO)-IP/EA/STEOM-CCSD. UHF-CVS-IP/STEOM-CCSD   
  Vijay G. Chilkuri      : MRCI spin determinant printing, contributions to CSF-ICE 
  Pauline Colinet        : FMM embedding                                 
  Dipayan Datta          : RHF DLPNO-CCSD density                        
  Achintya Kumar Dutta   : EOM-CC, STEOM-CC                              
  Nicolas Foglia         : Exact transition moments, OPA infrastructure, MCD improvements    
  Dmitry Ganyushin       : Spin-Orbit,Spin-Spin,Magnetic field MRCI      
  Miquel Garcia-Rates    : C-PCM and meta-GGA Hessian, CCSD/C-PCM, Gaussian charge scheme 
  Tiago L. C. Gouveia    : GS-ROHF, GS-ROCIS                             
  Yang Guo               : DLPNO-NEVPT2, F12-NEVPT2, CIM, IAO-localization        
  Andreas Hansen         : Spin unrestricted coupled pair/coupled cluster methods 
  Ingolf Harden          : AUTO-CI MPn and infrastructure                
  Benjamin Helmich-Paris : MC-RPA, TRAH-(SCF,CASSCF), AVAS, COSX integrals, SCF dyn. polar. 
  Lee Huntington         : MR-EOM, pCC                                   
  Robert Izsak           : Overlap fitted RIJCOSX, COSX-SCS-MP3, EOM     
  Riya Kayal             : Wick's Theorem for AUTO-CI, AUTO-CI UHF-CCSDT 
  Emily Kempfer          : AUTO-CI, RHF CISDT and CCSDT                  
  Christian Kollmar      : KDIIS, OOCD, Brueckner-CCSD(T), CCSD density, CASPT2, CASPT2-K, improved NEVPT2 
  Axel Koslowski         : Symmetry handling                             
  Simone Kossmann        : meta-GGA functionals, TD-DFT gradient, OOMP2, (MP2 Hessian; deprecated post 5.0) 
  Lucas Lang             : DCDCAS                                        
  Marvin Lechner         : AUTO-CI (C++ implementation), FIC-MRCC        
  Spencer Leger          : CASSCF response                               
  Dagmar Lenk            : GEPOL surface, SMD, ORCA-2-JSON               
  Dimitrios Liakos       : Extrapolation schemes; Compound Job, initial MDCI parallelization 
  Dimitrios Manganas     : Further ROCIS development; embedding schemes. LFT, Crystal Embedding 
  Dimitrios Pantazis     : SARC Basis sets                               
  Anastasios Papadopoulos: AUTO-CI, single reference methods and gradients 
  Taras Petrenko         : pre 6.0 DFT Hessian and TD-DFT gradient, (ASA, deprecated), ECA, 1-Electron XAS/XES, NRVS 
  Peter Pinski           : DLPNO-MP2, DLPNO-MP2 Gradient                 
  Christoph Reimann      : Effective Core Potentials                     
  Marius Retegan         : Local ZFS, SOC                                
  Christoph Riplinger    : Optimizer, TS searches, QM/MM, DLPNO-CCSD(T), (RO)-DLPNO pert. Triples 
  Michael Roemelt        : Original ROCIS implementation                 
  Masaaki Saitow         : Open-shell DLPNO-CCSD energy and density      
  Barbara Sandhoefer     : DKH picture change effects                    
  Kantharuban Sivalingam : CASSCF convergence/infrastructure, NEVPT2 and variants, FIC-MRCI 
  Bernardo de Souza      : ESD, SOC TD-DFT                               
  Georgi L. Stoychev     : AutoAux, RI-MP2 NMR, DLPNO-MP2 response, X2C  
  Van Anh Tran           : RI-MP2 g-tensors                              
  Willem Van den Heuvel  : Paramagnetic NMR                              
  Zikuan Wang            : NOTCH, Electric field optimization            
  Frank Wennmohs         : Technical directorship and infrastructure     
  Hang Xu                : AUTO-CI-Response properties                   
                                                                         
[FACCTs GmbH]                                                            
  Markus Bursch, Miquel Garcia-Rates, Christoph Riplinger, Bernardo de Souza, Georgi L. Stoychev 
                                                                 
  APM, Basis sets (HGBS, AHGBS, def-TZVP (Ac-Lr), def2-XVPD (La-Lu)), CI-OPT, improved COSX, DLPNO-Multilevel,           
  DOCKER, DRACO, updates on ESD, GOAT, IRC, LR-CPCM, MBIS, meta-GGA TD-DFT gradient, ML-optimized integration grids, 
  MM, NACMEs, nearIR, NEB, NEB-TS, NL-DFT gradient (VV10), 2- and 3-layer-ONIOM, interface openCOSMO-RS, QMMM,   
  Crystal-QMMM, SF, symmetry and pop. for TD-DFT, r2SCAN hybrids, SOLVATOR                                   
                                                                         
[Other institutions]                                                     
  V. Asgeirsson          : NEB                                           
  Christoph Bannwarth    : sTDA-DFT, sTD-DFT, PBEh-3c, B97-3c, D3        
  Sebastian Ehlert       : rSCAN, r2SCAN, r2SCAN-3c, D4, dhf basis sets  
  Marvin Friede          : D4 for Fr, Ra, Ac-Lr                          
  Lars Goerigk           : TD-DFT with DH, B97 family of functionals     
  Stefan Grimme          : VdW corrections, initial TS optimization, DFT functionals, gCP, sTDA/sTD-DF 
  Waldemar Hujo          : DFT-NL                                        
  H. Jonsson             : NEB                                           
  Holger Kruse           : gCP                                           
  Marcel Mueller         : wB97X-3c, vDZP basis set                      
  Hagen Neugebauer       : wr2SCAN                                       
  Tobias Risthaus        : range-separated hybrid DFT                    
  Lukas Wittmann         : regularized MP2, r2SCAN double-hybrids, wr2SCAN        
                                                                         
We gratefully acknowledge several colleagues who have allowed us to      
interface, adapt or use parts of their codes:                            
  Ed Valeev, F. Pavosevic, A. Kumar             : LibInt (2-el integral package), F12 methods 
  Garnet Chan, S. Sharma, J. Yang, R. Olivares  : DMRG                   
  Ulf Ekstrom                                   : XCFun DFT Library      
  Mihaly Kallay                                 : mrcc  (arbitrary order and MRCC methods)
  Frank Weinhold                                : gennbo (NPA and NBO analysis)           
  Simon Mueller                                 : openCOSMO-RS                            
  Christopher J. Cramer and Donald G. Truhlar   : smd solvation model                     
  S Lehtola, MJT Oliveira, MAL Marques          : LibXC Library                           
  Liviu Ungur et al                             : ANISO software                          


 Your calculation uses the libint2 library for the computation of 2-el integrals
 For citations please refer to: http://libint.valeyev.net

 Your ORCA version has been built with support for libXC version: 6.2.2
 For citations please refer to: https://libxc.gitlab.io

 This ORCA versions uses:
   CBLAS   interface :  Fast vector & matrix operations
   LAPACKE interface :  Fast linear algebra routines
   SCALAPACK package :  Parallel linear algebra routines
   Shared memory     :  Shared parallel matrices
   BLAS/LAPACK       :  OpenBLAS 0.3.27  USE64BITINT DYNAMIC_ARCH NO_AFFINITY Zen SINGLE_THREADED
        Core in use  :  Zen
   Copyright (c) 2011-2014, The OpenBLAS Project




***************************************
The coordinates will be read from file: xtb_opt.xyz
***************************************


Your calculation utilizes the geometrical counterpoise correction gCP
Please cite in your paper:
H.Kruse, S. Grimme J.Chem.Phys., 136, (2012), 154101 
   

Your calculation utilizes the atom-pairwise dispersion correction
based on EEQ partial charges (D4)


================================================================================

----- Orbital basis set information -----
Your calculation utilizes the basis: def2-mTZVPP
   Stefan Grimme, Andreas Hansen, Sebastian Ehlert, and Jan-Michael Mewes 
   J. Chem. Phys. 154, 064103 (2021). DOI: 10.1063/5.0040021

----- AuxJ basis set information -----
Your calculation utilizes the auxiliary basis: def2/J
   F. Weigend, Phys. Chem. Chem. Phys. 8, 1057 (2006).

================================================================================
                                        WARNINGS
                       Please study these warnings very carefully!
================================================================================



WARNING: SCAN, rSCAN, or r2SCAN functional requested.
  ===> : libXC variant has now been activated.



================================================================================
                                       INPUT FILE
================================================================================
NAME = xtb_opt.inp
|  1> ! r2scan-3c def2/J RI DEFGRID2 scfconv7 ENGRAD tightSCF miniprint
|  2> * xyzfile 0 1 xtb_opt.xyz
|  3> 
|  4>                          ****END OF INPUT****
================================================================================

                     *******************************
                     * Energy+Gradient Calculation *
                     *******************************

---------------------------------
CARTESIAN COORDINATES (ANGSTROEM)
---------------------------------
  C     -2.411685   -0.077634   -0.000005
  C     -1.839648   -1.336993   -0.000009
  C     -0.461143   -1.468614   -0.000015
  C      0.340578   -0.341999   -0.000014
  C     -0.225148    0.935544   -0.000006
  C     -1.610016    1.050045   -0.000002
  O      0.595182    2.014251    0.000001
  Cl     2.059692   -0.495657    0.000017
  H     -3.485186    0.032902   -0.000009
  H     -2.461805   -2.218035   -0.000000
  H      0.000608   -2.443017    0.000004
  H     -2.056112    2.035748   -0.000004
  H      0.073355    2.825710    0.000012

----------------------------
CARTESIAN COORDINATES (A.U.)
----------------------------
  NO LB      ZA    FRAG     MASS         X           Y           Z
   0 C     6.0000    0    12.011   -4.557424   -0.146707   -0.000009
   1 C     6.0000    0    12.011   -3.476430   -2.526551   -0.000017
   2 C     6.0000    0    12.011   -0.871434   -2.775277   -0.000028
   3 C     6.0000    0    12.011    0.643598   -0.646284   -0.000026
   4 C     6.0000    0    12.011   -0.425468    1.767921   -0.000011
   5 C     6.0000    0    12.011   -3.042489    1.984298   -0.000004
   6 O     8.0000    0    15.999    1.124730    3.806382    0.000002
   7 Cl   17.0000    0    35.453    3.892253   -0.936655    0.000031
   8 H     1.0000    0     1.008   -6.586047    0.062175   -0.000017
   9 H     1.0000    0     1.008   -4.652138   -4.191479   -0.000000
  10 H     1.0000    0     1.008    0.001149   -4.616634    0.000007
  11 H     1.0000    0     1.008   -3.885488    3.847006   -0.000007
  12 H     1.0000    0     1.008    0.138621    5.339819    0.000022

------------------------------------------------------------------------------
                   ___                                                        
                  /   \      - P O W E R E D   B Y -                         
                 /     \                                                     
                 |  |  |   _    _      __       _____    __    __             
                 |  |  |  | |  | |    /  \     |  _  \  |  |  /  |          
                  \  \/   | |  | |   /    \    | | | |  |  | /  /          
                 / \  \   | |__| |  /  /\  \   | |_| |  |  |/  /          
                |  |  |   |  __  | /  /__\  \  |    /   |      \           
                |  |  |   | |  | | |   __   |  |    \   |  |\   \          
                \     /   | |  | | |  |  |  |  | |\  \  |  | \   \       
                 \___/    |_|  |_| |__|  |__|  |_| \__\ |__|  \__/        
                                                                              
                      - O R C A' S   B I G   F R I E N D -                    
                                      &                                       
                       - I N T E G R A L  F E E D E R -                       
                                                                              
 v1 FN, 2020, v2 2021, v3 2022-2024                                           
------------------------------------------------------------------------------


----------------------
SHARK INTEGRAL PACKAGE
----------------------

Number of atoms                             ...     13
Number of basis functions                   ...    190
Number of shells                            ...     90
Maximum angular momentum                    ...      2
Integral batch strategy                     ... SHARK/LIBINT Hybrid
RI-J (if used) integral strategy            ... SPLIT-RIJ (Revised 2003 algorithm where possible)
Printlevel                                  ...      1
Contraction scheme used                     ... SEGMENTED contraction
Prescreening option                         ... SCHWARTZ
   Thresh                                   ... 3.000e-11
   Tcut                                     ... 1.000e-12
   Tpresel                                  ... 1.000e-12 
Coulomb Range Separation                    ... NOT USED
Exchange Range Separation                   ... NOT USED
Multipole approximations                    ... NOT USED
Finite Nucleus Model                        ... NOT USED
CABS basis                                  ... NOT available
Auxiliary Coulomb fitting basis             ... AVAILABLE
   # of basis functions in Aux-J            ...    449
   # of shells in Aux-J                     ...    147
   Maximum angular momentum in Aux-J        ...      4
Auxiliary J/K fitting basis                 ... NOT available
Auxiliary Correlation fitting basis         ... NOT available
Auxiliary 'external' fitting basis          ... NOT available

Checking pre-screening integrals            ... done (  0.0 sec) Dimension = 90
Check shell pair data                       ... done (  0.0 sec)
Shell pair information
Shell pair cut-off parameter TPreSel        ...   1.0e-12
Total number of shell pairs                 ...      4095
Shell pairs after pre-screening             ...      3752
Total number of primitive shell pairs       ...     15962
Primitive shell pairs kept                  ...     10375
          la=0 lb=0:   1112 shell pairs
          la=1 lb=0:   1385 shell pairs
          la=1 lb=1:    441 shell pairs
          la=2 lb=0:    469 shell pairs
          la=2 lb=1:    290 shell pairs
          la=2 lb=2:     55 shell pairs

Calculating one electron integrals          ... done (  0.0 sec)
Calculating RI/J V-Matrix + Cholesky decomp.... done (  0.0 sec)
Calculating Nuclear repulsion               ... done (  0.0 sec) ENN=    407.530927355418 Eh

Diagonalization of the overlap matrix:
Smallest eigenvalue                        ... 2.774e-05
Time for diagonalization                   ...    0.002 sec
Threshold for overlap eigenvalues          ... 1.000e-07
Number of eigenvalues below threshold      ... 0
Time for construction of square roots      ...    0.001 sec
Total time needed                          ...    0.004 sec

-------------------
DFT GRID GENERATION
-------------------

General Integration Accuracy     IntAcc      ... 4.388
Radial Grid Type                 RadialGrid  ... OptM3 with GC (2021)
Angular Grid (max. ang.)         AngularGrid ... 4 (Lebedev-302)
Angular grid pruning method      GridPruning ... 4 (adaptive)
Weight generation scheme         WeightScheme... mBecke (2022)
Basis function cutoff            BFCut       ... 1.0000e-11
Integration weight cutoff        WCut        ... 1.0000e-14
Partially contracted basis set               ... off
Rotationally invariant grid construction     ... off
Angular grids for H and He will be reduced by one unit
Diffuse basis detected: some atoms will have their outermost
                        angular grid increased by 1.

Total number of grid points                  ...    65890
Total number of batches                      ...     1037
Average number of points per batch           ...       63
Average number of grid points per atom       ...     5068
Initializing property integral containers    ... done (  0.0 sec)

SHARK setup successfully completed in   0.4 seconds

Maximum memory used throughout the entire STARTUP-calculation: 31.4 MB
Occupation numbers will be reassigned to an Aufbau configuration
             **** ENERGY FILE WAS UPDATED (xtb_opt.en.tmp) ****
Finished Guess after   0.0 sec
Maximum memory used throughout the entire GUESS-calculation: 13.8 MB
----------------------------------------D-I-I-S--------------------------------------------
Iteration    Energy (Eh)           Delta-E    RMSDP     MaxDP     DIISErr   Damp  Time(sec)
-------------------------------------------------------------------------------------------
               ***  Starting incremental Fock matrix formation  ***
                              *** Initializing SOSCF ***
---------------------------------------S-O-S-C-F--------------------------------------
Iteration    Energy (Eh)           Delta-E    RMSDP     MaxDP     MaxGrad    Time(sec)
--------------------------------------------------------------------------------------
    1    -766.9790846405857110     0.00e+00  7.21e-06  1.11e-04  4.69e-05     1.1
               *** Restarting incremental Fock matrix formation ***
    2    -766.9790846531601574    -1.26e-08  1.18e-05  2.53e-04  6.39e-05     1.0
    3    -766.9790841141017381     5.39e-07  8.88e-06  2.08e-04  1.79e-04     0.8
    4    -766.9790847795053423    -6.65e-07  2.83e-06  8.06e-05  1.24e-05     0.8
                  *** Gradient check signals convergence ***

               *****************************************************
               *                     SUCCESS                       *
               *           SCF CONVERGED AFTER   4 CYCLES          *
               *****************************************************

             **** ENERGY FILE WAS UPDATED (xtb_opt.en.tmp) ****

----------------
TOTAL SCF ENERGY
----------------

Total Energy       :       -766.97908477950534 Eh          -20870.56194 eV

Components:
Nuclear Repulsion  :        407.53092735541770 Eh           11089.48031 eV
Electronic Energy  :      -1174.51001213492304 Eh          -31960.04225 eV
One Electron Energy:      -1859.59054725028636 Eh          -50602.03135 eV
Two Electron Energy:        685.08053511536332 Eh           18641.98910 eV

Virial components:
Potential Energy   :      -1531.74067154987165 Eh          -41680.78268 eV
Kinetic Energy     :        764.76158677036631 Eh           20810.22075 eV
Virial Ratio       :          2.00289959387017

DFT components:
N(Alpha)           :       32.999999268978 electrons
N(Beta)            :       32.999999268978 electrons
N(Total)           :       65.999998537956 electrons
E(X)               :      -68.886176402034 Eh       
E(C)               :       -2.266433339396 Eh       
E(XC)              :      -71.152609741429 Eh       

---------------
SCF CONVERGENCE
---------------

  Last Energy change         ...    6.6540e-07  Tolerance :   1.0000e-07
  Last MAX-Density change    ...    8.0623e-05  Tolerance :   1.0000e-07
  Last RMS-Density change    ...    2.8293e-06  Tolerance :   5.0000e-09
  Last DIIS Error            ...    1.6738e-04  Tolerance :   1.0000e-07
  Last Orbital Gradient      ...    1.2445e-05  Tolerance :   1.0000e-04
  Last Orbital Rotation      ...    5.1604e-05  Tolerance :   1.0000e-04


----------------
ORBITAL ENERGIES
----------------

  NO   OCC          E(Eh)            E(eV) 
   0   2.0000    -101.215941     -2754.2258 
   1   2.0000     -18.998029      -516.9627 
   2   2.0000     -10.113882      -275.2127 
   3   2.0000     -10.097436      -274.7652 
   4   2.0000     -10.049446      -273.4593 
   5   2.0000     -10.049003      -273.4473 
   6   2.0000     -10.046999      -273.3927 
   7   2.0000     -10.041026      -273.2302 
   8   2.0000      -9.371843      -255.0208 
   9   2.0000      -7.118212      -193.6964 
  10   2.0000      -7.108152      -193.4226 
  11   2.0000      -7.107432      -193.4030 
  12   2.0000      -1.045302       -28.4441 
  13   2.0000      -0.859419       -23.3860 
  14   2.0000      -0.807750       -21.9800 
  15   2.0000      -0.726283       -19.7632 
  16   2.0000      -0.705678       -19.2025 
  17   2.0000      -0.613077       -16.6827 
  18   2.0000      -0.575830       -15.6691 
  19   2.0000      -0.530533       -14.4365 
  20   2.0000      -0.476958       -12.9787 
  21   2.0000      -0.457323       -12.4444 
  22   2.0000      -0.424623       -11.5546 
  23   2.0000      -0.408582       -11.1181 
  24   2.0000      -0.404700       -11.0125 
  25   2.0000      -0.376481       -10.2446 
  26   2.0000      -0.347983        -9.4691 
  27   2.0000      -0.334740        -9.1087 
  28   2.0000      -0.327674        -8.9165 
  29   2.0000      -0.311031        -8.4636 
  30   2.0000      -0.280678        -7.6376 
  31   2.0000      -0.238345        -6.4857 
  32   2.0000      -0.213135        -5.7997 
  33   0.0000      -0.045187        -1.2296 
  34   0.0000      -0.028221        -0.7679 
  35   0.0000       0.014047         0.3822 
  36   0.0000       0.051054         1.3892 
  37   0.0000       0.099839         2.7168 
  38   0.0000       0.110738         3.0133 
  39   0.0000       0.114818         3.1244 
  40   0.0000       0.124772         3.3952 
  41   0.0000       0.139870         3.8061 
  42   0.0000       0.155719         4.2373 
  43   0.0000       0.183940         5.0053 
*Only the first 10 virtual orbitals were printed.
Total SCF time: 0 days 0 hours 0 min 3 sec 
Finished LeanSCF after   3.8 sec

Maximum memory used throughout the entire LEANSCF-calculation: 20.5 MB


-------------------------------------------------------------------------------
                          DFT DISPERSION CORRECTION                            
                                                                               
                                DFTD4 V3.4.0                                   
-------------------------------------------------------------------------------
-------------------------   ----------------
Dispersion correction           -0.004535886
-------------------------   ----------------

------------------   -----------------
gCP correction             0.005266168
------------------   -----------------

-------------------------   --------------------
FINAL SINGLE POINT ENERGY      -766.978354497936
-------------------------   --------------------

------------------------------------------------------------------------------
                         ORCA SCF GRADIENT CALCULATION
------------------------------------------------------------------------------

Nuc. rep. gradient        (SHARK) ... done (  0.0 sec)
HCore & Overlap gradient  (SHARK) ... done (  0.1 sec)
Split-RIJ-J gradient      (SHARK) ... done (  0.9 sec)
XC gradient                       ... done (  3.1 sec)
Dispersion correction             ... done (  0.0 sec)

-------------------
DISPERSION GRADIENT
-------------------

   1   C   :   -0.000084552   -0.000005720   -0.000000000
   2   C   :   -0.000061080   -0.000058508   -0.000000000
   3   C   :    0.000004100   -0.000066074   -0.000000000
   4   C   :    0.000043560   -0.000013406   -0.000000000
   5   C   :    0.000016474    0.000041947   -0.000000000
   6   C   :   -0.000049569    0.000051086   -0.000000000
   7   O   :    0.000027111    0.000088622    0.000000000
   8   Cl  :    0.000165782   -0.000034823    0.000000001
   9   H   :   -0.000040763    0.000001020   -0.000000000
  10   H   :   -0.000026775   -0.000031411    0.000000000
  11   H   :    0.000010171   -0.000038551    0.000000000
  12   H   :   -0.000023125    0.000034408    0.000000000
  13   H   :    0.000018663    0.000031409    0.000000000

Difference to translation invariance:
           :    0.0000000000    0.0000000000    0.0000000000

Difference to rotation invariance:
           :   -0.0000000000   -0.0000000000    0.0000000000

Norm of the Dispersion gradient    ...    0.0002705323
RMS gradient                       ...    0.0000433198
MAX gradient                       ...    0.0001657821
gCP correction                   ... done

------------------
CARTESIAN GRADIENT
------------------

   1   C   :    0.002285921   -0.001220447    0.000000519
   2   C   :    0.001855934    0.003348954    0.000000048
   3   C   :    0.000055484    0.000755769   -0.000001243
   4   C   :    0.001652884   -0.003522319   -0.000001283
   5   C   :    0.002113262   -0.001428901    0.000000294
   6   C   :    0.000835375   -0.001731013    0.000000727
   7   O   :   -0.005182901   -0.003041725   -0.000000025
   8   Cl  :   -0.009963969    0.001703401    0.000000522
   9   H   :    0.003873758   -0.000494469   -0.000000388
  10   H   :    0.002059854    0.003483110    0.000000293
  11   H   :   -0.002110014    0.003471410    0.000000724
  12   H   :    0.001626989   -0.003479728   -0.000000232
  13   H   :    0.000897424    0.002155958    0.000000042

Difference to translation invariance:
           :    0.0000000000   -0.0000000000   -0.0000000000

Difference to rotation invariance:
           :   -0.0000000045   -0.0000000043   -0.0001974322

Norm of the Cartesian gradient     ...    0.0159349983
RMS gradient                       ...    0.0025516419
MAX gradient                       ...    0.0099639695

-------
TIMINGS
-------

Total SCF gradient time     ....        4.092 sec

Densities                   ....       0.000 sec  (  0.0%)
One electron gradient       ....       0.129 sec  (  3.2%)
RI-J Coulomb gradient       ....       0.865 sec  ( 21.1%)
XC gradient                 ....       3.072 sec  ( 75.1%)

Maximum memory used throughout the entire SCFGRAD-calculation: 33.9 MB

------------------------------------------------------------------------------
                              ORCA PROPERTY CALCULATIONS
------------------------------------------------------------------------------

GBWName                                 ... xtb_opt.gbw
Number of atoms                         ...     13
Number of basis functions               ...    190
Max core memory                         ...   1024 MB

Electric properties:
Dipole moment                           ... YES
Quadrupole moment                       ...  NO
Static polarizability (Dipole/Dipole)   ...  NO
Static polarizability (Dipole/Quad.)    ...  NO
Static polarizability (Quad./Quad.)     ...  NO
Static polarizability (Velocity)        ...  NO

Atomic electric properties:
Dipole moment                           ...  NO
Quadrupole moment                       ...  NO
Static polarizability                   ...  NO

Choice of electric origin               ... Center of mass
Position of electric origin             ...    -0.000015    -0.000012    -0.000000

General magnetic properties:
Magnetizability                         ...  NO

EPR properties:
g-Tensor (aka g-matrix)                 ...  NO
Zero-Field splitting spin-orbit         ...  NO
Zero-field splitting spin-spin          ...  NO
Hyperfine couplings                     ...  NO (   0 nuclei)
Quadrupole couplings                    ...  NO (   0 nuclei)
Contact density                         ...  NO (   0 nuclei)

NMR properties:
Chemical shifts                         ...  NO (   0 nuclei)
Spin-rotation constants                 ...  NO (   0 nuclei)
Spin-spin couplings                     ...  NO (   0 nuclei,    0 pairs)

Choice of magnetic origin               ... GIAO
Position of magnetic origin             ...     0.000000     0.000000     0.000000

Properties with geometric perturbations:
SCF Hessian                             ...  NO
IR spectrum                             ...  NO
VCD spectrum                            ...  NO
X-ray spectroscopy properties:
SCF XES/XAS/RIXS spectra                ...  NO


-------------
DIPOLE MOMENT
-------------

Method             : SCF
Type of density    : Electron Density
Multiplicity       :   1
Irrep              :   0
Energy             :  -766.9790847795053423 Eh
Relativity type    : 
Basis              : AO
                                X                 Y                 Z
Electronic contribution:      9.209303180      -0.467314273       0.000030837
Nuclear contribution   :    -10.194635927       0.913967209      -0.000020010
                        -----------------------------------------
Total Dipole Moment    :     -0.985332748       0.446652936       0.000010826
                        -----------------------------------------
Magnitude (a.u.)       :      1.081840778
Magnitude (Debye)      :      2.749820726



--------------------
Rotational spectrum 
--------------------
 
Rotational constants in cm-1:             0.099495             0.051887             0.034103 
Rotational constants in MHz :          2982.782473          1555.547941          1022.371822 

Dipole components along the rotational axes: 
x,y,z [a.u.] :    -0.985178    -0.446994     0.000016 
x,y,z [Debye]:    -2.504124    -1.136168     0.000040 

 

Dipole moment calculation done in   0.0 sec 

Maximum memory used throughout the entire PROP-calculation: 12.3 MB

--------------------------------
SUGGESTED CITATIONS FOR THIS RUN
--------------------------------

Below you find a list of papers that are relevant to this ORCA run
We neither can nor want to force you to cite these papers, but we appreciate if you do
You receive ORCA, which is the product of decades of hard work by many enthusiastic individuals, for free
The only thing we kindly ask in return is that you cite our papers,
We deeply appreciate it, if you show your appreciation for ORCA by not just citing the generic ORCA reference.

Please note that relegating all ORCA citations to the supporting information does *not* help us.
SI sections are not indexed - citations you put there will not count into any citation statistics
But we need these citations in order to attract the funding resources that allow us to do what we are doing

Therefore, if you are a happy ORCA user, please consider citing a few of the papers listed below in the main body of your paper

In addition to the list printed below, the program has created the file xtb_opt.bibtex that contains the list in bibtex format
You can import this file easily into all common literature databanks and citation aid programs


List of essential papers. We consider these as the minimum necessary citations

  1. Neese,F.
     Software update: the ORCA program system, version 5.0
     WIRES Comput. Molec. Sci., 2022 12(1)e1606
     doi.org/10.1002/wcms.1606
  2. Grimme,S.; Hansen,A.; Ehlert,S.; Mewes,J.
     r2SCAN-3c: A 'Swiss army knife' composite electronic-structure method
     J. Chem. Phys., 2021 154 064103
     doi.org/10.1063/5.0040021

List of papers to cite with high priority. The work reported in these papers was absolutely
necessary for this run to complete.
Our perspective: the developers of density functionals and basis sets usually get cited in chemistry papers
Good! But without the algorithms to do something with them, the functionals or basis sets would not do anything.
Hence, in our opinion, the algorithm design and method developments papers are equally worthy of getting cited

  1. Neese,F.
     An improvement of the resolution of the identity approximation for the formation of the Coulomb matrix
     J. Comp. Chem., 2003 24(14)1740-1747
     doi.org/10.1002/jcc.10318
  2. Neese,F.
     The SHARK Integral Generation and Digestion System
     J. Comp. Chem., 2022  1-16
     doi.org/10.1002/jcc.26942
  3. Lehtola,S.; Steigemann,C.; Oliveira,M.; Marques,M.
     Recent developments in Libxc - A comprehensive library of functionals for density functional theory
     Software X, 2018 7 
     doi.org/10.1016/j.softx.2017.11.002
  4. Caldeweyher,E.; Bannwarth,C.; Grimme,S.
     Extension of the D3 dispersion coefficient model
     J. Chem. Phys., 2017 147 034112
     doi.org/10.1063/1.4993215
  5. Caldeweyher,E.; Ehlert,S.; Hansen,A.; Neugebauer,H.; Spicher,S.; Bannwarth,C.; Grimme,S.
     A generally applicable atomic-charge dependent London dispersion correction
     J. Chem. Phys., 2019 150 154122
     doi.org/10.1063/1.5090222
  6. Caldeweyher,E.; Mewes,J.; Ehlert,S.; Grimme,S.
     Extension and evaluation of the D4 London-dispersion model for periodic systems
     Phys. Chem. Chem. Phys., 2020 22(16)8499-8512
     doi.org/10.1039/D0CP00502A
  7. Wittmann,L.; Gordiy,I.; Friede,M.; Helmich-Paris,B.; Grimme,S.; Hansen,A.; Bursch,M.
     Extension of the D3 and D4 London Dispersion Corrections to the full Actinides Series
     Phys. Chem. Chem. Phys., 2024 26(32)21379-21394
     doi.org/https://doi.org/10.1039/D4CP01514B 

List of suggested additional citations. These are papers that are important in the 'surrounding' of 
of this run, or papers that preceded the highly important papers. If you like your results we are grateful for a citation.

  1. Neese,F.
     The ORCA program system
     WIRES Comput. Molec. Sci., 2012 2(1)73-78
     doi.org/10.1002/wcms.81
  2. Neese,F.
     Software update: the ORCA program system, version 4.0
     WIRES Comput. Molec. Sci., 2018 8(1)1-6
     doi.org/10.1002/wcms.1327
  3. Neese,F.; Wennmohs,F.; Becker,U.; Riplinger,C.
     The ORCA quantum chemistry program package
     J. Chem. Phys., 2020 152 Art. No. L224108
     doi.org/10.1063/5.0004608

List of optional additional citations

  1. Neese,F.
     Approximate second-order SCF convergence for spin unrestricted wavefunctions
     Chem. Phys. Lett., 2000 325(1-3)93-98
     doi.org/10.1016/s0009-2614(00)00662-x

Timings for individual modules:

Sum of individual times          ...        8.561 sec (=   0.143 min)
Startup calculation              ...        0.461 sec (=   0.008 min)   5.4 %
SCF iterations                   ...        3.918 sec (=   0.065 min)  45.8 %
Property calculations            ...        0.044 sec (=   0.001 min)   0.5 %
SCF Gradient evaluation          ...        4.138 sec (=   0.069 min)  48.3 %
                             ****ORCA TERMINATED NORMALLY****
TOTAL RUN TIME: 0 days 0 hours 0 minutes 8 seconds 642 msec
  ------------------------------------------------------------------------
          * successful ORCA run, taking over control again...

         :::::::::::::::::::::::::::::::::::::::::::::::::::::
         ::                  ORCA SUMMARY                   ::
         :::::::::::::::::::::::::::::::::::::::::::::::::::::
         :: total energy            -766.978354497936 Eh    ::
         :: gradient norm              0.015934998279 Eh/a0 ::
         :: HOMO-LUMO gap              0.000000000000 eV    ::
         :::::::::::::::::::::::::::::::::::::::::::::::::::::

      ----------------------------------------------------------- 
     |                       L-ANC optimizer                     |
      ----------------------------------------------------------- 
          low memory version by Sebastian Ehlert

          ...................................................
          :                      SETUP                      :
          :.................................................:
          :   energy convergence        0.5000000E-05 Eh    :
          :   grad. convergence         0.1000000E-02 Eh/a0 :
          :   optimization log               true           :
          :   writing optlog all                1     steps :
          :   Hessian reset                     8     steps :
          :   maximium step len.        1.0000000     a0    :
          :   LBFGS images                      8           :
          ...................................................
 * calculating model hessian...
Using Lindh-Hessian (1995)
 Shifting diagonal of input Hessian by    1.0000000000000000E-002
 Lowest  eigenvalues of input Hessian
    0.000000    0.000000    0.000000    0.000000    0.000000    0.000000
    0.018525    0.023153    0.030326    0.033292    0.047872    0.053835
    0.066449    0.081020    0.092017    0.105200    0.110812    0.112632
 Highest eigenvalues
    1.497355    1.652971    1.771555    1.903319    2.039405    2.119347


........................................................................
.............................. CYCLE    1 ..............................
........................................................................
                         * ORCA takes the control...
  ------------------------------------------------------------------------

                                 *****************
                                 * O   R   C   A *
                                 *****************

                                            #,                                       
                                            ###                                      
                                            ####                                     
                                            #####                                    
                                            ######                                   
                                           ########,                                 
                                     ,,################,,,,,                         
                               ,,#################################,,                 
                          ,,##########################################,,             
                       ,#########################################, ''#####,          
                    ,#############################################,,   '####,        
                  ,##################################################,,,,####,       
                ,###########''''           ''''###############################       
              ,#####''   ,,,,##########,,,,          '''####'''          '####       
            ,##' ,,,,###########################,,,                        '##       
           ' ,,###''''                  '''############,,,                           
         ,,##''                                '''############,,,,        ,,,,,,###''
      ,#''                                            '''#######################'''  
     '                                                          ''''####''''         
             ,#######,   #######,   ,#######,      ##                                
            ,#'     '#,  ##    ##  ,#'     '#,    #''#        ,####,   ,####,        
            ##       ##  ##   ,#'  ##            #'  '#       #'       #'  '#        
            ##       ##  #######   ##           ,######,      #####,   #    #        
            '#,     ,#'  ##    ##  '#,     ,#' ,#      #,     #,   #   #,  ,#        
             '#######'   ##     ##  '#######'  #'      '#     '####' # '####'        



                #########################################################
                #                        -***-                          #
                #          Department of theory and spectroscopy        #
                #                                                       #
                #                      Frank Neese                      #
                #                                                       #
                #     Directorship, Architecture, Infrastructure        #
                #                    SHARK, DRIVERS                     #
                #        Core code/Algorithms in most modules           #
                #                                                       #
                #        Max Planck Institute fuer Kohlenforschung      #
                #                Kaiser Wilhelm Platz 1                 #
                #                 D-45470 Muelheim/Ruhr                 #
                #                      Germany                          #
                #                                                       #
                #                  All rights reserved                  #
                #                        -***-                          #
                #########################################################


                         Program Version 6.0.1  -  RELEASE   -


 With contributions from (in alphabetic order):
[Max-Planck-Institut fuer Kohlenforschung]                               
  Daniel Aravena         : Magnetic Suceptibility                        
  Michael Atanasov       : Ab Initio Ligand Field Theory (pilot matlab implementation)
  Alexander A. Auer      : GIAO ZORA, VPT2 properties, NMR spectrum      
  Ute Becker             : All parallelization in ORCA, NUMFREQ, NUMCALC 
  Giovanni Bistoni       : ED, misc. LED, open-shell LED, HFLD           
  Martin Brehm           : Molecular dynamics                            
  Dmytro Bykov           : pre 5.0 version of the SCF Hessian            
  Marcos Casanova-Páez   : Triplet and SCS-CIS(D). UHF-(DLPNO)-IP/EA/STEOM-CCSD. UHF-CVS-IP/STEOM-CCSD   
  Vijay G. Chilkuri      : MRCI spin determinant printing, contributions to CSF-ICE 
  Pauline Colinet        : FMM embedding                                 
  Dipayan Datta          : RHF DLPNO-CCSD density                        
  Achintya Kumar Dutta   : EOM-CC, STEOM-CC                              
  Nicolas Foglia         : Exact transition moments, OPA infrastructure, MCD improvements    
  Dmitry Ganyushin       : Spin-Orbit,Spin-Spin,Magnetic field MRCI      
  Miquel Garcia-Rates    : C-PCM and meta-GGA Hessian, CCSD/C-PCM, Gaussian charge scheme 
  Tiago L. C. Gouveia    : GS-ROHF, GS-ROCIS                             
  Yang Guo               : DLPNO-NEVPT2, F12-NEVPT2, CIM, IAO-localization        
  Andreas Hansen         : Spin unrestricted coupled pair/coupled cluster methods 
  Ingolf Harden          : AUTO-CI MPn and infrastructure                
  Benjamin Helmich-Paris : MC-RPA, TRAH-(SCF,CASSCF), AVAS, COSX integrals, SCF dyn. polar. 
  Lee Huntington         : MR-EOM, pCC                                   
  Robert Izsak           : Overlap fitted RIJCOSX, COSX-SCS-MP3, EOM     
  Riya Kayal             : Wick's Theorem for AUTO-CI, AUTO-CI UHF-CCSDT 
  Emily Kempfer          : AUTO-CI, RHF CISDT and CCSDT                  
  Christian Kollmar      : KDIIS, OOCD, Brueckner-CCSD(T), CCSD density, CASPT2, CASPT2-K, improved NEVPT2 
  Axel Koslowski         : Symmetry handling                             
  Simone Kossmann        : meta-GGA functionals, TD-DFT gradient, OOMP2, (MP2 Hessian; deprecated post 5.0) 
  Lucas Lang             : DCDCAS                                        
  Marvin Lechner         : AUTO-CI (C++ implementation), FIC-MRCC        
  Spencer Leger          : CASSCF response                               
  Dagmar Lenk            : GEPOL surface, SMD, ORCA-2-JSON               
  Dimitrios Liakos       : Extrapolation schemes; Compound Job, initial MDCI parallelization 
  Dimitrios Manganas     : Further ROCIS development; embedding schemes. LFT, Crystal Embedding 
  Dimitrios Pantazis     : SARC Basis sets                               
  Anastasios Papadopoulos: AUTO-CI, single reference methods and gradients 
  Taras Petrenko         : pre 6.0 DFT Hessian and TD-DFT gradient, (ASA, deprecated), ECA, 1-Electron XAS/XES, NRVS 
  Peter Pinski           : DLPNO-MP2, DLPNO-MP2 Gradient                 
  Christoph Reimann      : Effective Core Potentials                     
  Marius Retegan         : Local ZFS, SOC                                
  Christoph Riplinger    : Optimizer, TS searches, QM/MM, DLPNO-CCSD(T), (RO)-DLPNO pert. Triples 
  Michael Roemelt        : Original ROCIS implementation                 
  Masaaki Saitow         : Open-shell DLPNO-CCSD energy and density      
  Barbara Sandhoefer     : DKH picture change effects                    
  Kantharuban Sivalingam : CASSCF convergence/infrastructure, NEVPT2 and variants, FIC-MRCI 
  Bernardo de Souza      : ESD, SOC TD-DFT                               
  Georgi L. Stoychev     : AutoAux, RI-MP2 NMR, DLPNO-MP2 response, X2C  
  Van Anh Tran           : RI-MP2 g-tensors                              
  Willem Van den Heuvel  : Paramagnetic NMR                              
  Zikuan Wang            : NOTCH, Electric field optimization            
  Frank Wennmohs         : Technical directorship and infrastructure     
  Hang Xu                : AUTO-CI-Response properties                   
                                                                         
[FACCTs GmbH]                                                            
  Markus Bursch, Miquel Garcia-Rates, Christoph Riplinger, Bernardo de Souza, Georgi L. Stoychev 
                                                                 
  APM, Basis sets (HGBS, AHGBS, def-TZVP (Ac-Lr), def2-XVPD (La-Lu)), CI-OPT, improved COSX, DLPNO-Multilevel,           
  DOCKER, DRACO, updates on ESD, GOAT, IRC, LR-CPCM, MBIS, meta-GGA TD-DFT gradient, ML-optimized integration grids, 
  MM, NACMEs, nearIR, NEB, NEB-TS, NL-DFT gradient (VV10), 2- and 3-layer-ONIOM, interface openCOSMO-RS, QMMM,   
  Crystal-QMMM, SF, symmetry and pop. for TD-DFT, r2SCAN hybrids, SOLVATOR                                   
                                                                         
[Other institutions]                                                     
  V. Asgeirsson          : NEB                                           
  Christoph Bannwarth    : sTDA-DFT, sTD-DFT, PBEh-3c, B97-3c, D3        
  Sebastian Ehlert       : rSCAN, r2SCAN, r2SCAN-3c, D4, dhf basis sets  
  Marvin Friede          : D4 for Fr, Ra, Ac-Lr                          
  Lars Goerigk           : TD-DFT with DH, B97 family of functionals     
  Stefan Grimme          : VdW corrections, initial TS optimization, DFT functionals, gCP, sTDA/sTD-DF 
  Waldemar Hujo          : DFT-NL                                        
  H. Jonsson             : NEB                                           
  Holger Kruse           : gCP                                           
  Marcel Mueller         : wB97X-3c, vDZP basis set                      
  Hagen Neugebauer       : wr2SCAN                                       
  Tobias Risthaus        : range-separated hybrid DFT                    
  Lukas Wittmann         : regularized MP2, r2SCAN double-hybrids, wr2SCAN        
                                                                         
We gratefully acknowledge several colleagues who have allowed us to      
interface, adapt or use parts of their codes:                            
  Ed Valeev, F. Pavosevic, A. Kumar             : LibInt (2-el integral package), F12 methods 
  Garnet Chan, S. Sharma, J. Yang, R. Olivares  : DMRG                   
  Ulf Ekstrom                                   : XCFun DFT Library      
  Mihaly Kallay                                 : mrcc  (arbitrary order and MRCC methods)
  Frank Weinhold                                : gennbo (NPA and NBO analysis)           
  Simon Mueller                                 : openCOSMO-RS                            
  Christopher J. Cramer and Donald G. Truhlar   : smd solvation model                     
  S Lehtola, MJT Oliveira, MAL Marques          : LibXC Library                           
  Liviu Ungur et al                             : ANISO software                          


 Your calculation uses the libint2 library for the computation of 2-el integrals
 For citations please refer to: http://libint.valeyev.net

 Your ORCA version has been built with support for libXC version: 6.2.2
 For citations please refer to: https://libxc.gitlab.io

 This ORCA versions uses:
   CBLAS   interface :  Fast vector & matrix operations
   LAPACKE interface :  Fast linear algebra routines
   SCALAPACK package :  Parallel linear algebra routines
   Shared memory     :  Shared parallel matrices
   BLAS/LAPACK       :  OpenBLAS 0.3.27  USE64BITINT DYNAMIC_ARCH NO_AFFINITY Zen SINGLE_THREADED
        Core in use  :  Zen
   Copyright (c) 2011-2014, The OpenBLAS Project




***************************************
The coordinates will be read from file: xtb_opt.xyz
***************************************


Your calculation utilizes the geometrical counterpoise correction gCP
Please cite in your paper:
H.Kruse, S. Grimme J.Chem.Phys., 136, (2012), 154101 
   

Your calculation utilizes the atom-pairwise dispersion correction
based on EEQ partial charges (D4)


================================================================================

----- Orbital basis set information -----
Your calculation utilizes the basis: def2-mTZVPP
   Stefan Grimme, Andreas Hansen, Sebastian Ehlert, and Jan-Michael Mewes 
   J. Chem. Phys. 154, 064103 (2021). DOI: 10.1063/5.0040021

----- AuxJ basis set information -----
Your calculation utilizes the auxiliary basis: def2/J
   F. Weigend, Phys. Chem. Chem. Phys. 8, 1057 (2006).

================================================================================
                                        WARNINGS
                       Please study these warnings very carefully!
================================================================================

WARNING: Old DensityContainer found on disk!
         Will remove this file - 
         If you want to keep old densities, please start your calculation with a different basename. 



WARNING: SCAN, rSCAN, or r2SCAN functional requested.
  ===> : libXC variant has now been activated.



================================================================================
                                       INPUT FILE
================================================================================
NAME = xtb_opt.inp
|  1> ! r2scan-3c def2/J RI DEFGRID2 scfconv7 ENGRAD tightSCF miniprint
|  2> * xyzfile 0 1 xtb_opt.xyz
|  3> 
|  4>                          ****END OF INPUT****
================================================================================

                     *******************************
                     * Energy+Gradient Calculation *
                     *******************************

---------------------------------
CARTESIAN COORDINATES (ANGSTROEM)
---------------------------------
  C     -2.418537   -0.076888   -0.000007
  C     -1.843650   -1.341153   -0.000007
  C     -0.459723   -1.469336   -0.000004
  C      0.345927   -0.339413   -0.000001
  C     -0.224641    0.939372   -0.000003
  C     -1.613991    1.054532   -0.000005
  O      0.601443    2.016927    0.000002
  Cl     2.074117   -0.500342    0.000007
  H     -3.496281    0.034351   -0.000008
  H     -2.465881   -2.227597   -0.000007
  H      0.006435   -2.446736   -0.000002
  H     -2.061664    2.044239   -0.000005
  H      0.075117    2.824295    0.000008

----------------------------
CARTESIAN COORDINATES (A.U.)
----------------------------
  NO LB      ZA    FRAG     MASS         X           Y           Z
   0 C     6.0000    0    12.011   -4.570372   -0.145298   -0.000014
   1 C     6.0000    0    12.011   -3.483993   -2.534412   -0.000013
   2 C     6.0000    0    12.011   -0.868751   -2.776643   -0.000007
   3 C     6.0000    0    12.011    0.653708   -0.641398   -0.000001
   4 C     6.0000    0    12.011   -0.424509    1.775155   -0.000005
   5 C     6.0000    0    12.011   -3.050000    1.992777   -0.000010
   6 O     8.0000    0    15.999    1.136563    3.811440    0.000004
   7 Cl   17.0000    0    35.453    3.919513   -0.945509    0.000014
   8 H     1.0000    0     1.008   -6.607014    0.064915   -0.000014
   9 H     1.0000    0     1.008   -4.659840   -4.209548   -0.000013
  10 H     1.0000    0     1.008    0.012160   -4.623661   -0.000004
  11 H     1.0000    0     1.008   -3.895981    3.863052   -0.000009
  12 H     1.0000    0     1.008    0.141951    5.337143    0.000015

------------------------------------------------------------------------------
                   ___                                                        
                  /   \      - P O W E R E D   B Y -                         
                 /     \                                                     
                 |  |  |   _    _      __       _____    __    __             
                 |  |  |  | |  | |    /  \     |  _  \  |  |  /  |          
                  \  \/   | |  | |   /    \    | | | |  |  | /  /          
                 / \  \   | |__| |  /  /\  \   | |_| |  |  |/  /          
                |  |  |   |  __  | /  /__\  \  |    /   |      \           
                |  |  |   | |  | | |   __   |  |    \   |  |\   \          
                \     /   | |  | | |  |  |  |  | |\  \  |  | \   \       
                 \___/    |_|  |_| |__|  |__|  |_| \__\ |__|  \__/        
                                                                              
                      - O R C A' S   B I G   F R I E N D -                    
                                      &                                       
                       - I N T E G R A L  F E E D E R -                       
                                                                              
 v1 FN, 2020, v2 2021, v3 2022-2024                                           
------------------------------------------------------------------------------


----------------------
SHARK INTEGRAL PACKAGE
----------------------

Number of atoms                             ...     13
Number of basis functions                   ...    190
Number of shells                            ...     90
Maximum angular momentum                    ...      2
Integral batch strategy                     ... SHARK/LIBINT Hybrid
RI-J (if used) integral strategy            ... SPLIT-RIJ (Revised 2003 algorithm where possible)
Printlevel                                  ...      1
Contraction scheme used                     ... SEGMENTED contraction
Prescreening option                         ... SCHWARTZ
   Thresh                                   ... 3.000e-11
   Tcut                                     ... 1.000e-12
   Tpresel                                  ... 1.000e-12 
Coulomb Range Separation                    ... NOT USED
Exchange Range Separation                   ... NOT USED
Multipole approximations                    ... NOT USED
Finite Nucleus Model                        ... NOT USED
CABS basis                                  ... NOT available
Auxiliary Coulomb fitting basis             ... AVAILABLE
   # of basis functions in Aux-J            ...    449
   # of shells in Aux-J                     ...    147
   Maximum angular momentum in Aux-J        ...      4
Auxiliary J/K fitting basis                 ... NOT available
Auxiliary Correlation fitting basis         ... NOT available
Auxiliary 'external' fitting basis          ... NOT available

Checking pre-screening integrals            ... done (  0.0 sec) Dimension = 90
Check shell pair data                       ... done (  0.0 sec)
Shell pair information
Shell pair cut-off parameter TPreSel        ...   1.0e-12
Total number of shell pairs                 ...      4095
Shell pairs after pre-screening             ...      3751
Total number of primitive shell pairs       ...     15962
Primitive shell pairs kept                  ...     10366
          la=0 lb=0:   1112 shell pairs
          la=1 lb=0:   1384 shell pairs
          la=1 lb=1:    441 shell pairs
          la=2 lb=0:    469 shell pairs
          la=2 lb=1:    290 shell pairs
          la=2 lb=2:     55 shell pairs

Calculating one electron integrals          ... done (  0.0 sec)
Calculating RI/J V-Matrix + Cholesky decomp.... done (  0.0 sec)
Calculating Nuclear repulsion               ... done (  0.0 sec) ENN=    406.073836382335 Eh

Diagonalization of the overlap matrix:
Smallest eigenvalue                        ... 2.845e-05
Time for diagonalization                   ...    0.002 sec
Threshold for overlap eigenvalues          ... 1.000e-07
Number of eigenvalues below threshold      ... 0
Time for construction of square roots      ...    0.001 sec
Total time needed                          ...    0.004 sec

-------------------
DFT GRID GENERATION
-------------------

General Integration Accuracy     IntAcc      ... 4.388
Radial Grid Type                 RadialGrid  ... OptM3 with GC (2021)
Angular Grid (max. ang.)         AngularGrid ... 4 (Lebedev-302)
Angular grid pruning method      GridPruning ... 4 (adaptive)
Weight generation scheme         WeightScheme... mBecke (2022)
Basis function cutoff            BFCut       ... 1.0000e-11
Integration weight cutoff        WCut        ... 1.0000e-14
Partially contracted basis set               ... off
Rotationally invariant grid construction     ... off
Angular grids for H and He will be reduced by one unit
Diffuse basis detected: some atoms will have their outermost
                        angular grid increased by 1.

Total number of grid points                  ...    65894
Total number of batches                      ...     1038
Average number of points per batch           ...       63
Average number of grid points per atom       ...     5069
Initializing property integral containers    ... done (  0.0 sec)

SHARK setup successfully completed in   0.5 seconds

Maximum memory used throughout the entire STARTUP-calculation: 31.4 MB
Occupation numbers will be reassigned to an Aufbau configuration
             **** ENERGY FILE WAS UPDATED (xtb_opt.en.tmp) ****
Finished Guess after   0.0 sec
Maximum memory used throughout the entire GUESS-calculation: 13.8 MB
----------------------------------------D-I-I-S--------------------------------------------
Iteration    Energy (Eh)           Delta-E    RMSDP     MaxDP     DIISErr   Damp  Time(sec)
-------------------------------------------------------------------------------------------
               ***  Starting incremental Fock matrix formation  ***
                              *** Initializing SOSCF ***
---------------------------------------S-O-S-C-F--------------------------------------
Iteration    Energy (Eh)           Delta-E    RMSDP     MaxDP     MaxGrad    Time(sec)
--------------------------------------------------------------------------------------
    1    -766.9794365780874159     0.00e+00  2.22e-04  4.33e-03  2.27e-04     1.0
               *** Restarting incremental Fock matrix formation ***
    2    -766.9795079268892550    -7.13e-05  1.07e-04  1.82e-03  4.86e-04     1.0
    3    -766.9794938736999939     1.41e-05  6.62e-05  1.54e-03  9.41e-04     0.9
    4    -766.9795179429975178    -2.41e-05  3.15e-05  9.58e-04  1.42e-04     0.9
    5    -766.9795168111093062     1.13e-06  1.78e-05  4.30e-04  2.22e-04     0.9
    6    -766.9795184958315986    -1.68e-06  7.68e-06  1.86e-04  3.05e-05     0.9
    7    -766.9795184305144176     6.53e-08  4.52e-06  1.11e-04  4.53e-05     0.8
                 **** Energy Check signals convergence ****

               *****************************************************
               *                     SUCCESS                       *
               *           SCF CONVERGED AFTER   7 CYCLES          *
               *****************************************************

             **** ENERGY FILE WAS UPDATED (xtb_opt.en.tmp) ****

----------------
TOTAL SCF ENERGY
----------------

Total Energy       :       -766.97951843051442 Eh          -20870.57374 eV

Components:
Nuclear Repulsion  :        406.07383638233523 Eh           11049.83085 eV
Electronic Energy  :      -1173.05335481284965 Eh          -31920.40459 eV
One Electron Energy:      -1856.69351318408053 Eh          -50523.19904 eV
Two Electron Energy:        683.64015837123077 Eh           18602.79446 eV

Virial components:
Potential Energy   :      -1531.62297030317404 Eh          -41677.57987 eV
Kinetic Energy     :        764.64345187265974 Eh           20807.00613 eV
Virial Ratio       :          2.00305510568636

DFT components:
N(Alpha)           :       32.999999188895 electrons
N(Beta)            :       32.999999188895 electrons
N(Total)           :       65.999998377790 electrons
E(X)               :      -68.859452551495 Eh       
E(C)               :       -2.264880151622 Eh       
E(XC)              :      -71.124332703117 Eh       

---------------
SCF CONVERGENCE
---------------

  Last Energy change         ...   -6.5317e-08  Tolerance :   1.0000e-07
  Last MAX-Density change    ...    1.1087e-04  Tolerance :   1.0000e-07
  Last RMS-Density change    ...    4.5249e-06  Tolerance :   5.0000e-09
  Last DIIS Error            ...    3.0276e-03  Tolerance :   1.0000e-07
  Last Orbital Gradient      ...    4.5261e-05  Tolerance :   1.0000e-04
  Last Orbital Rotation      ...    7.0371e-05  Tolerance :   1.0000e-04


----------------
ORBITAL ENERGIES
----------------

  NO   OCC          E(Eh)            E(eV) 
   0   2.0000    -101.216389     -2754.2380 
   1   2.0000     -18.998065      -516.9636 
   2   2.0000     -10.115479      -275.2562 
   3   2.0000     -10.099207      -274.8134 
   4   2.0000     -10.051426      -273.5132 
   5   2.0000     -10.051348      -273.5111 
   6   2.0000     -10.049500      -273.4608 
   7   2.0000     -10.043307      -273.2923 
   8   2.0000      -9.372057      -255.0266 
   9   2.0000      -7.118486      -193.7039 
  10   2.0000      -7.108356      -193.4282 
  11   2.0000      -7.107655      -193.4091 
  12   2.0000      -1.044954       -28.4346 
  13   2.0000      -0.856887       -23.3171 
  14   2.0000      -0.805938       -21.9307 
  15   2.0000      -0.725150       -19.7323 
  16   2.0000      -0.705426       -19.1956 
  17   2.0000      -0.612128       -16.6568 
  18   2.0000      -0.575322       -15.6553 
  19   2.0000      -0.529198       -14.4002 
  20   2.0000      -0.476024       -12.9533 
  21   2.0000      -0.456283       -12.4161 
  22   2.0000      -0.423961       -11.5366 
  23   2.0000      -0.407922       -11.1001 
  24   2.0000      -0.403518       -10.9803 
  25   2.0000      -0.376812       -10.2536 
  26   2.0000      -0.348044        -9.4708 
  27   2.0000      -0.333837        -9.0842 
  28   2.0000      -0.328303        -8.9336 
  29   2.0000      -0.310275        -8.4430 
  30   2.0000      -0.280941        -7.6448 
  31   2.0000      -0.238340        -6.4856 
  32   2.0000      -0.213483        -5.8092 
  33   0.0000      -0.046461        -1.2643 
  34   0.0000      -0.029607        -0.8057 
  35   0.0000       0.010164         0.2766 
  36   0.0000       0.051146         1.3918 
  37   0.0000       0.098423         2.6782 
  38   0.0000       0.110736         3.0133 
  39   0.0000       0.112364         3.0576 
  40   0.0000       0.124246         3.3809 
  41   0.0000       0.138808         3.7772 
  42   0.0000       0.154658         4.2085 
  43   0.0000       0.182596         4.9687 
*Only the first 10 virtual orbitals were printed.
Total SCF time: 0 days 0 hours 0 min 6 sec 
Finished LeanSCF after   6.4 sec

Maximum memory used throughout the entire LEANSCF-calculation: 20.5 MB


-------------------------------------------------------------------------------
                          DFT DISPERSION CORRECTION                            
                                                                               
                                DFTD4 V3.4.0                                   
-------------------------------------------------------------------------------
-------------------------   ----------------
Dispersion correction           -0.004523891
-------------------------   ----------------

------------------   -----------------
gCP correction             0.005206373
------------------   -----------------

-------------------------   --------------------
FINAL SINGLE POINT ENERGY      -766.978835948418
-------------------------   --------------------

------------------------------------------------------------------------------
                         ORCA SCF GRADIENT CALCULATION
------------------------------------------------------------------------------

Nuc. rep. gradient        (SHARK) ... done (  0.0 sec)
HCore & Overlap gradient  (SHARK) ... done (  0.1 sec)
Split-RIJ-J gradient      (SHARK) ... done (  0.9 sec)
XC gradient                       ... done (  3.1 sec)
Dispersion correction             ... done (  0.0 sec)

-------------------
DISPERSION GRADIENT
-------------------

   1   C   :   -0.000084668   -0.000005637   -0.000000000
   2   C   :   -0.000061191   -0.000058626   -0.000000000
   3   C   :    0.000004205   -0.000066286   -0.000000000
   4   C   :    0.000043808   -0.000013328    0.000000000
   5   C   :    0.000016652    0.000042209   -0.000000000
   6   C   :   -0.000049761    0.000051325   -0.000000000
   7   O   :    0.000027080    0.000088522    0.000000000
   8   Cl  :    0.000165508   -0.000034940    0.000000001
   9   H   :   -0.000040710    0.000001055   -0.000000000
  10   H   :   -0.000026691   -0.000031473   -0.000000000
  11   H   :    0.000010194   -0.000038586   -0.000000000
  12   H   :   -0.000023111    0.000034394   -0.000000000
  13   H   :    0.000018686    0.000031369    0.000000000

Difference to translation invariance:
           :    0.0000000000    0.0000000000    0.0000000000

Difference to rotation invariance:
           :   -0.0000000000   -0.0000000000    0.0000000000

Norm of the Dispersion gradient    ...    0.0002706415
RMS gradient                       ...    0.0000433373
MAX gradient                       ...    0.0001655076
gCP correction                   ... done

------------------
CARTESIAN GRADIENT
------------------

   1   C   :    0.000336060   -0.000311527   -0.000000023
   2   C   :    0.000431832    0.000897603   -0.000000124
   3   C   :   -0.000103045    0.000206136    0.000000029
   4   C   :    0.003554721   -0.001296644    0.000000085
   5   C   :    0.000829505    0.000289120   -0.000000270
   6   C   :    0.000310815   -0.000411820    0.000000020
   7   O   :   -0.002479975   -0.001131689    0.000000030
   8   Cl  :   -0.004592832    0.000677193    0.000000032
   9   H   :    0.000846651   -0.000171912    0.000000061
  10   H   :    0.000271777    0.000761662    0.000000084
  11   H   :   -0.000530400    0.000680186   -0.000000016
  12   H   :    0.000365435   -0.000747204    0.000000027
  13   H   :    0.000759458    0.000558895    0.000000066

Difference to translation invariance:
           :    0.0000000000   -0.0000000000   -0.0000000000

Difference to rotation invariance:
           :    0.0000000039    0.0000000094   -0.0003168567

Norm of the Cartesian gradient     ...    0.0070227840
RMS gradient                       ...    0.0011245454
MAX gradient                       ...    0.0045928325

-------
TIMINGS
-------

Total SCF gradient time     ....        4.121 sec

Densities                   ....       0.000 sec  (  0.0%)
One electron gradient       ....       0.138 sec  (  3.3%)
RI-J Coulomb gradient       ....       0.881 sec  ( 21.4%)
XC gradient                 ....       3.078 sec  ( 74.7%)

Maximum memory used throughout the entire SCFGRAD-calculation: 33.9 MB

------------------------------------------------------------------------------
                              ORCA PROPERTY CALCULATIONS
------------------------------------------------------------------------------

GBWName                                 ... xtb_opt.gbw
Number of atoms                         ...     13
Number of basis functions               ...    190
Max core memory                         ...   1024 MB

Electric properties:
Dipole moment                           ... YES
Quadrupole moment                       ...  NO
Static polarizability (Dipole/Dipole)   ...  NO
Static polarizability (Dipole/Quad.)    ...  NO
Static polarizability (Quad./Quad.)     ...  NO
Static polarizability (Velocity)        ...  NO

Atomic electric properties:
Dipole moment                           ...  NO
Quadrupole moment                       ...  NO
Static polarizability                   ...  NO

Choice of electric origin               ... Center of mass
Position of electric origin             ...     0.007447    -0.000700    -0.000001

General magnetic properties:
Magnetizability                         ...  NO

EPR properties:
g-Tensor (aka g-matrix)                 ...  NO
Zero-Field splitting spin-orbit         ...  NO
Zero-field splitting spin-spin          ...  NO
Hyperfine couplings                     ...  NO (   0 nuclei)
Quadrupole couplings                    ...  NO (   0 nuclei)
Contact density                         ...  NO (   0 nuclei)

NMR properties:
Chemical shifts                         ...  NO (   0 nuclei)
Spin-rotation constants                 ...  NO (   0 nuclei)
Spin-spin couplings                     ...  NO (   0 nuclei,    0 pairs)

Choice of magnetic origin               ... GIAO
Position of magnetic origin             ...     0.000000     0.000000     0.000000

Properties with geometric perturbations:
SCF Hessian                             ...  NO
IR spectrum                             ...  NO
VCD spectrum                            ...  NO
X-ray spectroscopy properties:
SCF XES/XAS/RIXS spectra                ...  NO


-------------
DIPOLE MOMENT
-------------

Method             : SCF
Type of density    : Electron Density
Multiplicity       :   1
Irrep              :   0
Energy             :  -766.9795184305144176 Eh
Relativity type    : 
Basis              : AO
                                X                 Y                 Z
Electronic contribution:      9.242528677      -0.473787737       0.000024614
Nuclear contribution   :    -10.239509683       0.917058805      -0.000021564
                        -----------------------------------------
Total Dipole Moment    :     -0.996981006       0.443271068       0.000003050
                        -----------------------------------------
Magnitude (a.u.)       :      1.091082199
Magnitude (Debye)      :      2.773310552



--------------------
Rotational spectrum 
--------------------
 
Rotational constants in cm-1:             0.099050             0.051396             0.033838 
Rotational constants in MHz :          2969.431835          1540.804957          1014.429065 

Dipole components along the rotational axes: 
x,y,z [a.u.] :    -0.997991    -0.440992     0.000006 
[...]

             **** ENERGY FILE WAS UPDATED (xtb_opt.en.tmp) ****

----------------
TOTAL SCF ENERGY
----------------

Total Energy       :       -766.97956909492018 Eh          -20870.57511 eV

Components:
Nuclear Repulsion  :        405.34821359010863 Eh           11030.08565 eV
Electronic Energy  :      -1172.32778268502852 Eh          -31900.66077 eV
One Electron Energy:      -1855.24153265287578 Eh          -50483.68864 eV
Two Electron Energy:        682.91374996784714 Eh           18583.02788 eV

Virial components:
Potential Energy   :      -1531.57725863732571 Eh          -41676.33599 eV
Kinetic Energy     :        764.59768954240553 Eh           20805.76088 eV
Virial Ratio       :          2.00311520631712

DFT components:
N(Alpha)           :       32.999998808578 electrons
N(Beta)            :       32.999998808578 electrons
N(Total)           :       65.999997617157 electrons
E(X)               :      -68.848611516368 Eh       
E(C)               :       -2.264131937927 Eh       
E(XC)              :      -71.112743454296 Eh       

---------------
SCF CONVERGENCE
---------------

  Last Energy change         ...    4.3372e-09  Tolerance :   1.0000e-07
  Last MAX-Density change    ...    6.8511e-05  Tolerance :   1.0000e-07
  Last RMS-Density change    ...    3.9725e-06  Tolerance :   5.0000e-09
  Last DIIS Error            ...    5.1646e-05  Tolerance :   1.0000e-07
  Last Orbital Gradient      ...    2.4997e-05  Tolerance :   1.0000e-04
  Last Orbital Rotation      ...    1.4128e-04  Tolerance :   1.0000e-04


----------------
ORBITAL ENERGIES
----------------

  NO   OCC          E(Eh)            E(eV) 
   0   2.0000    -101.216315     -2754.2360 
   1   2.0000     -18.998739      -516.9820 
   2   2.0000     -10.116262      -275.2775 
   3   2.0000     -10.100145      -274.8389 
   4   2.0000     -10.052601      -273.5452 
   5   2.0000     -10.052525      -273.5431 
   6   2.0000     -10.050700      -273.4934 
   7   2.0000     -10.044629      -273.3282 
   8   2.0000      -9.371730      -255.0177 
   9   2.0000      -7.118207      -193.6963 
  10   2.0000      -7.108027      -193.4193 
  11   2.0000      -7.107347      -193.4007 
  12   2.0000      -1.044618       -28.4255 
  13   2.0000      -0.855502       -23.2794 
  14   2.0000      -0.804765       -21.8988 
  15   2.0000      -0.725453       -19.7406 
  16   2.0000      -0.705775       -19.2051 
  17   2.0000      -0.611896       -16.6505 
  18   2.0000      -0.575418       -15.6579 
  19   2.0000      -0.528843       -14.3906 
  20   2.0000      -0.475772       -12.9464 
  21   2.0000      -0.456135       -12.4121 
  22   2.0000      -0.424003       -11.5377 
  23   2.0000      -0.407612       -11.0917 
  24   2.0000      -0.403097       -10.9688 
  25   2.0000      -0.377346       -10.2681 
  26   2.0000      -0.348521        -9.4837 
  27   2.0000      -0.333312        -9.0699 
  28   2.0000      -0.328890        -8.9496 
  29   2.0000      -0.309744        -8.4286 
  30   2.0000      -0.280857        -7.6425 
  31   2.0000      -0.238879        -6.5002 
  32   2.0000      -0.214270        -5.8306 
  33   0.0000      -0.047141        -1.2828 
  34   0.0000      -0.030461        -0.8289 
  35   0.0000       0.006264         0.1705 
  36   0.0000       0.050868         1.3842 
  37   0.0000       0.097599         2.6558 
  38   0.0000       0.110514         3.0073 
  39   0.0000       0.111572         3.0360 
  40   0.0000       0.123917         3.3719 
  41   0.0000       0.138330         3.7642 
  42   0.0000       0.154072         4.1925 
  43   0.0000       0.181545         4.9401 
*Only the first 10 virtual orbitals were printed.
Total SCF time: 0 days 0 hours 0 min 2 sec 
Finished LeanSCF after   2.1 sec

Maximum memory used throughout the entire LEANSCF-calculation: 20.5 MB


-------------------------------------------------------------------------------
                          DFT DISPERSION CORRECTION                            
                                                                               
                                DFTD4 V3.4.0                                   
-------------------------------------------------------------------------------
-------------------------   ----------------
Dispersion correction           -0.004519001
-------------------------   ----------------

------------------   -----------------
gCP correction             0.005178818
------------------   -----------------

-------------------------   --------------------
FINAL SINGLE POINT ENERGY      -766.978909278168
-------------------------   --------------------

------------------------------------------------------------------------------
                         ORCA SCF GRADIENT CALCULATION
------------------------------------------------------------------------------

Nuc. rep. gradient        (SHARK) ... done (  0.0 sec)
HCore & Overlap gradient  (SHARK) ... done (  0.1 sec)
Split-RIJ-J gradient      (SHARK) ... done (  0.8 sec)
XC gradient                       ... done (  3.0 sec)
Dispersion correction             ... done (  0.0 sec)

-------------------
DISPERSION GRADIENT
-------------------

   1   C   :   -0.000084591   -0.000005600   -0.000000000
   2   C   :   -0.000061239   -0.000058643   -0.000000000
   3   C   :    0.000004198   -0.000066378   -0.000000000
   4   C   :    0.000043684   -0.000013296    0.000000000
   5   C   :    0.000016722    0.000042325    0.000000000
   6   C   :   -0.000049825    0.000051434   -0.000000000
   7   O   :    0.000026948    0.000088521    0.000000000
   8   Cl  :    0.000165465   -0.000035094    0.000000000
   9   H   :   -0.000040666    0.000001079   -0.000000000
  10   H   :   -0.000026620   -0.000031486   -0.000000000
  11   H   :    0.000010206   -0.000038589    0.000000000
  12   H   :   -0.000023080    0.000034359   -0.000000000
  13   H   :    0.000018798    0.000031370    0.000000000

Difference to translation invariance:
           :   -0.0000000000   -0.0000000000    0.0000000000

Difference to rotation invariance:
           :   -0.0000000000    0.0000000000    0.0000000000

Norm of the Dispersion gradient    ...    0.0002706573
RMS gradient                       ...    0.0000433398
MAX gradient                       ...    0.0001654649
gCP correction                   ... done

------------------
CARTESIAN GRADIENT
------------------

   1   C   :    0.000040126    0.000035360   -0.000000005
   2   C   :    0.000014672   -0.000007113    0.000000000
   3   C   :   -0.000014085   -0.000024085   -0.000000011
   4   C   :   -0.000379157    0.000073472   -0.000000028
   5   C   :   -0.000208165   -0.000211479    0.000000007
   6   C   :    0.000052029    0.000013979    0.000000006
   7   O   :    0.000232135    0.000106956   -0.000000012
   8   Cl  :    0.000237248   -0.000038373    0.000000004
   9   H   :    0.000020234    0.000011371   -0.000000006
  10   H   :    0.000046523    0.000015400    0.000000009
  11   H   :   -0.000007941    0.000042004    0.000000018
  12   H   :    0.000026268   -0.000029917   -0.000000000
  13   H   :   -0.000059887    0.000012426    0.000000017

Difference to translation invariance:
           :    0.0000000000   -0.0000000000    0.0000000000

Difference to rotation invariance:
           :   -0.0000000099    0.0000000123   -0.0003337790

Norm of the Cartesian gradient     ...    0.0006141660
RMS gradient                       ...    0.0000983453
MAX gradient                       ...    0.0003791566

-------
TIMINGS
-------

Total SCF gradient time     ....        3.988 sec

Densities                   ....       0.000 sec  (  0.0%)
One electron gradient       ....       0.123 sec  (  3.1%)
RI-J Coulomb gradient       ....       0.827 sec  ( 20.7%)
XC gradient                 ....       3.015 sec  ( 75.6%)

Maximum memory used throughout the entire SCFGRAD-calculation: 33.9 MB

------------------------------------------------------------------------------
                              ORCA PROPERTY CALCULATIONS
------------------------------------------------------------------------------

GBWName                                 ... xtb_opt.gbw
Number of atoms                         ...     13
Number of basis functions               ...    190
Max core memory                         ...   1024 MB

Electric properties:
Dipole moment                           ... YES
Quadrupole moment                       ...  NO
Static polarizability (Dipole/Dipole)   ...  NO
Static polarizability (Dipole/Quad.)    ...  NO
Static polarizability (Quad./Quad.)     ...  NO
Static polarizability (Velocity)        ...  NO

Atomic electric properties:
Dipole moment                           ...  NO
Quadrupole moment                       ...  NO
Static polarizability                   ...  NO

Choice of electric origin               ... Center of mass
Position of electric origin             ...     0.011623    -0.001617    -0.000000

General magnetic properties:
Magnetizability                         ...  NO

EPR properties:
g-Tensor (aka g-matrix)                 ...  NO
Zero-Field splitting spin-orbit         ...  NO
Zero-field splitting spin-spin          ...  NO
Hyperfine couplings                     ...  NO (   0 nuclei)
Quadrupole couplings                    ...  NO (   0 nuclei)
Contact density                         ...  NO (   0 nuclei)

NMR properties:
Chemical shifts                         ...  NO (   0 nuclei)
Spin-rotation constants                 ...  NO (   0 nuclei)
Spin-spin couplings                     ...  NO (   0 nuclei,    0 pairs)

Choice of magnetic origin               ... GIAO
Position of magnetic origin             ...     0.000000     0.000000     0.000000

Properties with geometric perturbations:
SCF Hessian                             ...  NO
IR spectrum                             ...  NO
VCD spectrum                            ...  NO
X-ray spectroscopy properties:
SCF XES/XAS/RIXS spectra                ...  NO


-------------
DIPOLE MOMENT
-------------

Method             : SCF
Type of density    : Electron Density
Multiplicity       :   1
Irrep              :   0
Energy             :  -766.9795690949201799 Eh
Relativity type    : 
Basis              : AO
                                X                 Y                 Z
Electronic contribution:      9.246181206      -0.484910444       0.000022992
Nuclear contribution   :    -10.264073649       0.922252342      -0.000023867
                        -----------------------------------------
Total Dipole Moment    :     -1.017892442       0.437341899      -0.000000875
                        -----------------------------------------
Magnitude (a.u.)       :      1.107868656
Magnitude (Debye)      :      2.815978335



--------------------
Rotational spectrum 
--------------------
 
Rotational constants in cm-1:             0.098805             0.051152             0.033704 
Rotational constants in MHz :          2962.109020          1533.498034          1010.406004 

Dipole components along the rotational axes: 
x,y,z [a.u.] :    -1.019672    -0.433176     0.000001 
x,y,z [Debye]:    -2.591801    -1.101046     0.000004 

 

Dipole moment calculation done in   0.0 sec 

Maximum memory used throughout the entire PROP-calculation: 12.3 MB

--------------------------------
SUGGESTED CITATIONS FOR THIS RUN
--------------------------------

Below you find a list of papers that are relevant to this ORCA run
We neither can nor want to force you to cite these papers, but we appreciate if you do
You receive ORCA, which is the product of decades of hard work by many enthusiastic individuals, for free
The only thing we kindly ask in return is that you cite our papers,
We deeply appreciate it, if you show your appreciation for ORCA by not just citing the generic ORCA reference.

Please note that relegating all ORCA citations to the supporting information does *not* help us.
SI sections are not indexed - citations you put there will not count into any citation statistics
But we need these citations in order to attract the funding resources that allow us to do what we are doing

Therefore, if you are a happy ORCA user, please consider citing a few of the papers listed below in the main body of your paper

In addition to the list printed below, the program has created the file xtb_opt.bibtex that contains the list in bibtex format
You can import this file easily into all common literature databanks and citation aid programs


List of essential papers. We consider these as the minimum necessary citations

  1. Neese,F.
     Software update: the ORCA program system, version 5.0
     WIRES Comput. Molec. Sci., 2022 12(1)e1606
     doi.org/10.1002/wcms.1606
  2. Grimme,S.; Hansen,A.; Ehlert,S.; Mewes,J.
     r2SCAN-3c: A 'Swiss army knife' composite electronic-structure method
     J. Chem. Phys., 2021 154 064103
     doi.org/10.1063/5.0040021

List of papers to cite with high priority. The work reported in these papers was absolutely
necessary for this run to complete.
Our perspective: the developers of density functionals and basis sets usually get cited in chemistry papers
Good! But without the algorithms to do something with them, the functionals or basis sets would not do anything.
Hence, in our opinion, the algorithm design and method developments papers are equally worthy of getting cited

  1. Neese,F.
     An improvement of the resolution of the identity approximation for the formation of the Coulomb matrix
     J. Comp. Chem., 2003 24(14)1740-1747
     doi.org/10.1002/jcc.10318
  2. Neese,F.
     The SHARK Integral Generation and Digestion System
     J. Comp. Chem., 2022  1-16
     doi.org/10.1002/jcc.26942
  3. Lehtola,S.; Steigemann,C.; Oliveira,M.; Marques,M.
     Recent developments in Libxc - A comprehensive library of functionals for density functional theory
     Software X, 2018 7 
     doi.org/10.1016/j.softx.2017.11.002
  4. Caldeweyher,E.; Bannwarth,C.; Grimme,S.
     Extension of the D3 dispersion coefficient model
     J. Chem. Phys., 2017 147 034112
     doi.org/10.1063/1.4993215
  5. Caldeweyher,E.; Ehlert,S.; Hansen,A.; Neugebauer,H.; Spicher,S.; Bannwarth,C.; Grimme,S.
     A generally applicable atomic-charge dependent London dispersion correction
     J. Chem. Phys., 2019 150 154122
     doi.org/10.1063/1.5090222
  6. Caldeweyher,E.; Mewes,J.; Ehlert,S.; Grimme,S.
     Extension and evaluation of the D4 London-dispersion model for periodic systems
     Phys. Chem. Chem. Phys., 2020 22(16)8499-8512
     doi.org/10.1039/D0CP00502A
  7. Wittmann,L.; Gordiy,I.; Friede,M.; Helmich-Paris,B.; Grimme,S.; Hansen,A.; Bursch,M.
     Extension of the D3 and D4 London Dispersion Corrections to the full Actinides Series
     Phys. Chem. Chem. Phys., 2024 26(32)21379-21394
     doi.org/https://doi.org/10.1039/D4CP01514B 

List of suggested additional citations. These are papers that are important in the 'surrounding' of 
of this run, or papers that preceded the highly important papers. If you like your results we are grateful for a citation.

  1. Neese,F.
     The ORCA program system
     WIRES Comput. Molec. Sci., 2012 2(1)73-78
     doi.org/10.1002/wcms.81
  2. Neese,F.
     Software update: the ORCA program system, version 4.0
     WIRES Comput. Molec. Sci., 2018 8(1)1-6
     doi.org/10.1002/wcms.1327
  3. Neese,F.; Wennmohs,F.; Becker,U.; Riplinger,C.
     The ORCA quantum chemistry program package
     J. Chem. Phys., 2020 152 Art. No. L224108
     doi.org/10.1063/5.0004608

List of optional additional citations

  1. Neese,F.
     Approximate second-order SCF convergence for spin unrestricted wavefunctions
     Chem. Phys. Lett., 2000 325(1-3)93-98
     doi.org/10.1016/s0009-2614(00)00662-x

Timings for individual modules:

Sum of individual times          ...        6.775 sec (=   0.113 min)
Startup calculation              ...        0.485 sec (=   0.008 min)   7.2 %
SCF iterations                   ...        2.219 sec (=   0.037 min)  32.8 %
Property calculations            ...        0.040 sec (=   0.001 min)   0.6 %
SCF Gradient evaluation          ...        4.031 sec (=   0.067 min)  59.5 %
                             ****ORCA TERMINATED NORMALLY****
TOTAL RUN TIME: 0 days 0 hours 0 minutes 6 seconds 849 msec
  ------------------------------------------------------------------------
          * successful ORCA run, taking over control again...

         :::::::::::::::::::::::::::::::::::::::::::::::::::::
         ::                  ORCA SUMMARY                   ::
         :::::::::::::::::::::::::::::::::::::::::::::::::::::
         :: total energy            -766.978909278168 Eh    ::
         :: gradient norm              0.000614166019 Eh/a0 ::
         :: HOMO-LUMO gap              0.000000000000 eV    ::
         :::::::::::::::::::::::::::::::::::::::::::::::::::::

           -------------------------------------------------
          |                Property Printout                |
           -------------------------------------------------
           -------------------------------------------------
          |                Geometry Summary                 |
           -------------------------------------------------

      molecular mass/u    :      128.5564617
   center of mass at/Å    :        0.0061678      -0.0008464      -0.0000002
  moments of inertia/u·Å² :        0.1706134E+03   0.3295553E+03   0.5001687E+03
rotational constants/cm⁻¹ :        0.9880600E-01   0.5115267E-01   0.3370389E-01

 * 13 selected distances

     #   Z          #   Z                                           value/Å
     1   6          2   6                                         1.3907348
     2   6          3   6                                         1.3911382
     3   6          4   6                                         1.3881874
     4   6          5   6                                         1.3995677
     1   6          6   6                                         1.3896435
     5   6          6   6                                         1.3954776
     5   6          7   8                                         1.3604189
     4   6          8  17                                         1.7469460 (max)
     1   6          9   1                                         1.0846811
     2   6         10   1                                         1.0840340
     3   6         11   1                                         1.0839667
     6   6         12   1                                         1.0873720
     7   8         13   1                                         0.9640254 (min)

 * 5 distinct bonds (by element types)

   Z      Z             #   av. dist./Å        max./Å        min./Å
   1 H    6 C           4     1.0850134     1.0873720     1.0839667
   6 C    6 C           6     1.3924582     1.3995677     1.3881874
   1 H    8 O           1     0.9640254     0.9640254     0.9640254
   6 C    8 O           1     1.3604189     1.3604189     1.3604189
   6 C   17 Cl          1     1.7469460     1.7469460     1.7469460


optimized geometry written to: xtbopt.coord


           -------------------------------------------------
          | TOTAL ENERGY             -766.978909278168 Eh   |
          | GRADIENT NORM               0.000614166019 Eh/α |
           -------------------------------------------------

------------------------------------------------------------------------
 * finished run on 2025/04/08 at 22:46:21.230     
------------------------------------------------------------------------
 total:
 * wall-time:     0 d,  0 h,  0 min, 54.051 sec
 *  cpu-time:     0 d,  0 h,  0 min,  0.385 sec
 * ratio c/w:     0.007 speedup
 SCF:
 * wall-time:     0 d,  0 h,  0 min,  8.666 sec
 *  cpu-time:     0 d,  0 h,  0 min,  0.071 sec
 * ratio c/w:     0.008 speedup
 ANC optimizer:
 * wall-time:     0 d,  0 h,  0 min, 45.349 sec
 *  cpu-time:     0 d,  0 h,  0 min,  0.004 sec
 * ratio c/w:     0.000 speedup

