
                                 *****************
                                 * O   R   C   A *
                                 *****************

                                            #,                                       
                                            ###                                      
                                            ####                                     
                                            #####                                    
                                            ######                                   
                                           ########,                                 
                                     ,,################,,,,,                         
                               ,,#################################,,                 
                          ,,##########################################,,             
                       ,#########################################, ''#####,          
                    ,#############################################,,   '####,        
                  ,##################################################,,,,####,       
                ,###########''''           ''''###############################       
              ,#####''   ,,,,##########,,,,          '''####'''          '####       
            ,##' ,,,,###########################,,,                        '##       
           ' ,,###''''                  '''############,,,                           
         ,,##''                                '''############,,,,        ,,,,,,###''
      ,#''                                            '''#######################'''  
     '                                                          ''''####''''         
             ,#######,   #######,   ,#######,      ##                                
            ,#'     '#,  ##    ##  ,#'     '#,    #''#        ,####,   ,####,        
            ##       ##  ##   ,#'  ##            #'  '#       #'       #'  '#        
            ##       ##  #######   ##           ,######,      #####,   #    #        
            '#,     ,#'  ##    ##  '#,     ,#' ,#      #,     #,   #   #,  ,#        
             '#######'   ##     ##  '#######'  #'      '#     '####' # '####'        



                #########################################################
                #                        -***-                          #
                #          Department of theory and spectroscopy        #
                #                                                       #
                #                      Frank Neese                      #
                #                                                       #
                #     Directorship, Architecture, Infrastructure        #
                #                    SHARK, DRIVERS                     #
                #        Core code/Algorithms in most modules           #
                #                                                       #
                #        Max Planck Institute fuer Kohlenforschung      #
                #                Kaiser Wilhelm Platz 1                 #
                #                 D-45470 Muelheim/Ruhr                 #
                #                      Germany                          #
                #                                                       #
                #                  All rights reserved                  #
                #                        -***-                          #
                #########################################################


                         Program Version 6.0.1  -  RELEASE   -


 With contributions from (in alphabetic order):
[Max-Planck-Institut fuer Kohlenforschung]                               
  Daniel Aravena         : Magnetic Suceptibility                        
  Michael Atanasov       : Ab Initio Ligand Field Theory (pilot matlab implementation)
  Alexander A. Auer      : GIAO ZORA, VPT2 properties, NMR spectrum      
  Ute Becker             : All parallelization in ORCA, NUMFREQ, NUMCALC 
  Giovanni Bistoni       : ED, misc. LED, open-shell LED, HFLD           
  Martin Brehm           : Molecular dynamics                            
  Dmytro Bykov           : pre 5.0 version of the SCF Hessian            
  Marcos Casanova-Páez   : Triplet and SCS-CIS(D). UHF-(DLPNO)-IP/EA/STEOM-CCSD. UHF-CVS-IP/STEOM-CCSD   
  Vijay G. Chilkuri      : MRCI spin determinant printing, contributions to CSF-ICE 
  Pauline Colinet        : FMM embedding                                 
  Dipayan Datta          : RHF DLPNO-CCSD density                        
  Achintya Kumar Dutta   : EOM-CC, STEOM-CC                              
  Nicolas Foglia         : Exact transition moments, OPA infrastructure, MCD improvements    
  Dmitry Ganyushin       : Spin-Orbit,Spin-Spin,Magnetic field MRCI      
  Miquel Garcia-Rates    : C-PCM and meta-GGA Hessian, CCSD/C-PCM, Gaussian charge scheme 
  Tiago L. C. Gouveia    : GS-ROHF, GS-ROCIS                             
  Yang Guo               : DLPNO-NEVPT2, F12-NEVPT2, CIM, IAO-localization        
  Andreas Hansen         : Spin unrestricted coupled pair/coupled cluster methods 
  Ingolf Harden          : AUTO-CI MPn and infrastructure                
  Benjamin Helmich-Paris : MC-RPA, TRAH-(SCF,CASSCF), AVAS, COSX integrals, SCF dyn. polar. 
  Lee Huntington         : MR-EOM, pCC                                   
  Robert Izsak           : Overlap fitted RIJCOSX, COSX-SCS-MP3, EOM     
  Riya Kayal             : Wick's Theorem for AUTO-CI, AUTO-CI UHF-CCSDT 
  Emily Kempfer          : AUTO-CI, RHF CISDT and CCSDT                  
  Christian Kollmar      : KDIIS, OOCD, Brueckner-CCSD(T), CCSD density, CASPT2, CASPT2-K, improved NEVPT2 
  Axel Koslowski         : Symmetry handling                             
  Simone Kossmann        : meta-GGA functionals, TD-DFT gradient, OOMP2, (MP2 Hessian; deprecated post 5.0) 
  Lucas Lang             : DCDCAS                                        
  Marvin Lechner         : AUTO-CI (C++ implementation), FIC-MRCC        
  Spencer Leger          : CASSCF response                               
  Dagmar Lenk            : GEPOL surface, SMD, ORCA-2-JSON               
  Dimitrios Liakos       : Extrapolation schemes; Compound Job, initial MDCI parallelization 
  Dimitrios Manganas     : Further ROCIS development; embedding schemes. LFT, Crystal Embedding 
  Dimitrios Pantazis     : SARC Basis sets                               
  Anastasios Papadopoulos: AUTO-CI, single reference methods and gradients 
  Taras Petrenko         : pre 6.0 DFT Hessian and TD-DFT gradient, (ASA, deprecated), ECA, 1-Electron XAS/XES, NRVS 
  Peter Pinski           : DLPNO-MP2, DLPNO-MP2 Gradient                 
  Christoph Reimann      : Effective Core Potentials                     
  Marius Retegan         : Local ZFS, SOC                                
  Christoph Riplinger    : Optimizer, TS searches, QM/MM, DLPNO-CCSD(T), (RO)-DLPNO pert. Triples 
  Michael Roemelt        : Original ROCIS implementation                 
  Masaaki Saitow         : Open-shell DLPNO-CCSD energy and density      
  Barbara Sandhoefer     : DKH picture change effects                    
  Kantharuban Sivalingam : CASSCF convergence/infrastructure, NEVPT2 and variants, FIC-MRCI 
  Bernardo de Souza      : ESD, SOC TD-DFT                               
  Georgi L. Stoychev     : AutoAux, RI-MP2 NMR, DLPNO-MP2 response, X2C  
  Van Anh Tran           : RI-MP2 g-tensors                              
  Willem Van den Heuvel  : Paramagnetic NMR                              
  Zikuan Wang            : NOTCH, Electric field optimization            
  Frank Wennmohs         : Technical directorship and infrastructure     
  Hang Xu                : AUTO-CI-Response properties                   
                                                                         
[FACCTs GmbH]                                                            
  Markus Bursch, Miquel Garcia-Rates, Christoph Riplinger, Bernardo de Souza, Georgi L. Stoychev 
                                                                 
  APM, Basis sets (HGBS, AHGBS, def-TZVP (Ac-Lr), def2-XVPD (La-Lu)), CI-OPT, improved COSX, DLPNO-Multilevel,           
  DOCKER, DRACO, updates on ESD, GOAT, IRC, LR-CPCM, MBIS, meta-GGA TD-DFT gradient, ML-optimized integration grids, 
  MM, NACMEs, nearIR, NEB, NEB-TS, NL-DFT gradient (VV10), 2- and 3-layer-ONIOM, interface openCOSMO-RS, QMMM,   
  Crystal-QMMM, SF, symmetry and pop. for TD-DFT, r2SCAN hybrids, SOLVATOR                                   
                                                                         
[Other institutions]                                                     
  V. Asgeirsson          : NEB                                           
  Christoph Bannwarth    : sTDA-DFT, sTD-DFT, PBEh-3c, B97-3c, D3        
  Sebastian Ehlert       : rSCAN, r2SCAN, r2SCAN-3c, D4, dhf basis sets  
  Marvin Friede          : D4 for Fr, Ra, Ac-Lr                          
  Lars Goerigk           : TD-DFT with DH, B97 family of functionals     
  Stefan Grimme          : VdW corrections, initial TS optimization, DFT functionals, gCP, sTDA/sTD-DF 
  Waldemar Hujo          : DFT-NL                                        
  H. Jonsson             : NEB                                           
  Holger Kruse           : gCP                                           
  Marcel Mueller         : wB97X-3c, vDZP basis set                      
  Hagen Neugebauer       : wr2SCAN                                       
  Tobias Risthaus        : range-separated hybrid DFT                    
  Lukas Wittmann         : regularized MP2, r2SCAN double-hybrids, wr2SCAN        
                                                                         
We gratefully acknowledge several colleagues who have allowed us to      
interface, adapt or use parts of their codes:                            
  Ed Valeev, F. Pavosevic, A. Kumar             : LibInt (2-el integral package), F12 methods 
  Garnet Chan, S. Sharma, J. Yang, R. Olivares  : DMRG                   
  Ulf Ekstrom                                   : XCFun DFT Library      
  Mihaly Kallay                                 : mrcc  (arbitrary order and MRCC methods)
  Frank Weinhold                                : gennbo (NPA and NBO analysis)           
  Simon Mueller                                 : openCOSMO-RS                            
  Christopher J. Cramer and Donald G. Truhlar   : smd solvation model                     
  S Lehtola, MJT Oliveira, MAL Marques          : LibXC Library                           
  Liviu Ungur et al                             : ANISO software                          


 Your calculation uses the libint2 library for the computation of 2-el integrals
 For citations please refer to: http://libint.valeyev.net

 Your ORCA version has been built with support for libXC version: 6.2.2
 For citations please refer to: https://libxc.gitlab.io

 This ORCA versions uses:
   CBLAS   interface :  Fast vector & matrix operations
   LAPACKE interface :  Fast linear algebra routines
   SCALAPACK package :  Parallel linear algebra routines
   Shared memory     :  Shared parallel matrices
   BLAS/LAPACK       :  OpenBLAS 0.3.27  USE64BITINT DYNAMIC_ARCH NO_AFFINITY Zen SINGLE_THREADED
        Core in use  :  Zen
   Copyright (c) 2011-2014, The OpenBLAS Project


Your calculation utilizes the geometrical counterpoise correction gCP
Please cite in your paper:
H.Kruse, S. Grimme J.Chem.Phys., 136, (2012), 154101 
   

Your calculation utilizes the atom-pairwise dispersion correction
based on EEQ partial charges (D4)


================================================================================

----- Orbital basis set information -----
Your calculation utilizes the basis: def2-SV(P)
   F. Weigend and R. Ahlrichs, Phys. Chem. Chem. Phys. 7, 3297 (2005).

----- AuxJ basis set information -----
Your calculation utilizes the auxiliary basis: def2/J
   F. Weigend, Phys. Chem. Chem. Phys. 8, 1057 (2006).

================================================================================
                                        WARNINGS
                       Please study these warnings very carefully!
================================================================================

WARNING: Old DensityContainer found on disk!
         Will remove this file - 
         If you want to keep old densities, please start your calculation with a different basename. 


================================================================================
                                       INPUT FILE
================================================================================
NAME = sp.inp
|  1> ! pbe def2-sv(p) def2/J RI DEFGRID1 loosescf d4 GCP(DFT/SV(P)) printgap
|  2> %output
|  3>     printlevel normal
|  4> end
|  5> * xyz 0 1
|  6> C -2.5015743577 0.7433710904 -4.60762e-05
|  7> C -1.2189731172 -0.0285768259 -2.165e-06
|  8> C -1.1918880154 -1.412749866 7.0832e-06
|  9> C 0.0095353535 -2.0996858241 2.19049e-05
| 10> C 1.2007887238 -1.3993754547 -9.723e-07
| 11> C 1.2126163213 -0.0118110093 -1.36669e-05
| 12> C -0.0066927273 0.6677342417 1.79266e-05
| 13> O -0.0699907616 2.0327374601 4.56371e-05
| 14> C 2.5103552454 0.7500688442 -4.14273e-05
| 15> H -2.5497574647 1.3874035006 -0.8768847539
| 16> H -3.3574452112 0.0740212461 -0.0001053985
| 17> H -2.5498459613 1.3873586819 0.8768197194
| 18> H -2.1248147655 -1.9573327031 1.70671e-05
| 19> H 0.0170221544 -3.1791623704 7.36308e-05
| 20> H 2.1401104833 -1.9333433943 2.4703e-05
| 21> H 0.8241144125 2.3926282029 0.0001675985
| 22> H 2.5970968408 1.3817036672 -0.8865906028
| 23> H 2.5974880757 1.3810894855 0.8869056037
| 24> H 3.3482332728 0.058211516 -0.0004680657
| 25> *
| 26> 
| 27>                          ****END OF INPUT****
================================================================================

                       ****************************
                       * Single Point Calculation *
                       ****************************

---------------------------------
CARTESIAN COORDINATES (ANGSTROEM)
---------------------------------
  C     -2.501574    0.743371   -0.000046
  C     -1.218973   -0.028577   -0.000002
  C     -1.191888   -1.412750    0.000007
  C      0.009535   -2.099686    0.000022
  C      1.200789   -1.399375   -0.000001
  C      1.212616   -0.011811   -0.000014
  C     -0.006693    0.667734    0.000018
  O     -0.069991    2.032737    0.000046
  C      2.510355    0.750069   -0.000041
  H     -2.549757    1.387404   -0.876885
  H     -3.357445    0.074021   -0.000105
  H     -2.549846    1.387359    0.876820
  H     -2.124815   -1.957333    0.000017
  H      0.017022   -3.179162    0.000074
  H      2.140110   -1.933343    0.000025
  H      0.824114    2.392628    0.000168
  H      2.597097    1.381704   -0.886591
  H      2.597488    1.381089    0.886906
  H      3.348233    0.058212   -0.000468

----------------------------
CARTESIAN COORDINATES (A.U.)
----------------------------
  NO LB      ZA    FRAG     MASS         X           Y           Z
   0 C     6.0000    0    12.011   -4.727290    1.404768   -0.000087
   1 C     6.0000    0    12.011   -2.303525   -0.054002   -0.000004
   2 C     6.0000    0    12.011   -2.252342   -2.669710    0.000013
   3 C     6.0000    0    12.011    0.018019   -3.967831    0.000041
   4 C     6.0000    0    12.011    2.269162   -2.644436   -0.000002
   5 C     6.0000    0    12.011    2.291513   -0.022320   -0.000026
   6 C     6.0000    0    12.011   -0.012647    1.261835    0.000034
   7 O     8.0000    0    15.999   -0.132263    3.841317    0.000086
   8 C     6.0000    0    12.011    4.743884    1.417425   -0.000078
   9 H     1.0000    0     1.008   -4.818343    2.621813   -1.657072
  10 H     1.0000    0     1.008   -6.344652    0.139880   -0.000199
  11 H     1.0000    0     1.008   -4.818511    2.621728    1.656949
  12 H     1.0000    0     1.008   -4.015318   -3.698823    0.000032
  13 H     1.0000    0     1.008    0.032167   -6.007746    0.000139
  14 H     1.0000    0     1.008    4.044223   -3.653490    0.000047
  15 H     1.0000    0     1.008    1.557351    4.521412    0.000317
  16 H     1.0000    0     1.008    4.907802    2.611042   -1.675413
  17 H     1.0000    0     1.008    4.908541    2.609881    1.676009
  18 H     1.0000    0     1.008    6.327244    0.110004   -0.000885

--------------------------------
INTERNAL COORDINATES (ANGSTROEM)
--------------------------------
 C      0   0   0     0.000000000000     0.00000000     0.00000000
 C      1   0   0     1.496986816756     0.00000000     0.00000000
 C      2   1   0     1.384438011528   122.16310728     0.00000000
 C      3   2   1     1.383943323294   120.88056291   179.99874143
 C      4   3   2     1.381853540092   119.79015347     0.00000000
 C      5   4   3     1.387614853755   120.93866528     0.00000000
 C      6   5   4     1.395885491418   118.64341846     0.00000000
 O      7   6   5     1.366470061200   121.78681811   179.99813115
 C      6   5   4     1.504854553458   120.90482815   180.00012635
 H      1   2   3     1.089011213854   110.05328107   238.99571262
 H      1   2   3     1.086528478897   110.93004557     0.00000000
 H      1   2   3     1.089010463317   110.05336660   121.00004827
 H      3   2   1     1.080242004190   119.15263924     0.00000000
 H      4   3   2     1.079502509898   120.15693191   179.99726036
 H      5   4   3     1.080484673214   119.93316346   179.99913284
 H      8   7   6     0.963818148812   109.27050245     0.00000000
 H      9   6   5     1.091996380296   111.18378138   119.46103966
 H      9   6   5     1.091995519983   111.18344570   240.58598552
 H      9   6   5     1.086603116784   110.03618878     0.02353836

---------------------------
INTERNAL COORDINATES (A.U.)
---------------------------
 C      0   0   0     0.000000000000     0.00000000     0.00000000
 C      1   0   0     2.828895109759     0.00000000     0.00000000
 C      2   1   0     2.616208691179   122.16310728     0.00000000
 C      3   2   1     2.615273865894   120.88056291   179.99874143
 C      4   3   2     2.611324747963   119.79015347     0.00000000
 C      5   4   3     2.622212052958   120.93866528     0.00000000
 C      6   5   4     2.637841293095   118.64341846     0.00000000
 O      7   6   5     2.582254185871   121.78681811   179.99813115
 C      6   5   4     2.843762977420   120.90482815   180.00012635
 H      1   2   3     2.057932950952   110.05328107   238.99571262
 H      1   2   3     2.053241261822   110.93004557     0.00000000
 H      1   2   3     2.057931532643   110.05336660   121.00004827
 H      3   2   1     2.041361546277   119.15263924     0.00000000
 H      4   3   2     2.039964104587   120.15693191   179.99726036
 H      5   4   3     2.041820124274   119.93316346   179.99913284
 H      8   7   6     1.821352344158   109.27050245     0.00000000
 H      9   6   5     2.063574097992   111.18378138   119.46103966
 H      9   6   5     2.063572472236   111.18344570   240.58598552
 H      9   6   5     2.053382306986   110.03618878     0.02353836

---------------------
BASIS SET INFORMATION
---------------------
There are 3 groups of distinct atoms

 Group   1 Type C   : 7s4p1d contracted to 3s2p1d pattern {511/31/1}
 Group   2 Type O   : 7s4p1d contracted to 3s2p1d pattern {511/31/1}
 Group   3 Type H   : 4s contracted to 2s pattern {31}

Atom   0C    basis set group =>   1
Atom   1C    basis set group =>   1
Atom   2C    basis set group =>   1
Atom   3C    basis set group =>   1
Atom   4C    basis set group =>   1
Atom   5C    basis set group =>   1
Atom   6C    basis set group =>   1
Atom   7O    basis set group =>   2
Atom   8C    basis set group =>   1
Atom   9H    basis set group =>   3
Atom  10H    basis set group =>   3
Atom  11H    basis set group =>   3
Atom  12H    basis set group =>   3
Atom  13H    basis set group =>   3
Atom  14H    basis set group =>   3
Atom  15H    basis set group =>   3
Atom  16H    basis set group =>   3
Atom  17H    basis set group =>   3
Atom  18H    basis set group =>   3
---------------------------------
AUXILIARY/J BASIS SET INFORMATION
---------------------------------
There are 3 groups of distinct atoms

 Group   1 Type C   : 12s5p4d2f1g contracted to 6s4p3d1f1g pattern {711111/2111/211/2/1}
 Group   2 Type O   : 12s5p4d2f1g contracted to 6s4p3d1f1g pattern {711111/2111/211/2/1}
 Group   3 Type H   : 5s2p1d contracted to 3s1p1d pattern {311/2/1}

Atom   0C    basis set group =>   1
Atom   1C    basis set group =>   1
Atom   2C    basis set group =>   1
Atom   3C    basis set group =>   1
Atom   4C    basis set group =>   1
Atom   5C    basis set group =>   1
Atom   6C    basis set group =>   1
Atom   7O    basis set group =>   2
Atom   8C    basis set group =>   1
Atom   9H    basis set group =>   3
Atom  10H    basis set group =>   3
Atom  11H    basis set group =>   3
Atom  12H    basis set group =>   3
Atom  13H    basis set group =>   3
Atom  14H    basis set group =>   3
Atom  15H    basis set group =>   3
Atom  16H    basis set group =>   3
Atom  17H    basis set group =>   3
Atom  18H    basis set group =>   3

Checking for AutoStart:
The File: sp.gbw exists
Trying to determine its content:
     ... Fine, the file contains calculation information
     ... Fine, the calculation information was read
     ... Fine, the file contains a basis set
     ... Fine, the basis set was read
     ... Fine, the file contains a geometry
     ... Fine, the geometry was read
     ... Fine, the file contains a set of orbitals
     ... Fine, the orbitals can be read
     => possible old guess file was deleted
     => GBW file was renamed to GES file
     => GES file is set as startup file
     => Guess is set to MORead
     ... now leaving AutoStart

------------------------------------------------------------------------------
                             ORCA STARTUP CALCULATIONS
                           -- RI-GTO INTEGRALS CHOSEN --
------------------------------------------------------------------------------
------------------------------------------------------------------------------
                   ___                                                        
                  /   \      - P O W E R E D   B Y -                         
                 /     \                                                     
                 |  |  |   _    _      __       _____    __    __             
                 |  |  |  | |  | |    /  \     |  _  \  |  |  /  |          
                  \  \/   | |  | |   /    \    | | | |  |  | /  /          
                 / \  \   | |__| |  /  /\  \   | |_| |  |  |/  /          
                |  |  |   |  __  | /  /__\  \  |    /   |      \           
                |  |  |   | |  | | |   __   |  |    \   |  |\   \          
                \     /   | |  | | |  |  |  |  | |\  \  |  | \   \       
                 \___/    |_|  |_| |__|  |__|  |_| \__\ |__|  \__/        
                                                                              
                      - O R C A' S   B I G   F R I E N D -                    
                                      &                                       
                       - I N T E G R A L  F E E D E R -                       
                                                                              
 v1 FN, 2020, v2 2021, v3 2022-2024                                           
------------------------------------------------------------------------------


----------------------
SHARK INTEGRAL PACKAGE
----------------------

Number of atoms                             ...     19
Number of basis functions                   ...    146
Number of shells                            ...     74
Maximum angular momentum                    ...      2
Integral batch strategy                     ... SHARK/LIBINT Hybrid
RI-J (if used) integral strategy            ... SPLIT-RIJ (Revised 2003 algorithm where possible)
Printlevel                                  ...      1
Contraction scheme used                     ... SEGMENTED contraction
Prescreening option                         ... SCHWARTZ
   Thresh                                   ... 1.000e-09
   Tcut                                     ... 1.000e-10
   Tpresel                                  ... 1.000e-10 
Coulomb Range Separation                    ... NOT USED
Exchange Range Separation                   ... NOT USED
Multipole approximations                    ... NOT USED
Finite Nucleus Model                        ... NOT USED
CABS basis                                  ... NOT available
Auxiliary Coulomb fitting basis             ... AVAILABLE
   # of basis functions in Aux-J            ...    551
   # of shells in Aux-J                     ...    185
   Maximum angular momentum in Aux-J        ...      4
Auxiliary J/K fitting basis                 ... NOT available
Auxiliary Correlation fitting basis         ... NOT available
Auxiliary 'external' fitting basis          ... NOT available

Checking pre-screening integrals            ... done (  0.0 sec) Dimension = 74
Check shell pair data                       ... done (  0.0 sec)
Shell pair information
Shell pair cut-off parameter TPreSel        ...   1.0e-10
Total number of shell pairs                 ...      2775
Shell pairs after pre-screening             ...      2627
Total number of primitive shell pairs       ...     11173
Primitive shell pairs kept                  ...      7369
          la=0 lb=0:   1039 shell pairs
          la=1 lb=0:    820 shell pairs
          la=1 lb=1:    171 shell pairs
          la=2 lb=0:    393 shell pairs
          la=2 lb=1:    160 shell pairs
          la=2 lb=2:     44 shell pairs

Calculating one electron integrals          ... done (  0.0 sec)
Calculating RI/J V-Matrix + Cholesky decomp.... done (  0.0 sec)
Calculating Nuclear repulsion               ... done (  0.0 sec) ENN=    433.699537470253 Eh

Diagonalization of the overlap matrix:
Smallest eigenvalue                        ... 2.078e-04
Time for diagonalization                   ...    0.001 sec
Threshold for overlap eigenvalues          ... 1.000e-07
Number of eigenvalues below threshold      ... 0
Time for construction of square roots      ...    0.000 sec
Total time needed                          ...    0.003 sec

-------------------
DFT GRID GENERATION
-------------------

General Integration Accuracy     IntAcc      ... 4.159
Radial Grid Type                 RadialGrid  ... OptM3 with GC (2021)
Angular Grid (max. ang.)         AngularGrid ... 3 (Lebedev-194)
Angular grid pruning method      GridPruning ... 4 (adaptive)
Weight generation scheme         WeightScheme... mBecke (2022)
Basis function cutoff            BFCut       ... 1.0000e-10
Integration weight cutoff        WCut        ... 1.0000e-14
Partially contracted basis set               ... off
Rotationally invariant grid construction     ... off
Angular grids for H and He will be reduced by one unit

Total number of grid points                  ...    43383
Total number of batches                      ...      689
Average number of points per batch           ...       62
Average number of grid points per atom       ...     2283
Initializing property integral containers    ... done (  0.0 sec)

SHARK setup successfully completed in   0.3 seconds

Maximum memory used throughout the entire STARTUP-calculation: 21.7 MB
-------------------------------------------------------------------------------
                                 ORCA GUESS
                   Start orbitals & Density for SCF / CASSCF
-------------------------------------------------------------------------------

------------
SCF SETTINGS
------------
Hamiltonian:
 Density Functional     Method          .... DFT(GTOs)
 Exchange Functional    Exchange        .... PBE
   PBE kappa parameter   XKappa         ....  0.804000
   PBE mue parameter    XMuePBE         ....  0.219520
 Correlation Functional Correlation     .... PBE
   PBE beta parameter  CBetaPBE         ....  0.066725
 LDA part of GGA corr.  LDAOpt          .... PW91-LDA
 Gradients option       PostSCFGGA      .... off
   NL short-range parameter             ....  6.400000
 RI-approximation to the Coulomb term is turned on
   Number of AuxJ basis functions       .... 551


General Settings:
 Integral files         IntName         .... sp
 Hartree-Fock type      HFTyp           .... RHF
 Total Charge           Charge          ....    0
 Multiplicity           Mult            ....    1
 Number of Electrons    NEL             ....   66
 Basis Dimension        Dim             ....  146
 Nuclear Repulsion      ENuc            ....    433.6995374703 Eh

Convergence Acceleration:
 AO-DIIS                CNVDIIS         .... on
   Start iteration      DIISMaxIt       ....    12
   Startup error        DIISStart       ....  0.200000
   # of expansion vecs  DIISMaxEq       ....     5
   Bias factor          DIISBfac        ....   1.050
   Max. coefficient     DIISMaxC        ....  10.000
 MO-DIIS                CNVKDIIS        .... off
 Trust-Rad. Augm. Hess. CNVTRAH         .... auto
   Auto Start mean grad. ratio tolernc. ....  1.125000
   Auto Start start iteration           ....     1
   Auto Start num. interpolation iter.  ....    10
   Max. Number of Micro iterations      ....    24
   Max. Number of Macro iterations      .... Maxiter - #DIIS iter
   Number of Davidson start vectors     ....     2
   Converg. threshold    (grad. norm)   ....   1.000e-04
   Grad. Scal. Fac. for Micro threshold ....   0.100
   Minimum threshold for Micro iter.    ....   1.000e-02
   NR start threshold (gradient norm)   ....   1.000e-04
   Initial trust radius                 ....   0.400
   Minimum AH scaling param. (alpha)    ....   1.000
   Maximum AH scaling param. (alpha)    .... 1000.000
   Quad. conv. algorithm                .... NR
   White noise on init. David. guess    .... on
   Maximum white noise                  ....   0.010
   Pseudo random numbers                .... off
   Inactive MOs                         .... canonical
   Orbital update algorithm             .... Taylor
   Preconditioner                       .... Diag
   Full preconditioner red. dimension   ....   250
 SOSCF                  CNVSOSCF        .... on
   Start iteration      SOSCFMaxIt      ....   150
   Startup grad/error   SOSCFStart      ....  0.003300
   Hessian update       SOSCFHessUp     .... L-BFGS
 Level Shifting         CNVShift        .... on
   Level shift para.    LevelShift      ....    0.2500
   Turn off err/grad.   ShiftErr        ....    0.0010
 Zerner damping         CNVZerner       .... off
 Static damping         CNVDamp         .... on
   Fraction old density DampFac         ....    0.7000
   Max. Damping (<1)    DampMax         ....    0.9800
   Min. Damping (>=0)   DampMin         ....    0.0000
   Turn off err/grad.   DampErr         ....    0.1000

SCF Procedure:
 Maximum # iterations   MaxIter         ....   125
 SCF integral mode      SCFMode         .... Direct
   Integral package                     .... SHARK and LIBINT hybrid scheme
 Reset frequency        DirectResetFreq ....    20
 Integral Threshold     Thresh          ....  1.000e-09 Eh
 Primitive CutOff       TCut            ....  1.000e-10 Eh

Convergence Tolerance:
 Convergence Check Mode ConvCheckMode   .... Total+1el-Energy
 Convergence forced     ConvForced      .... 0
 Energy Change          TolE            ....  1.000e-05 Eh
 1-El. energy change                    ....  1.000e-02 Eh
 Orbital Gradient       TolG            ....  1.000e-04
 Orbital Rotation angle TolX            ....  1.000e-04
 DIIS Error             TolErr          ....  5.000e-04

---------------------
INITIAL GUESS: MOREAD
---------------------
Guess MOs are being read from file: sp.ges
Input Geometry matches current geometry (good)
Input basis set matches current basis set (good)
Occupation numbers will be reassigned to an Aufbau configuration
MOs were renormalized
MOs were reorthogonalized (Cholesky)
                      ------------------
                      INITIAL GUESS DONE (   0.0 sec)
                      ------------------
             **** ENERGY FILE WAS UPDATED (sp.en.tmp) ****
Finished Guess after   0.0 sec
Maximum memory used throughout the entire GUESS-calculation: 10.9 MB

-------------------------------------------------------------------------------------------
                                      ORCA LEAN-SCF
                              memory conserving SCF solver
-------------------------------------------------------------------------------------------

----------------------------------------D-I-I-S--------------------------------------------
Iteration    Energy (Eh)           Delta-E    RMSDP     MaxDP     DIISErr   Damp  Time(sec)
-------------------------------------------------------------------------------------------
               ***  Starting incremental Fock matrix formation  ***
                              *** Initializing SOSCF ***
---------------------------------------S-O-S-C-F--------------------------------------
Iteration    Energy (Eh)           Delta-E    RMSDP     MaxDP     MaxGrad    Time(sec)
--------------------------------------------------------------------------------------
    1    -385.3008125509383035     0.00e+00  1.89e-05  3.30e-04  8.99e-05     0.3
               *** Restarting incremental Fock matrix formation ***
    2    -385.3008127325775831    -1.82e-07  1.98e-05  4.16e-04  6.41e-05     0.3
    3    -385.3008123438679604     3.89e-07  1.28e-05  3.10e-04  2.08e-04     0.3
                 **** Energy Check signals convergence ****

               *****************************************************
               *                     SUCCESS                       *
               *           SCF CONVERGED AFTER   3 CYCLES          *
               *****************************************************

             **** ENERGY FILE WAS UPDATED (sp.en.tmp) ****

----------------
TOTAL SCF ENERGY
----------------

Total Energy       :       -385.30081234386796 Eh          -10484.56813 eV

Components:
Nuclear Repulsion  :        433.69953747025272 Eh           11801.56439 eV
Electronic Energy  :       -819.00034981412068 Eh          -22286.13252 eV
One Electron Energy:      -1380.91898608624388 Eh          -37576.71597 eV
Two Electron Energy:        561.91863627212319 Eh           15290.58345 eV

Virial components:
Potential Energy   :       -767.33433398248542 Eh          -20880.22876 eV
Kinetic Energy     :        382.03352163861746 Eh           10395.66063 eV
Virial Ratio       :          2.00855236653380

DFT components:
N(Alpha)           :       33.000201564877 electrons
N(Beta)            :       33.000201564877 electrons
N(Total)           :       66.000403129754 electrons
E(X)               :      -53.050625272229 Eh       
E(C)               :       -2.201798785646 Eh       
E(XC)              :      -55.252424057875 Eh       

---------------
SCF CONVERGENCE
---------------

  Last Energy change         ...   -3.8871e-07  Tolerance :   1.0000e-05
  Last MAX-Density change    ...    3.1008e-04  Tolerance :   1.0000e-03
  Last RMS-Density change    ...    1.2784e-05  Tolerance :   1.0000e-04
  Last DIIS Error            ...    1.7817e-04  Tolerance :   5.0000e-04
  Last Orbital Gradient      ...    2.0814e-04  Tolerance :   1.0000e-04
  Last Orbital Rotation      ...    3.2008e-04  Tolerance :   1.0000e-04


----------------
ORBITAL ENERGIES
----------------

  NO   OCC          E(Eh)            E(eV) 
   0   2.0000     -18.784237      -511.1451 
   1   2.0000      -9.942993      -270.5626 
   2   2.0000      -9.896776      -269.3050 
   3   2.0000      -9.896179      -269.2887 
   4   2.0000      -9.890928      -269.1458 
   5   2.0000      -9.882814      -268.9250 
   6   2.0000      -9.880657      -268.8663 
   7   2.0000      -9.876131      -268.7432 
   8   2.0000      -9.874477      -268.6982 
   9   2.0000      -0.964006       -26.2319 
  10   2.0000      -0.769862       -20.9490 
  11   2.0000      -0.707174       -19.2432 
  12   2.0000      -0.672460       -18.2986 
  13   2.0000      -0.624397       -16.9907 
  14   2.0000      -0.603806       -16.4304 
  15   2.0000      -0.546596       -14.8736 
  16   2.0000      -0.516070       -14.0430 
  17   2.0000      -0.483774       -13.1641 
  18   2.0000      -0.434686       -11.8284 
  19   2.0000      -0.413044       -11.2395 
  20   2.0000      -0.395949       -10.7743 
  21   2.0000      -0.373193       -10.1551 
  22   2.0000      -0.370549       -10.0831 
  23   2.0000      -0.363010        -9.8780 
  24   2.0000      -0.356975        -9.7138 
  25   2.0000      -0.338003        -9.1975 
  26   2.0000      -0.330358        -8.9895 
  27   2.0000      -0.328899        -8.9498 
  28   2.0000      -0.299926        -8.1614 
  29   2.0000      -0.290562        -7.9066 
  30   2.0000      -0.285689        -7.7740 
  31   2.0000      -0.211414        -5.7529 
  32   2.0000      -0.187427        -5.1002 
  33   0.0000      -0.022235        -0.6051 
  34   0.0000      -0.014135        -0.3846 
  35   0.0000       0.017588         0.4786 
  36   0.0000       0.053905         1.4668 
  37   0.0000       0.069798         1.8993 
  38   0.0000       0.089369         2.4319 
  39   0.0000       0.094449         2.5701 
  40   0.0000       0.094465         2.5705 
  41   0.0000       0.108554         2.9539 
  42   0.0000       0.121153         3.2968 
  43   0.0000       0.135202         3.6790 
*Only the first 10 virtual orbitals were printed.

                    ********************************
                    * MULLIKEN POPULATION ANALYSIS *
                    ********************************

-----------------------
MULLIKEN ATOMIC CHARGES
-----------------------
   0 C :   -0.204285
   1 C :   -0.019885
   2 C :   -0.144428
   3 C :   -0.033022
   4 C :   -0.147658
   5 C :    0.022720
   6 C :    0.072457
   7 O :   -0.333841
   8 C :   -0.293792
   9 H :    0.113748
  10 H :    0.092527
  11 H :    0.113747
  12 H :    0.031542
  13 H :    0.039915
  14 H :    0.029243
  15 H :    0.310217
  16 H :    0.119154
  17 H :    0.119174
  18 H :    0.112466
Sum of atomic charges:    0.0000000

--------------------------------
MULLIKEN REDUCED ORBITAL CHARGES
--------------------------------
  0 C s       :     3.014753  s :     3.014753
      pz      :     1.077987  p :     3.160600
      px      :     1.030735
      py      :     1.051877
      dz2     :     0.005088  d :     0.028932
      dxz     :     0.002562
      dyz     :     0.009197
      dx2y2   :     0.004342
      dxy     :     0.007743

  1 C s       :     3.047011  s :     3.047011
      pz      :     1.016435  p :     2.932755
      px      :     1.010288
      py      :     0.906033
      dz2     :     0.002760  d :     0.040119
      dxz     :     0.006072
      dyz     :     0.006960
      dx2y2   :     0.011243
      dxy     :     0.013084

  2 C s       :     3.283298  s :     3.283298
      pz      :     1.013090  p :     2.825744
      px      :     0.816343
      py      :     0.996311
      dz2     :     0.003159  d :     0.035386
      dxz     :     0.003236
      dyz     :     0.005991
      dx2y2   :     0.010541
      dxy     :     0.012460

  3 C s       :     3.179215  s :     3.179215
      pz      :     1.024231  p :     2.818795
      px      :     0.978560
      py      :     0.816004
      dz2     :     0.003125  d :     0.035011
      dxz     :     0.006824
      dyz     :     0.001973
      dx2y2   :     0.013959
      dxy     :     0.009130

  4 C s       :     3.281316  s :     3.281316
      pz      :     1.018099  p :     2.830852
      px      :     0.817482
      py      :     0.995271
      dz2     :     0.003179  d :     0.035491
      dxz     :     0.003176
      dyz     :     0.006222
      dx2y2   :     0.010742
      dxy     :     0.012171

  5 C s       :     3.008770  s :     3.008770
      pz      :     1.051149  p :     2.928570
      px      :     0.998057
      py      :     0.879363
      dz2     :     0.002809  d :     0.039940
      dxz     :     0.005868
      dyz     :     0.006863
      dx2y2   :     0.011322
      dxy     :     0.013077

  6 C s       :     3.051081  s :     3.051081
      pz      :     1.005474  p :     2.806250
      px      :     1.028512
      py      :     0.772264
      dz2     :     0.005018  d :     0.070212
      dxz     :     0.006672
      dyz     :     0.016237
      dx2y2   :     0.023334
      dxy     :     0.018952

  7 O s       :     3.753800  s :     3.753800
      pz      :     1.822278  p :     4.563634
      px      :     1.422910
      py      :     1.318446
      dz2     :     0.002752  d :     0.016407
      dxz     :     0.000784
      dyz     :     0.002309
      dx2y2   :     0.006593
      dxy     :     0.003969

  8 C s       :     3.057031  s :     3.057031
      pz      :     1.052947  p :     3.207579
      px      :     1.074628
      py      :     1.080004
      dz2     :     0.004880  d :     0.029182
      dxz     :     0.002954
      dyz     :     0.009578
      dx2y2   :     0.004365
      dxy     :     0.007404

  9 H s       :     0.886252  s :     0.886252

 10 H s       :     0.907473  s :     0.907473

 11 H s       :     0.886253  s :     0.886253

 12 H s       :     0.968458  s :     0.968458

 13 H s       :     0.960085  s :     0.960085

 14 H s       :     0.970757  s :     0.970757

 15 H s       :     0.689783  s :     0.689783

 16 H s       :     0.880846  s :     0.880846

 17 H s       :     0.880826  s :     0.880826

 18 H s       :     0.887534  s :     0.887534


------------------------
MULLIKEN OVERLAP CHARGES
------------------------
B(  0-C ,  1-C ) :   0.7749 B(  0-C ,  2-C ) :  -0.1960 B(  0-C ,  6-C ) :  -0.1837 
B(  0-C ,  9-H ) :   0.7163 B(  0-C , 10-H ) :   0.7044 B(  0-C , 11-H ) :   0.7163 
B(  0-C , 12-H ) :  -0.0545 B(  1-C ,  2-C ) :   0.5820 B(  1-C ,  3-C ) :   0.3371 
B(  1-C ,  4-C ) :  -0.3511 B(  1-C ,  6-C ) :   0.2812 B(  1-C ,  7-O ) :  -0.2240 
B(  1-C , 12-H ) :  -0.1726 B(  2-C ,  3-C ) :   0.2822 B(  2-C ,  4-C ) :   0.3294 
B(  2-C ,  5-C ) :  -0.3733 B(  2-C ,  6-C ) :   0.2427 B(  2-C , 12-H ) :   0.8856 
B(  2-C , 13-H ) :  -0.1920 B(  3-C ,  4-C ) :   0.3124 B(  3-C ,  5-C ) :   0.3305 
B(  3-C ,  6-C ) :  -0.4067 B(  3-C , 12-H ) :  -0.1944 B(  3-C , 13-H ) :   0.8947 
B(  3-C , 14-H ) :  -0.1830 B(  4-C ,  5-C ) :   0.4709 B(  4-C ,  6-C ) :   0.3197 
B(  4-C ,  8-C ) :  -0.1645 B(  4-C , 13-H ) :  -0.1924 B(  4-C , 14-H ) :   0.8737 
B(  5-C ,  6-C ) :   0.1617 B(  5-C ,  7-O ) :  -0.2167 B(  5-C ,  8-C ) :   0.7500 
B(  5-C , 14-H ) :  -0.1674 B(  5-C , 15-H ) :  -0.0611 B(  6-C ,  7-O ) :   0.9506 
B(  6-C ,  8-C ) :  -0.1960 B(  7-O , 15-H ) :   0.5453 B(  8-C , 14-H ) :  -0.0550 
B(  8-C , 16-H ) :   0.7095 B(  8-C , 17-H ) :   0.7095 B(  8-C , 18-H ) :   0.6883 
B(  9-H , 11-H ) :  -0.0500 B( 16-H , 17-H ) :  -0.0797 


                     *******************************
                     * LOEWDIN POPULATION ANALYSIS *
                     *******************************

----------------------
LOEWDIN ATOMIC CHARGES
----------------------
   0 C :   -0.318844
   1 C :   -0.070719
   2 C :   -0.124651
   3 C :   -0.145457
   4 C :   -0.128004
   5 C :   -0.093848
   6 C :    0.025844
   7 O :   -0.234182
   8 C :   -0.336200
   9 H :    0.131708
  10 H :    0.121442
  11 H :    0.131708
  12 H :    0.120535
  13 H :    0.120608
  14 H :    0.119130
  15 H :    0.294190
  16 H :    0.126238
  17 H :    0.126251
  18 H :    0.134248

-------------------------------
LOEWDIN REDUCED ORBITAL CHARGES
-------------------------------
  0 C s       :     2.932656  s :     2.932656
      pz      :     1.129642  p :     3.314666
      px      :     1.074985
      py      :     1.110040
      dz2     :     0.013194  d :     0.071522
      dxz     :     0.005044
      dyz     :     0.022263
      dx2y2   :     0.010515
      dxy     :     0.020505

  1 C s       :     2.849276  s :     2.849276
      pz      :     0.994271  p :     3.114558
      px      :     1.043436
      py      :     1.076850
      dz2     :     0.007383  d :     0.106885
      dxz     :     0.011663
      dyz     :     0.014031
      dx2y2   :     0.034524
      dxy     :     0.039285

  2 C s       :     2.888473  s :     2.888473
      pz      :     1.004852  p :     3.142895
      px      :     1.067927
      py      :     1.070116
      dz2     :     0.007065  d :     0.093282
      dxz     :     0.006354
      dyz     :     0.013145
      dx2y2   :     0.031226
      dxy     :     0.035493

  3 C s       :     2.885897  s :     2.885897
      pz      :     1.017710  p :     3.166785
      px      :     1.089491
      py      :     1.059584
      dz2     :     0.007162  d :     0.092775
      dxz     :     0.015273
      dyz     :     0.003285
      dx2y2   :     0.038388
      dxy     :     0.028666

  4 C s       :     2.888255  s :     2.888255
      pz      :     1.010089  p :     3.146116
      px      :     1.069169
      py      :     1.066858
      dz2     :     0.007091  d :     0.093634
      dxz     :     0.006226
      dyz     :     0.013812
      dx2y2   :     0.031827
      dxy     :     0.034678

  5 C s       :     2.849157  s :     2.849157
      pz      :     1.023673  p :     3.137518
      px      :     1.037234
      py      :     1.076611
      dz2     :     0.007594  d :     0.107173
      dxz     :     0.011296
      dyz     :     0.013928
      dx2y2   :     0.034694
      dxy     :     0.039661

  6 C s       :     2.838500  s :     2.838500
      pz      :     0.996849  p :     2.966510
      px      :     1.093743
      py      :     0.875918
      dz2     :     0.011362  d :     0.169146
      dxz     :     0.013658
      dyz     :     0.033101
      dx2y2   :     0.060512
      dxy     :     0.050513

  7 O s       :     3.505465  s :     3.505465
      pz      :     1.816373  p :     4.699902
      px      :     1.501135
      py      :     1.382394
      dz2     :     0.004433  d :     0.028815
      dxz     :     0.000762
      dyz     :     0.003710
      dx2y2   :     0.012528
      dxy     :     0.007382

  8 C s       :     2.937963  s :     2.937963
      pz      :     1.116354  p :     3.326799
      px      :     1.091324
      py      :     1.119121
      dz2     :     0.012681  d :     0.071437
      dxz     :     0.005839
      dyz     :     0.023110
      dx2y2   :     0.010400
      dxy     :     0.019407

  9 H s       :     0.868292  s :     0.868292

 10 H s       :     0.878558  s :     0.878558

 11 H s       :     0.868292  s :     0.868292

 12 H s       :     0.879465  s :     0.879465

 13 H s       :     0.879392  s :     0.879392

 14 H s       :     0.880870  s :     0.880870

 15 H s       :     0.705810  s :     0.705810

 16 H s       :     0.873762  s :     0.873762

 17 H s       :     0.873749  s :     0.873749

 18 H s       :     0.865752  s :     0.865752


---------------------------------
LOEWDIN BOND ORDERS (THRESH 0.050000)
---------------------------------
B(  0-C ,  1-C ) :   1.0970 B(  0-C ,  2-C ) :   0.0748 B(  0-C ,  6-C ) :   0.0729 
B(  0-C ,  9-H ) :   0.9231 B(  0-C , 10-H ) :   0.9314 B(  0-C , 11-H ) :   0.9231 
B(  1-C ,  2-C ) :   1.4592 B(  1-C ,  3-C ) :   0.0891 B(  1-C ,  4-C ) :   0.1073 
B(  1-C ,  5-C ) :   0.0880 B(  1-C ,  6-C ) :   1.3500 B(  1-C ,  7-O ) :   0.0995 
B(  2-C ,  3-C ) :   1.4885 B(  2-C ,  4-C ) :   0.0881 B(  2-C ,  5-C ) :   0.1035 
B(  2-C ,  6-C ) :   0.0886 B(  2-C , 12-H ) :   0.8830 B(  3-C ,  4-C ) :   1.5036 
B(  3-C ,  5-C ) :   0.0896 B(  3-C ,  6-C ) :   0.1018 B(  3-C , 13-H ) :   0.8873 
B(  4-C ,  5-C ) :   1.4416 B(  4-C ,  6-C ) :   0.0899 B(  4-C ,  8-C ) :   0.0740 
B(  4-C , 14-H ) :   0.8824 B(  5-C ,  6-C ) :   1.3710 B(  5-C ,  7-O ) :   0.1058 
B(  5-C ,  8-C ) :   1.0892 B(  6-C ,  7-O ) :   1.3146 B(  6-C ,  8-C ) :   0.0721 
B(  7-O , 15-H ) :   0.8683 B(  8-C , 16-H ) :   0.9226 B(  8-C , 17-H ) :   0.9226 
B(  8-C , 18-H ) :   0.9242 

------------------------------------------
LOEWDIN REDUCED ORBITAL POPULATIONS PER MO
-------------------------------------------
THRESHOLD FOR PRINTING IS 0.1%%
                      0         1         2         3         4         5   
                 -18.78424  -9.94299  -9.89678  -9.89618  -9.89093  -9.88281
                   2.00000   2.00000   2.00000   2.00000   2.00000   2.00000
                  --------  --------  --------  --------  --------  --------
 1 C  s               0.0       0.0       0.0       0.0      99.5       0.0
 1 C  px              0.0       0.1       0.0       0.0       0.0       0.0
 2 C  py              0.0       0.0       0.0       0.0       0.1       0.0
 3 C  px              0.0       0.0       0.0       0.0       0.0       0.1
 4 C  s               0.0       0.0       0.0       0.0       0.0      99.5
 4 C  py              0.0       0.0       0.0       0.1       0.0       0.0
 5 C  s               0.0       0.0       0.1      99.4       0.0       0.0
 5 C  px              0.0       0.1       0.1       0.0       0.0       0.0
 5 C  py              0.0       0.0       0.0       0.0       0.0       0.1
 6 C  s               0.0      99.5       0.0       0.0       0.0       0.0
 6 C  px              0.0       0.0       0.0       0.1       0.1       0.0
 7 O  s              99.9       0.0       0.0       0.0       0.0       0.0
 7 O  py              0.0       0.1       0.0       0.0       0.0       0.0
 8 C  s               0.0       0.0      99.7       0.1       0.0       0.0

                      6         7         8         9        10        11   
                  -9.88066  -9.87613  -9.87448  -0.96401  -0.76986  -0.70717
                   2.00000   2.00000   2.00000   2.00000   2.00000   2.00000
                  --------  --------  --------  --------  --------  --------
 0 C  s               0.0       0.0      99.7       0.1       2.0       8.4
 0 C  px              0.0       0.0       0.0       0.2       0.8       1.0
 0 C  py              0.0       0.0       0.0       0.0       0.3       0.4
 1 C  s               0.0       0.0       0.0       0.8      11.9      12.5
 1 C  px              0.0       0.0       0.1       0.7       1.0       1.1
 1 C  py              0.1       0.0       0.0       0.7       0.6       0.0
 1 C  dz2             0.0       0.0       0.0       0.0       0.2       0.1
 2 C  s              99.5       0.1       0.0       0.1      10.7       6.0
 2 C  px              0.0       0.1       0.0       0.0       1.6       0.2
 2 C  py              0.0       0.0       0.0       0.1       0.8       1.7
 2 C  dz2             0.0       0.0       0.0       0.0       0.1       0.1
 3 C  s               0.1      99.4       0.0       0.0      10.0       0.1
 3 C  px              0.1       0.0       0.0       0.0       0.0       2.7
 3 C  py              0.0       0.0       0.0       0.0       2.5       0.0
 3 C  dz2             0.0       0.0       0.0       0.0       0.1       0.0
 4 C  s               0.0       0.1       0.0       0.1      11.5       4.8
 4 C  px              0.0       0.1       0.0       0.0       1.5       0.5
 4 C  py              0.0       0.0       0.0       0.1       0.9       2.0
 4 C  dz2             0.0       0.0       0.0       0.0       0.1       0.0
 5 C  s               0.0       0.0       0.0       1.0      12.9      12.7
 5 C  px              0.0       0.0       0.0       0.7       0.8       2.9
 5 C  py              0.0       0.0       0.0       0.8       0.7       0.0
 5 C  dz2             0.0       0.0       0.0       0.0       0.2       0.1
 6 C  s               0.0       0.0       0.0      10.5       7.8       0.1
 6 C  px              0.0       0.0       0.0       0.0       0.0      10.3
 6 C  py              0.0       0.0       0.0       9.3       6.4       0.0
 6 C  dz2             0.0       0.0       0.0       0.4       0.1       0.0
 6 C  dx2y2           0.0       0.0       0.0       0.7       0.1       0.0
 6 C  dxy             0.0       0.0       0.0       0.0       0.0       0.1
 7 O  s               0.0       0.0       0.0      57.8       2.2       0.1
 7 O  px              0.0       0.0       0.0       2.1       0.3       0.6
 7 O  py              0.0       0.0       0.0       1.4       0.8       0.1
 8 C  s               0.0       0.0       0.0       0.1       2.6      14.0
 8 C  px              0.0       0.0       0.0       0.2       0.8       1.0
 8 C  py              0.0       0.0       0.0       0.0       0.4       0.3
 9 H  s               0.0       0.0       0.1       0.0       0.3       1.6
10 H  s               0.0       0.0       0.1       0.0       0.4       1.6
11 H  s               0.0       0.0       0.1       0.0       0.3       1.6
12 H  s               0.1       0.0       0.0       0.0       1.4       1.2
13 H  s               0.0       0.1       0.0       0.0       1.3       0.0
14 H  s               0.0       0.0       0.0       0.0       1.5       1.1
15 H  s               0.0       0.0       0.0      11.8       0.7       0.2
16 H  s               0.0       0.0       0.0       0.0       0.4       2.8
17 H  s               0.0       0.0       0.0       0.0       0.4       2.8
18 H  s               0.0       0.0       0.0       0.0       0.5       2.9

                     12        13        14        15        16        17   
                  -0.67246  -0.62440  -0.60381  -0.54660  -0.51607  -0.48377
                   2.00000   2.00000   2.00000   2.00000   2.00000   2.00000
                  --------  --------  --------  --------  --------  --------
 0 C  s               7.5       6.0      16.9       0.1       4.7       0.1
 0 C  px              0.4       0.1       0.4       0.3       4.1       0.2
 0 C  py              0.0       0.1       0.5       0.7       1.0       0.3
 1 C  s               4.2       0.1       0.7       0.3       6.3       1.3
 1 C  px              0.2       8.7       5.1       0.8       0.6       3.6
 1 C  py              4.9       2.2       6.5       5.9       0.2       1.8
 1 C  dx2y2           0.1       0.1       0.1       0.0       0.1       0.2
 1 C  dxy             0.0       0.2       0.1       0.1       0.1       0.0
 2 C  s               4.1       5.6       9.0       0.9       0.1       5.6
 2 C  px              2.9       0.2       0.1       1.9       0.5       7.8
 2 C  py              3.9       0.3       0.1       3.2       8.9       2.1
 2 C  dx2y2           0.1       0.0       0.0       0.1       0.1       0.0
 3 C  s              17.9       1.9       0.2       6.7       3.4       1.6
 3 C  px              0.0       1.7      10.4       0.4       3.2       3.1
 3 C  py              0.3       0.1       0.0       2.2       1.5       0.0
 3 C  dz2             0.2       0.0       0.0       0.0       0.0       0.0
 3 C  dxy             0.0       0.0       0.3       0.0       0.0       0.0
 4 C  s               6.1       0.3      13.0       0.0       4.2       0.6
 4 C  px              2.7       0.0       0.4       0.5       3.8       7.3
 4 C  py              3.4       1.0       0.1       7.2       0.0       2.9
 4 C  dx2y2           0.1       0.0       0.0       0.1       0.0       0.0
 5 C  s               2.3       1.3       0.3       4.0       2.1       1.8
 5 C  px              0.2      10.7       0.1       0.9       3.8       4.2
 5 C  py              5.1       0.3       7.2       0.8       8.9       1.4
 5 C  dx2y2           0.1       0.0       0.2       0.0       0.0       0.1
 5 C  dxy             0.0       0.3       0.0       0.0       0.1       0.1
 6 C  s               4.5      10.5       1.2       1.4       1.1       0.2
 6 C  px              0.1       0.0       0.0       5.6      15.2       0.6
 6 C  py              0.4       0.9       0.3       6.0       0.0       9.0
 6 C  dx2y2           0.2       0.0       0.0       0.1       0.1       0.3
 6 C  dxy             0.0       0.1       0.1       0.0       0.2       0.2
 7 O  s               1.7       0.7       0.2       0.0       1.3       0.3
 7 O  px              0.7       1.4       0.0      10.5       1.3       5.5
 7 O  py              2.1       5.6       0.4      16.0       1.6      10.8
 7 O  dx2y2           0.0       0.1       0.0       0.3       0.0       0.1
 8 C  s               7.3      14.8       2.3       3.6       0.7       0.7
 8 C  px              0.2       0.7       0.0       2.3       3.7       1.1
 8 C  py              0.0       0.3       0.6       0.4       0.4       5.5
 9 H  s               1.6       1.3       4.9       0.0       2.2       0.1
10 H  s               1.4       2.1       4.3       0.3       2.7       0.1
11 H  s               1.6       1.3       4.9       0.0       2.2       0.1
12 H  s               0.7       2.1       2.1       0.4       0.3       8.7
13 H  s               3.5       0.6       0.1       3.9       2.4       0.5
14 H  s               1.0       0.0       4.3       0.1       4.1       1.5
15 H  s               1.1       2.5       0.0       7.2       0.1       5.1
16 H  s               1.6       4.5       0.9       1.4       0.2       1.7
17 H  s               1.6       4.5       0.9       1.4       0.2       1.7
18 H  s               1.4       4.3       0.4       1.8       2.1       0.0

                     18        19        20        21        22        23   
                  -0.43469  -0.41304  -0.39595  -0.37319  -0.37055  -0.36301
                   2.00000   2.00000   2.00000   2.00000   2.00000   2.00000
                  --------  --------  --------  --------  --------  --------
 0 C  s               0.3       0.1       0.0       0.0       0.0       0.0
 0 C  pz              0.0       0.0       4.2       0.0      30.1       0.0
 0 C  px              0.5       6.4       0.0       4.5       0.0       7.4
 0 C  py              6.7       0.4       0.0       3.6       0.0       5.4
 0 C  dyz             0.0       0.0       0.0       0.0       0.3       0.0
 1 C  s               1.6       1.4       0.0       1.4       0.0       0.0
 1 C  pz              0.0       0.0       4.7       0.0      11.1       0.0
 1 C  px              3.5       0.4       0.0       6.3       0.0       0.3
 1 C  py              1.1       8.5       0.0       0.4       0.0       2.2
 1 C  dx2y2           0.0       0.1       0.0       0.1       0.0       0.1
 1 C  dxy             0.0       0.0       0.0       0.3       0.0       0.0
 2 C  s               0.1       0.2       0.0       0.6       0.0       0.5
 2 C  pz              0.0       0.0       1.2       0.0       2.1       0.0
 2 C  px              8.4       0.3       0.0       5.1       0.0       0.5
 2 C  py              3.2       5.3       0.0       5.6       0.0       2.3
 2 C  dx2y2           0.1       0.1       0.0       0.0       0.0       0.1
 2 C  dxy             0.0       0.0       0.0       0.5       0.0       0.0
 3 C  s               0.1       0.6       0.0       1.8       0.0       0.3
 3 C  pz              0.0       0.0       0.9       0.0       0.4       0.0
 3 C  px              9.5       3.4       0.0       0.4       0.0       0.1
 3 C  py              5.9      19.2       0.0       0.3       0.0       3.0
 3 C  dx2y2           0.0       0.1       0.0       0.2       0.0       0.2
 4 C  s               0.9       0.9       0.0       0.8       0.0       1.1
 4 C  pz              0.0       0.0       2.4       0.0       0.0       0.0
 4 C  px              1.7       6.4       0.0       6.4       0.0       0.0
 4 C  py             15.3       0.3       0.0       0.7       0.0       0.0
 4 C  dx2y2           0.0       0.2       0.0       0.0       0.0       0.0
 4 C  dxy             0.0       0.0       0.0       0.6       0.0       0.0
 5 C  s               0.2       1.4       0.0       1.5       0.0       0.0
 5 C  pz              0.0       0.0      12.6       0.0       0.4       0.0
 5 C  px              0.3       2.5       0.0       9.6       0.0       0.2
 5 C  py              7.6       0.1       0.0       1.0       0.0       0.1
 5 C  dxz             0.0       0.0       0.0       0.0       0.1       0.0
 5 C  dx2y2           0.0       0.1       0.0       0.0       0.0       0.4
 5 C  dxy             0.1       0.0       0.0       0.5       0.0       0.2
 6 C  s               0.5       0.2       0.0       3.1       0.0       0.6
 6 C  pz              0.0       0.0      11.2       0.0       4.4       0.0
 6 C  px              3.2       2.7       0.0       0.0       0.0       0.6
 6 C  py              0.4       3.3       0.0       2.8       0.0       0.2
 6 C  dx2y2           0.1       0.6       0.0       0.0       0.0       0.1
 7 O  s               2.0       0.0       0.0       0.3       0.0       0.0
 7 O  pz              0.0       0.0       7.6       0.0       4.3       0.0
 7 O  px              5.4       0.3       0.0       1.3       0.0       1.3
 7 O  py              2.3       7.7       0.0       0.2       0.0       0.3
 8 C  s               0.1       0.1       0.0       0.1       0.0       0.0
 8 C  pz              0.0       0.0      31.8       0.0      16.2       0.0
 8 C  px              2.4       2.3       0.0      13.5       0.0      11.3
 8 C  py              2.5       5.1       0.0       3.1       0.0      22.7
 8 C  dz2             0.0       0.1       0.0       0.0       0.0       0.2
 8 C  dyz             0.0       0.0       0.3       0.0       0.2       0.0
 8 C  dxy             0.0       0.0       0.0       0.2       0.0       0.3
 9 H  s               1.6       0.0       1.2       0.9       9.4       0.6
10 H  s               0.1       2.9       0.0       0.4       0.0       6.4
11 H  s               1.6       0.0       1.2       0.9       9.4       0.6
12 H  s               0.6       0.5       0.0       8.8       0.0       1.9
13 H  s               2.2      10.9       0.0       0.3       0.0       2.8
14 H  s               5.5       0.5       0.0       7.2       0.0       0.2
15 H  s               0.2       1.3       0.0       0.4       0.0       0.4
16 H  s               0.1       1.3      10.3       0.9       5.7       3.4
17 H  s               0.1       1.3      10.3       0.9       5.7       3.4
18 H  s               1.7       0.0       0.0       2.0       0.0      18.0

                     24        25        26        27        28        29   
                  -0.35698  -0.33800  -0.33036  -0.32890  -0.29993  -0.29056
                   2.00000   2.00000   2.00000   2.00000   2.00000   2.00000
                  --------  --------  --------  --------  --------  --------
 0 C  s               0.1       0.2       0.0       0.0       0.0       0.0
 0 C  pz              0.0       0.0      19.2       0.0       0.0       1.0
 0 C  px              2.2      13.9       0.0       4.2       0.4       0.0
 0 C  py              8.5       0.1       0.0      18.0       5.5       0.0
 0 C  dz2             0.1       0.0       0.0       0.2       0.1       0.0
 0 C  dyz             0.0       0.0       0.3       0.0       0.0       0.1
 0 C  dx2y2           0.0       0.0       0.0       0.2       0.2       0.0
 0 C  dxy             0.0       0.3       0.0       0.2       0.1       0.0
 1 C  s               0.0       0.2       0.0       0.1       0.1       0.0
 1 C  pz              0.0       0.0       0.1       0.0       0.0       3.6
 1 C  px              5.4       4.5       0.0       0.3       0.6       0.0
 1 C  py              2.6       4.6       0.0       2.3       9.1       0.0
 1 C  dxz             0.0       0.0       0.3       0.0       0.0       0.0
 1 C  dyz             0.0       0.0       0.0       0.0       0.0       0.2
 1 C  dx2y2           0.2       0.0       0.0       0.2       0.3       0.0
 1 C  dxy             0.0       0.2       0.0       0.0       0.1       0.0
 2 C  s               1.0       0.0       0.0       0.3       0.0       0.0
 2 C  pz              0.0       0.0       0.4       0.0       0.0      17.8
 2 C  px             10.8       0.3       0.0       5.3       0.4       0.0
 2 C  py              1.9       2.4       0.0       1.8       9.1       0.0
 2 C  dxz             0.0       0.0       0.0       0.0       0.0       0.1
 2 C  dx2y2           0.1       0.1       0.0       0.0       0.6       0.0
 2 C  dxy             0.0       0.1       0.0       0.1       0.2       0.0
 3 C  s               0.1       0.1       0.0       0.0       0.2       0.0
 3 C  pz              0.0       0.0       0.9       0.0       0.0      25.1
 3 C  px              2.9       0.5       0.0       7.8       1.0       0.0
 3 C  py              1.8       3.6       0.0       0.1      11.8       0.0
 3 C  dyz             0.0       0.0       0.0       0.0       0.0       0.1
 3 C  dx2y2           0.1       0.1       0.0       0.0       1.0       0.0
 3 C  dxy             0.6       0.0       0.0       0.1       0.0       0.0
 4 C  s               0.1       0.2       0.0       0.1       0.0       0.0
 4 C  pz              0.0       0.0       1.2       0.0       0.0      19.9
 4 C  px             10.6       0.5       0.0       3.7       2.1       0.0
 4 C  py              5.6       0.4       0.0       4.1       8.2       0.0
 4 C  dxz             0.0       0.0       0.0       0.0       0.0       0.1
 4 C  dx2y2           0.4       0.0       0.0       0.0       0.4       0.0
 5 C  s               0.6       0.4       0.0       0.1       0.1       0.0
 5 C  pz              0.0       0.0       2.1       0.0       0.0       4.9
 5 C  px              5.0       0.1       0.0       0.7       1.3       0.0
 5 C  py              5.0       0.7       0.0       4.4       7.2       0.0
 5 C  dxz             0.0       0.0       0.2       0.0       0.0       0.0
 5 C  dyz             0.0       0.0       0.0       0.0       0.0       0.2
 5 C  dx2y2           0.1       0.1       0.0       0.2       0.3       0.0
 5 C  dxy             0.0       0.1       0.0       0.0       0.2       0.0
 6 C  s               0.0       0.1       0.0       0.0       0.5       0.0
 6 C  pz              0.0       0.0      16.2       0.0       0.0       0.2
 6 C  px              0.1       0.4       0.0       3.7       1.6       0.0
 6 C  py              0.2       2.6       0.0       0.3       1.0       0.0
 6 C  dyz             0.0       0.0       0.2       0.0       0.0       0.6
 6 C  dx2y2           0.0       0.0       0.0       0.0       0.6       0.0
 6 C  dxy             0.6       0.2       0.0       0.1       0.0       0.0
 7 O  s               0.8       5.6       0.0       0.8       0.0       0.0
 7 O  pz              0.0       0.0      33.9       0.0       0.0      22.7
 7 O  px              2.9      28.6       0.0       3.8       0.3       0.0
 7 O  py              1.1       9.3       0.0       2.2       3.2       0.0
 8 C  s               0.0       0.1       0.0       0.1       0.3       0.0
 8 C  pz              0.0       0.0       6.1       0.0       0.0       0.6
 8 C  px              4.9       3.6       0.0       0.7       2.6       0.0
 8 C  py              1.6       1.4       0.0       6.3       4.9       0.0
 8 C  dyz             0.0       0.0       0.1       0.0       0.0       0.1
 8 C  dx2y2           0.0       0.0       0.0       0.1       0.1       0.0
 8 C  dxy             0.0       0.1       0.0       0.1       0.0       0.0
 9 H  s               2.0       0.1       6.7       3.5       1.4       0.7
10 H  s               0.2       6.0       0.0      11.0       3.7       0.0
11 H  s               2.0       0.1       6.7       3.5       1.4       0.7
12 H  s               4.9       0.0       0.0       1.9       4.3       0.0
13 H  s               1.5       2.2       0.0       0.1      10.8       0.0
14 H  s               9.4       0.2       0.0       0.4       0.1       0.0
15 H  s               0.2       2.1       0.0       0.6       0.1       0.0
16 H  s               0.6       0.3       2.5       1.2       1.0       0.6
17 H  s               0.6       0.3       2.5       1.2       1.0       0.6
18 H  s               0.2       3.3       0.0       3.5       0.2       0.0

                     30        31        32        33        34        35   
                  -0.28569  -0.21141  -0.18743  -0.02224  -0.01414   0.01759
                   2.00000   2.00000   2.00000   0.00000   0.00000   0.00000
                  --------  --------  --------  --------  --------  --------
 0 C  s               0.3       0.0       0.0       0.0       0.0       1.1
 0 C  pz              0.0       1.4       0.5       0.0       0.2       0.0
 0 C  px              6.7       0.0       0.0       0.0       0.0       0.0
 0 C  py              4.0       0.0       0.0       0.0       0.0       0.1
 0 C  dxz             0.0       0.1       0.1       0.4       0.1       0.0
 0 C  dyz             0.0       0.3       0.2       0.3       0.3       0.0
 1 C  s               0.0       0.0       0.0       0.0       0.0       0.1
 1 C  pz              0.0      16.8      13.5      20.7       6.1       0.0
 1 C  px              8.8       0.0       0.0       0.0       0.0       0.2
 1 C  py              0.1       0.0       0.0       0.0       0.0       0.1
 1 C  dxz             0.0       0.0       0.2       0.0       0.6       0.0
 1 C  dyz             0.0       0.3       0.1       0.6       0.6       0.0
 1 C  dx2y2           0.1       0.0       0.0       0.0       0.0       0.1
 1 C  dxy             0.7       0.0       0.0       0.0       0.0       0.1
 2 C  pz              0.0      27.2       1.5      23.1       7.1       0.0
 2 C  px              6.8       0.0       0.0       0.0       0.0       0.0
 2 C  py              0.6       0.0       0.0       0.0       0.0       0.2
 2 C  dxz             0.0       0.0       0.2       0.0       0.7       0.0
 2 C  dyz             0.0       0.1       0.5       0.6       0.6       0.0
 2 C  dxy             0.6       0.0       0.0       0.0       0.0       0.0
 3 C  pz              0.0       0.3      23.4       0.0      29.0       0.0
 3 C  px              7.1       0.0       0.0       0.0       0.0       0.0
 3 C  py              0.7       0.0       0.0       0.0       0.0       0.0
 3 C  dxz             0.0       0.7       0.0       1.6       0.0       0.0
 3 C  dyz             0.0       0.0       0.0       0.0       0.3       0.0
 3 C  dxy             0.2       0.0       0.0       0.0       0.0       0.0
 4 C  s               0.1       0.0       0.0       0.0       0.0       0.2
 4 C  pz              0.0      22.3       4.7      21.1       9.9       0.0
 4 C  px              5.3       0.0       0.0       0.0       0.0       0.3
 4 C  py              0.9       0.0       0.0       0.0       0.0       0.2
 4 C  dxz             0.0       0.0       0.1       0.0       0.7       0.0
 4 C  dyz             0.0       0.2       0.4       0.7       0.5       0.0
 4 C  dx2y2           0.2       0.0       0.0       0.0       0.0       0.0
 4 C  dxy             0.7       0.0       0.0       0.0       0.0       0.1
 5 C  s               0.1       0.0       0.0       0.0       0.0       0.1
 5 C  pz              0.0      21.2      10.0      22.6       3.6       0.0
 5 C  px              7.6       0.0       0.0       0.0       0.0       0.2
 5 C  py              2.2       0.0       0.0       0.0       0.0       0.0
 5 C  dxz             0.0       0.0       0.2       0.0       0.7       0.0
 5 C  dyz             0.0       0.2       0.2       0.5       0.8       0.0
 5 C  dxy             0.5       0.0       0.0       0.0       0.0       0.1
 6 C  s               0.0       0.0       0.0       0.0       0.0       0.4
 6 C  pz              0.0       0.1      17.8       0.2      28.1       0.0
 6 C  px             10.3       0.0       0.0       0.0       0.0       0.1
 6 C  py              0.5       0.0       0.0       0.0       0.0       1.3
 6 C  dz2             0.0       0.0       0.0       0.0       0.0       0.2
 6 C  dxz             0.0       0.6       0.0       1.6       0.0       0.0
 6 C  dyz             0.0       0.0       0.8       0.0       0.0       0.0
 6 C  dx2y2           0.1       0.0       0.0       0.0       0.0       0.3
 6 C  dxy             0.8       0.0       0.0       0.0       0.0       0.2
 7 O  s               1.6       0.0       0.0       0.0       0.0       6.7
 7 O  pz              0.0       0.1      22.2       0.0       6.4       0.0
 7 O  px              8.9       0.0       0.0       0.0       0.0       6.1
 7 O  py              3.9       0.0       0.0       0.0       0.0       0.4
 7 O  dyz             0.0       0.0       0.1       0.0       0.2       0.0
 8 C  s               0.2       0.0       0.0       0.0       0.0      11.9
 8 C  pz              0.0       0.9       0.2       0.1       0.4       0.0
 8 C  px              3.2       0.0       0.0       0.0       0.0       0.8
 8 C  py              0.5       0.0       0.0       0.0       0.0       1.7
 8 C  dxz             0.0       0.2       0.1       0.4       0.0       0.0
 8 C  dyz             0.0       0.3       0.1       0.4       0.2       0.0
 8 C  dxy             0.1       0.0       0.0       0.0       0.0       0.2
 9 H  s               0.5       1.6       0.9       1.1       0.8       0.7
10 H  s               0.4       0.0       0.0       0.0       0.0       0.5
11 H  s               0.5       1.6       0.9       1.1       0.8       0.7
12 H  s               4.0       0.0       0.0       0.0       0.0       0.1
13 H  s               0.7       0.0       0.0       0.0       0.0       0.0
14 H  s               6.9       0.0       0.0       0.0       0.0       1.0
15 H  s               1.2       0.0       0.0       0.0       0.0      37.1
16 H  s               0.0       1.6       0.6       1.4       0.7       9.8
17 H  s               0.0       1.6       0.6       1.4       0.7       9.8
18 H  s               0.8       0.0       0.0       0.0       0.0       6.6

                     36        37        38        39        40        41   
                   0.05390   0.06980   0.08937   0.09445   0.09447   0.10855
                   0.00000   0.00000   0.00000   0.00000   0.00000   0.00000
                  --------  --------  --------  --------  --------  --------
 0 C  s               0.0      18.1       0.6       1.2       3.4       0.4
 0 C  pz              0.0       0.0       0.0       1.1       0.4       0.0
 0 C  px              2.1       3.3       1.1       0.1       0.2       1.8
 0 C  py              0.1       0.5       0.5       0.3       0.8       9.8
 0 C  dz2             0.0       0.0       0.0       0.0       0.0       0.5
 0 C  dyz             0.0       0.0       0.0       0.2       0.1       0.0
 0 C  dxy             0.1       0.0       0.1       0.0       0.1       0.2
 1 C  s               0.4       0.1       0.1       0.1       0.2       0.6
 1 C  pz              0.0       0.0       0.0       3.3       1.2       0.0
 1 C  px              0.5       0.5       0.3       0.0       0.0       0.3
 1 C  py              0.0       0.0       0.1       0.1       0.3       0.5
 1 C  dz2             0.0       0.2       0.0       0.1       0.2       0.0
 1 C  dxz             0.0       0.0       0.0       0.1       0.0       0.0
 1 C  dyz             0.0       0.0       0.0       0.2       0.1       0.0
 1 C  dx2y2           0.0       0.0       0.0       0.0       0.0       0.7
 1 C  dxy             0.7       0.0       0.6       0.1       0.2       0.2
 2 C  s               2.6       1.1       1.1       0.0       0.1       0.1
 2 C  pz              0.0       0.0       0.0       5.3       1.9       0.0
 2 C  px              2.4       1.7       2.5       0.2       0.7       0.4
 2 C  py              1.3       0.4       0.5       0.2       0.5       1.4
 2 C  dxz             0.0       0.0       0.0       0.2       0.1       0.0
 2 C  dx2y2           0.3       0.0       0.0       0.0       0.0       0.0
 2 C  dxy             0.5       0.1       0.2       0.0       0.1       0.0
 3 C  s               3.1       0.1       0.2       0.4       1.1       2.7
 3 C  pz              0.0       0.0       0.0       6.3       2.2       0.0
 3 C  px              0.0       0.3       0.2       0.0       0.1       0.0
 3 C  py              4.9       0.0       0.3       0.3       0.9       3.0
 3 C  dyz             0.0       0.0       0.0       0.2       0.1       0.0
 3 C  dx2y2           1.3       0.0       0.0       0.0       0.0       0.0
 3 C  dxy             0.0       0.0       0.1       0.0       0.0       0.0
 4 C  s               2.9       0.7       0.1       0.2       0.7       0.8
 4 C  pz              0.0       0.0       0.0       3.8       1.3       0.0
 4 C  px              3.6       1.3       0.9       0.2       0.7       1.2
 4 C  py              1.9       0.1       1.5       0.0       0.1       0.3
 4 C  dxz             0.0       0.0       0.0       0.1       0.0       0.0
 4 C  dx2y2           0.4       0.0       0.0       0.0       0.0       0.0
 4 C  dxy             0.5       0.0       0.0       0.0       0.1       0.3
 5 C  s               0.6       0.0       0.5       0.0       0.0       0.2
 5 C  pz              0.0       0.0       0.0       1.1       0.4       0.0
 5 C  px              0.7       0.2       0.5       0.1       0.2       0.1
 5 C  py              0.1       0.0       0.7       0.0       0.0       0.4
 5 C  dz2             0.1       0.0       0.2       0.0       0.1       0.0
 5 C  dxz             0.0       0.0       0.0       0.6       0.2       0.0
 5 C  dyz             0.0       0.0       0.0       0.2       0.1       0.0
 5 C  dx2y2           0.0       0.0       0.6       0.0       0.0       0.7
 5 C  dxy             0.9       0.2       0.4       0.0       0.0       0.1
 6 C  s               1.4       0.3       0.0       0.0       0.1       0.3
 6 C  pz              0.0       0.0       0.0       1.7       0.6       0.0
 6 C  px              0.0       0.3       0.5       0.0       0.0       0.1
 6 C  py              0.3       0.7       0.4       0.0       0.1       0.4
 6 C  dz2             0.3       0.1       0.0       0.0       0.0       0.2
 6 C  dx2y2           0.2       0.1       0.1       0.0       0.0       0.4
 6 C  dxy             0.0       0.0       0.1       0.0       0.1       0.0
 7 O  s               0.3       0.7       1.5       0.6       1.7       0.0
 7 O  pz              0.0       0.0       0.0       0.8       0.3       0.0
 7 O  px              0.1       0.1       1.2       1.0       2.8       0.1
 7 O  py              0.4       0.1       0.0       0.2       0.6       0.2
 8 C  s               0.0       1.7       4.6       1.5       4.3       1.0
 8 C  pz              0.0       0.0       0.0      12.8       4.5       0.0
 8 C  px              3.3       1.7       1.8       0.9       2.5       0.6
 8 C  py              0.7       0.2       9.7       0.3       0.8       4.9
 8 C  dz2             0.0       0.0       0.8       0.0       0.0       0.4
 8 C  dyz             0.0       0.0       0.0       0.9       0.3       0.0
 8 C  dx2y2           0.0       0.0       0.0       0.0       0.0       0.1
 8 C  dxy             0.2       0.0       0.9       0.0       0.1       0.0
 9 H  s               0.0      13.9       1.3       0.2       8.4       8.8
10 H  s               2.9      18.7       0.9       0.1       0.4      13.6
11 H  s               0.0      13.9       1.2       6.6       2.0       8.8
12 H  s              14.2       7.1       9.5       0.6       1.7       4.0
13 H  s              17.5       0.1       0.8       1.8       5.3      12.6
14 H  s              19.0       4.3       3.3       1.4       3.9       2.7
15 H  s               0.5       0.3       6.0       5.1      14.6       0.2
[...]
 1 C  py              1.0       1.2       0.4       0.0       0.5       0.2
 1 C  dz2             0.0       0.1       0.2       0.0       0.0       0.1
 1 C  dxz             0.0       0.0       0.0       1.2       0.0       0.0
 1 C  dyz             0.0       0.0       0.0       0.3       0.0       0.0
 1 C  dx2y2           1.9      17.9       0.1       0.0       1.3       4.9
 1 C  dxy            14.4       5.1       9.2       0.0       0.7       3.6
 2 C  s               0.2       0.6       0.4       0.0       0.0       0.1
 2 C  px              1.3       0.0       0.9       0.0       0.1       0.2
 2 C  py              1.3       2.4       0.9       0.0       0.3       0.7
 2 C  dz2             0.0       0.1       0.1       0.0       0.0       0.1
 2 C  dx2y2           8.9       6.5       4.2       0.0       3.0       0.2
 2 C  dxy             2.0       4.6      10.9       0.0       0.2       3.0
 3 C  s               0.1       2.5       0.0       0.0       0.1       0.3
 3 C  px              1.1       0.1       4.4       0.0       0.9       0.2
 3 C  py              0.0       1.0       0.0       0.0       0.0       0.0
 3 C  dz2             0.1       0.6       0.0       0.0       0.1       0.2
 3 C  dx2y2           0.3       0.4       0.1       0.0       0.7       3.6
 3 C  dxy            16.7       0.4      10.4       0.0       3.0       1.0
 4 C  s               0.2       0.3       0.6       0.0       0.0       0.7
 4 C  px              0.8       0.3       0.7       0.0       0.3       0.0
 4 C  py              0.6       3.2       0.6       0.0       0.6       0.7
 4 C  dz2             0.0       0.0       0.2       0.0       0.0       0.4
 4 C  dx2y2           8.1      10.7       3.6       0.0       0.9       4.9
 4 C  dxy             4.5       5.1       8.1       0.0       3.0       1.1
 5 C  s               0.5       0.6       0.1       0.0       0.2       0.2
 5 C  px              0.8       0.0       0.0       0.0       0.0       0.5
 5 C  py              0.7       1.7       0.2       0.0       0.5       1.0
 5 C  dxz             0.0       0.0       0.0       1.6       0.0       0.0
 5 C  dyz             0.0       0.0       0.0       0.1       0.0       0.0
 5 C  dx2y2           0.1      18.7       0.0       0.0       0.7      10.5
 5 C  dxy            13.8       2.7       7.3       0.0       1.2       0.1
 6 C  s               0.0       1.2       0.0       0.0       0.1       0.9
 6 C  pz              0.0       0.0       0.0       0.4       0.0       0.0
 6 C  px              2.1       0.0       2.3       0.0       0.4       0.8
 6 C  py              0.0       1.4       0.0       0.0       0.0       0.5
 6 C  dz2             0.0       0.1       0.3       0.0       1.4       0.5
 6 C  dyz             0.0       0.0       0.0      18.4       0.0       0.0
 6 C  dx2y2           0.1       0.7       0.0       0.0       0.0       0.0
 6 C  dxy             2.5       0.0       1.8       0.0       0.1      19.3
 7 O  s               0.0       0.0       0.3       0.0       2.5       0.5
 7 O  pz              0.0       0.0       0.0       0.9       0.0       0.0
 7 O  px              0.1       0.0       1.1       0.0       2.4       0.1
 7 O  py              0.0       0.0       0.0       0.0       0.0       0.6
 7 O  dz2             0.8       0.0      12.4       0.0      46.7       1.7
 7 O  dxz             0.0       0.0       0.0       0.5       0.0       0.0
 7 O  dyz             0.0       0.0       0.0      75.5       0.0       0.0
 7 O  dx2y2           0.1       0.3       4.8       0.0      11.4       5.5
 7 O  dxy             0.5       0.0       8.9       0.0       8.5      27.1
 8 C  s               0.4       0.0       0.1       0.0       0.1       0.1
 8 C  px              0.6       0.0       0.2       0.0       0.0       0.0
 8 C  py              0.1       0.1       0.0       0.0       0.0       0.1
 8 C  dz2             0.5       0.0       0.1       0.0       0.1       0.0
 8 C  dxz             0.0       0.0       0.0       0.2       0.0       0.0
 8 C  dyz             0.0       0.0       0.0       0.1       0.0       0.0
 8 C  dx2y2           2.1       1.9       0.9       0.0       0.1       0.2
 8 C  dxy             1.0       1.8       0.1       0.0       0.0       0.4
12 H  s               0.3       0.0       0.2       0.0       0.0       0.1
13 H  s               0.0       0.0       0.0       0.0       0.0       0.1
14 H  s               0.5       0.0       0.1       0.0       0.1       0.1
15 H  s               0.0       0.0       0.6       0.0       6.6       0.6

                    144       145   
                   3.20530   3.47134
                   0.00000   0.00000
                  --------  --------
 0 C  s               0.1       0.1
 0 C  px              0.1       0.1
 0 C  dxy             0.4       0.5
 1 C  s               0.3       0.3
 1 C  px              0.1       0.2
 1 C  py              0.8       0.1
 1 C  dz2             0.3       0.1
 1 C  dx2y2           6.5       2.4
 1 C  dxy             1.9       6.7
 2 C  s               1.2       0.3
 2 C  py              0.4       0.0
 2 C  dz2             0.7       0.1
 2 C  dx2y2           4.3       0.9
 2 C  dxy             4.2       4.3
 3 C  s               0.6       0.5
 3 C  dz2             0.4       0.2
 3 C  dx2y2           7.9       4.2
 3 C  dxy             0.4       0.0
 4 C  s               0.6       0.4
 4 C  px              0.1       0.0
 4 C  py              0.2       0.0
 4 C  dz2             0.5       0.1
 4 C  dx2y2           0.4       1.1
 4 C  dxy             5.2       4.1
 5 C  s               0.5       0.2
 5 C  px              0.5       0.1
 5 C  dz2             0.5       0.0
 5 C  dx2y2           0.7       2.9
 5 C  dxy             4.8       6.5
 6 C  s               2.9       0.4
 6 C  px              0.2       0.0
 6 C  py              1.3       2.2
 6 C  dz2             2.2       0.2
 6 C  dx2y2           0.2      19.6
 6 C  dxy             8.2       0.1
 7 O  s               2.9       1.8
 7 O  px              0.3       0.2
 7 O  py              1.8       2.7
 7 O  dz2             8.9       4.4
 7 O  dx2y2          18.0      28.4
 7 O  dxy             6.6       0.8
 8 C  s               0.0       0.1
 8 C  px              0.0       0.2
 8 C  dx2y2           0.6       0.0
 8 C  dxy             0.0       0.6
12 H  s               0.3       0.2
13 H  s               0.3       0.2
14 H  s               0.2       0.2
15 H  s               0.1       0.5


                      *****************************
                      * MAYER POPULATION ANALYSIS *
                      *****************************

  NA   - Mulliken gross atomic population
  ZA   - Total nuclear charge
  QA   - Mulliken gross atomic charge
  VA   - Mayer's total valence
  BVA  - Mayer's bonded valence
  FA   - Mayer's free valence

  ATOM       NA         ZA         QA         VA         BVA        FA
  0 C      6.2043     6.0000    -0.2043     3.9238     3.9238     0.0000
  1 C      6.0199     6.0000    -0.0199     4.0277     4.0277     0.0000
  2 C      6.1444     6.0000    -0.1444     3.8636     3.8636    -0.0000
  3 C      6.0330     6.0000    -0.0330     3.7477     3.7477    -0.0000
  4 C      6.1477     6.0000    -0.1477     3.8729     3.8729     0.0000
  5 C      5.9773     6.0000     0.0227     3.8870     3.8870     0.0000
  6 C      5.9275     6.0000     0.0725     4.1307     4.1307     0.0000
  7 O      8.3338     8.0000    -0.3338     2.1820     2.1820     0.0000
  8 C      6.2938     6.0000    -0.2938     3.9208     3.9208     0.0000
  9 H      0.8863     1.0000     0.1137     0.9559     0.9559     0.0000
 10 H      0.9075     1.0000     0.0925     0.9655     0.9655     0.0000
 11 H      0.8863     1.0000     0.1137     0.9559     0.9559     0.0000
 12 H      0.9685     1.0000     0.0315     0.9605     0.9605    -0.0000
 13 H      0.9601     1.0000     0.0399     0.9497     0.9497    -0.0000
 14 H      0.9708     1.0000     0.0292     0.9604     0.9604    -0.0000
 15 H      0.6898     1.0000     0.3102     0.9004     0.9004    -0.0000
 16 H      0.8808     1.0000     0.1192     0.9466     0.9466     0.0000
 17 H      0.8808     1.0000     0.1192     0.9466     0.9466     0.0000
 18 H      0.8875     1.0000     0.1125     0.9716     0.9716     0.0000

  Mayer bond orders larger than 0.100000
B(  0-C ,  1-C ) :   1.1087 B(  0-C ,  9-H ) :   0.9331 B(  0-C , 10-H ) :   0.9387 
B(  0-C , 11-H ) :   0.9331 B(  1-C ,  2-C ) :   1.4238 B(  1-C ,  6-C ) :   1.3764 
B(  2-C ,  3-C ) :   1.3332 B(  2-C , 12-H ) :   0.9639 B(  3-C ,  4-C ) :   1.3533 
B(  3-C , 13-H ) :   0.9651 B(  4-C ,  5-C ) :   1.3963 B(  4-C , 14-H ) :   0.9609 
B(  5-C ,  6-C ) :   1.3227 B(  5-C ,  8-C ) :   1.0781 B(  6-C ,  7-O ) :   1.2608 
B(  7-O , 15-H ) :   0.8311 B(  8-C , 16-H ) :   0.9305 B(  8-C , 17-H ) :   0.9305 
B(  8-C , 18-H ) :   0.9319 

-------
TIMINGS
-------

Total SCF time: 0 days 0 hours 0 min 0 sec 

Total time                  ....       0.960 sec
Sum of individual times     ....       0.952 sec  ( 99.1%)

SCF preparation             ....       0.026 sec  (  2.7%)
Fock matrix formation       ....       0.869 sec  ( 90.6%)
  Startup                   ....       0.001 sec  (  0.1% of F)
  Split-RI-J                ....       0.409 sec  ( 47.1% of F)
  XC integration            ....       0.452 sec  ( 52.0% of F)
    Basis function eval.    ....       0.193 sec  ( 42.8% of XC)
    Density eval.           ....       0.098 sec  ( 21.6% of XC)
    XC-Functional eval.     ....       0.032 sec  (  7.1% of XC)
    XC-Potential eval.      ....       0.113 sec  ( 24.9% of XC)
Diagonalization             ....       0.000 sec  (  0.0%)
Density matrix formation    ....       0.001 sec  (  0.1%)
Total Energy calculation    ....       0.000 sec  (  0.0%)
Population analysis         ....       0.046 sec  (  4.7%)
Orbital Transformation      ....       0.002 sec  (  0.2%)
Orbital Orthonormalization  ....       0.000 sec  (  0.0%)
DIIS solution               ....       0.003 sec  (  0.3%)
  MO trafo                  ....       0.000 sec  (  0.0 % of DIIS)
  Orb grad                  ....       0.000 sec  (  0.0 % of DIIS)
  Energy W gradient         ....       0.000 sec  (  0.0 % of DIIS)
  DIIS error                ....       0.000 sec  ( 12.2 % of DIIS)
  DIIS work                 ....       0.002 sec  ( 86.2 % of DIIS)
  Form Q                    ....       0.000 sec  (  0.0 % of DIIS)
  Form QpQm                 ....       0.000 sec  (  0.0 % of DIIS)
  Exp/Cayley                ....       0.000 sec  (  0.0 % of DIIS)
  Orb update                ....       0.000 sec  (  0.0 % of DIIS)
  Wake-sleep                ....       0.000 sec  (  1.6 % of DIIS)
SOSCF solution              ....       0.005 sec  (  0.5%)
  MO trafo                  ....       0.003 sec  ( 64.0 % of SOSCF)
  Orb grad                  ....       0.000 sec  (  1.1 % of SOSCF)
  Rot update                ....       0.000 sec  (  2.8 % of SOSCF)
  Step                      ....       0.001 sec  ( 30.8 % of SOSCF)
Finished LeanSCF after   1.0 sec

Maximum memory used throughout the entire LEANSCF-calculation: 14.2 MB


-------------------------------------------------------------------------------
                          DFT DISPERSION CORRECTION                            
                                                                               
                                DFTD4 V3.4.0                                   
-------------------------------------------------------------------------------
The PBE functional is recognized
Active option DFTDOPT                   ...         5   

-------------------------   ----------------
Dispersion correction           -0.019313644
-------------------------   ----------------

------------------   -----------------
gCP correction             0.078743951
------------------   -----------------

-------------------------   --------------------
FINAL SINGLE POINT ENERGY      -385.241382036385
-------------------------   --------------------


------------------------------------------------------------------------------
                              ORCA PROPERTY CALCULATIONS
------------------------------------------------------------------------------

GBWName                                 ... sp.gbw
Number of atoms                         ...     19
Number of basis functions               ...    146
Max core memory                         ...   1024 MB

Electric properties:
Dipole moment                           ... YES
Quadrupole moment                       ...  NO
Static polarizability (Dipole/Dipole)   ...  NO
Static polarizability (Dipole/Quad.)    ...  NO
Static polarizability (Quad./Quad.)     ...  NO
Static polarizability (Velocity)        ...  NO

Atomic electric properties:
Dipole moment                           ...  NO
Quadrupole moment                       ...  NO
Static polarizability                   ...  NO

Choice of electric origin               ... Center of mass
Position of electric origin             ...     0.000002    -0.000011    -0.000000

General magnetic properties:
Magnetizability                         ...  NO

EPR properties:
g-Tensor (aka g-matrix)                 ...  NO
Zero-Field splitting spin-orbit         ...  NO
Zero-field splitting spin-spin          ...  NO
Hyperfine couplings                     ...  NO (   0 nuclei)
Quadrupole couplings                    ...  NO (   0 nuclei)
Contact density                         ...  NO (   0 nuclei)

NMR properties:
Chemical shifts                         ...  NO (   0 nuclei)
Spin-rotation constants                 ...  NO (   0 nuclei)
Spin-spin couplings                     ...  NO (   0 nuclei,    0 pairs)

Choice of magnetic origin               ... GIAO
Position of magnetic origin             ...     0.000000     0.000000     0.000000

Properties with geometric perturbations:
SCF Hessian                             ...  NO
IR spectrum                             ...  NO
VCD spectrum                            ...  NO
X-ray spectroscopy properties:
SCF XES/XAS/RIXS spectra                ...  NO


-------------
DIPOLE MOMENT
-------------

Method             : SCF
Type of density    : Electron Density
Multiplicity       :   1
Irrep              :   0
Energy             :  -385.3008123438679604 Eh
Relativity type    : 
Basis              : AO
                                X                 Y                 Z
Electronic contribution:     -0.326370408      -0.684150205       0.000128194
Nuclear contribution   :      0.882907028       0.961330779      -0.000037318
                        -----------------------------------------
Total Dipole Moment    :      0.556536620       0.277180573       0.000090876
                        -----------------------------------------
Magnitude (a.u.)       :      0.621741175
Magnitude (Debye)      :      1.580340474



--------------------
Rotational spectrum 
--------------------
 
Rotational constants in cm-1:             0.076704             0.059529             0.033940 
Rotational constants in MHz :          2299.532446          1784.640805          1017.500728 

Dipole components along the rotational axes: 
x,y,z [a.u.] :     0.556538     0.277178     0.000091 
x,y,z [Debye]:     1.414607     0.704531     0.000231 

 

Dipole moment calculation done in   0.0 sec 

Maximum memory used throughout the entire PROP-calculation: 9.2 MB

--------------------------------
SUGGESTED CITATIONS FOR THIS RUN
--------------------------------

Below you find a list of papers that are relevant to this ORCA run
We neither can nor want to force you to cite these papers, but we appreciate if you do
You receive ORCA, which is the product of decades of hard work by many enthusiastic individuals, for free
The only thing we kindly ask in return is that you cite our papers,
We deeply appreciate it, if you show your appreciation for ORCA by not just citing the generic ORCA reference.

Please note that relegating all ORCA citations to the supporting information does *not* help us.
SI sections are not indexed - citations you put there will not count into any citation statistics
But we need these citations in order to attract the funding resources that allow us to do what we are doing

Therefore, if you are a happy ORCA user, please consider citing a few of the papers listed below in the main body of your paper

In addition to the list printed below, the program has created the file sp.bibtex that contains the list in bibtex format
You can import this file easily into all common literature databanks and citation aid programs


List of essential papers. We consider these as the minimum necessary citations

  1. Neese,F.
     Software update: the ORCA program system, version 5.0
     WIRES Comput. Molec. Sci., 2022 12(1)e1606
     doi.org/10.1002/wcms.1606

List of papers to cite with high priority. The work reported in these papers was absolutely
necessary for this run to complete.
Our perspective: the developers of density functionals and basis sets usually get cited in chemistry papers
Good! But without the algorithms to do something with them, the functionals or basis sets would not do anything.
Hence, in our opinion, the algorithm design and method developments papers are equally worthy of getting cited

  1. Neese,F.
     An improvement of the resolution of the identity approximation for the formation of the Coulomb matrix
     J. Comp. Chem., 2003 24(14)1740-1747
     doi.org/10.1002/jcc.10318
  2. Neese,F.
     The SHARK Integral Generation and Digestion System
     J. Comp. Chem., 2022  1-16
     doi.org/10.1002/jcc.26942
  3. Caldeweyher,E.; Bannwarth,C.; Grimme,S.
     Extension of the D3 dispersion coefficient model
     J. Chem. Phys., 2017 147 034112
     doi.org/10.1063/1.4993215
  4. Caldeweyher,E.; Ehlert,S.; Hansen,A.; Neugebauer,H.; Spicher,S.; Bannwarth,C.; Grimme,S.
     A generally applicable atomic-charge dependent London dispersion correction
     J. Chem. Phys., 2019 150 154122
     doi.org/10.1063/1.5090222
  5. Caldeweyher,E.; Mewes,J.; Ehlert,S.; Grimme,S.
     Extension and evaluation of the D4 London-dispersion model for periodic systems
     Phys. Chem. Chem. Phys., 2020 22(16)8499-8512
     doi.org/10.1039/D0CP00502A
  6. Wittmann,L.; Gordiy,I.; Friede,M.; Helmich-Paris,B.; Grimme,S.; Hansen,A.; Bursch,M.
     Extension of the D3 and D4 London Dispersion Corrections to the full Actinides Series
     Phys. Chem. Chem. Phys., 2024 26(32)21379-21394
     doi.org/https://doi.org/10.1039/D4CP01514B 

List of suggested additional citations. These are papers that are important in the 'surrounding' of 
of this run, or papers that preceded the highly important papers. If you like your results we are grateful for a citation.

  1. Neese,F.
     The ORCA program system
     WIRES Comput. Molec. Sci., 2012 2(1)73-78
     doi.org/10.1002/wcms.81
  2. Neese,F.
     Software update: the ORCA program system, version 4.0
     WIRES Comput. Molec. Sci., 2018 8(1)1-6
     doi.org/10.1002/wcms.1327
  3. Neese,F.; Wennmohs,F.; Becker,U.; Riplinger,C.
     The ORCA quantum chemistry program package
     J. Chem. Phys., 2020 152 Art. No. L224108
     doi.org/10.1063/5.0004608

List of optional additional citations

  1. Neese,F.
     Approximate second-order SCF convergence for spin unrestricted wavefunctions
     Chem. Phys. Lett., 2000 325(1-3)93-98
     doi.org/10.1016/s0009-2614(00)00662-x

Timings for individual modules:

Sum of individual times          ...        1.314 sec (=   0.022 min)
Startup calculation              ...        0.263 sec (=   0.004 min)  20.0 %
SCF iterations                   ...        1.016 sec (=   0.017 min)  77.3 %
Property calculations            ...        0.035 sec (=   0.001 min)   2.7 %
                             ****ORCA TERMINATED NORMALLY****
TOTAL RUN TIME: 0 days 0 hours 0 minutes 1 seconds 381 msec
