 Entering Gaussian System
 *********************************************
 Gaussian 98:
 frequency output generated by the xtb code
 *********************************************
                         Standard orientation:
 --------------------------------------------------------------------
  Center     Atomic     Atomic              Coordinates (Angstroms)
  Number     Number      Type              X           Y           Z
 --------------------------------------------------------------------
    1          6             0       -2.504193    0.038201   -0.020186
    2          6             0       -1.084636   -0.511929    0.040886
    3          6             0       -0.059167    0.605179   -0.055598
    4         16             0        1.633329   -0.104411    0.021461
    5          1             0       -2.669995    0.566871   -0.956497
    6          1             0       -3.225045   -0.772248    0.049547
    7          1             0       -2.682658    0.729350    0.800865
    8          1             0       -0.924020   -1.216011   -0.778466
    9          1             0       -0.936393   -1.052979    0.977983
   10          1             0       -0.152324    1.139996   -1.001264
   11          1             0       -0.164265    1.304378    0.774497
   12          1             0        2.273272    1.058428   -0.081803
 --------------------------------------------------------------------
     1 basis functions        1 primitive gaussians
     1 alpha electrons        1 beta electrons

 Harmonic frequencies (cm**-1), IR intensities (km*mol⁻¹),
 Raman scattering activities (A**4/amu), Raman depolarization ratios,
 reduced masses (AMU), force constants (mDyne/A) and normal coordinates:
                      1                      2                      3
                        a                      a                      a 
 Frequencies --    97.2758               148.8684               214.5629
 Red. masses --     2.5710                 1.0569                 3.2457
 Frc consts  --     0.0000                 0.0000                 0.0000
 IR Inten    --     3.0944                36.5762                 4.0089
 Raman Activ --     0.0000                 0.0000                 0.0000
 Depolar     --     0.0000                 0.0000                 0.0000
 Atom AN      X      Y      Z        X      Y      Z        X      Y      Z
   1   6    -0.00   0.04   0.39    -0.00   0.00   0.05    -0.02   0.34  -0.03
   2   6     0.00  -0.04  -0.41    -0.00   0.01   0.05    -0.26  -0.34   0.03
   3   6     0.00  -0.04  -0.47     0.00  -0.01  -0.16    -0.11  -0.49   0.04
   4  16    -0.00   0.03   0.34     0.00  -0.01  -0.13     0.33   0.28  -0.02
   5   1    -0.10   0.14   0.20    -0.03  -0.08  -0.03     0.09   0.12  -0.01
   6   1    -0.00   0.01   0.09    -0.00   0.01   0.11    -0.13   0.21  -0.02
   7   1     0.10  -0.10   0.23     0.03   0.07  -0.04     0.09   0.13  -0.01
   8   1    -0.10   0.06  -0.20    -0.02  -0.04   0.05    -0.14  -0.11   0.01
   9   1     0.11  -0.09  -0.18     0.02   0.05   0.04    -0.14  -0.11   0.01
  10   1     0.07  -0.08  -0.18    -0.01  -0.03  -0.06    -0.06  -0.14   0.02
  11   1    -0.06   0.04  -0.19     0.01   0.02  -0.07    -0.06  -0.14   0.01
  12   1     0.00  -0.00  -0.02    -0.01   0.09   0.95    -0.12   0.15  -0.01
                      4                      5                      6
                        a                      a                      a 
 Frequencies --   228.6503               350.6293               739.7916
 Red. masses --     1.0929                 3.9590                 2.9528
 Frc consts  --     0.0000                 0.0000                 0.0000
 IR Inten    --     0.1579                 0.0525                 4.8028
 Raman Activ --     0.0000                 0.0000                 0.0000
 Depolar     --     0.0000                 0.0000                 0.0000
 Atom AN      X      Y      Z        X      Y      Z        X      Y      Z
   1   6    -0.00   0.00   0.05    -0.54  -0.15   0.01    -0.02   0.02  -0.00
   2   6     0.00  -0.02  -0.25    -0.30   0.28  -0.03     0.06   0.20  -0.02
   3   6    -0.00   0.01   0.13     0.09   0.00   0.00     0.59  -0.41   0.04
   4  16    -0.00   0.00   0.05     0.55  -0.06   0.01    -0.36   0.14  -0.01
   5   1    -0.22  -0.42  -0.18    -0.25  -0.07   0.00    -0.11  -0.03  -0.00
   6   1    -0.00   0.05   0.56    -0.03  -0.15   0.01     0.13  -0.11   0.01
   7   1     0.22   0.38  -0.25    -0.25  -0.07   0.01    -0.10  -0.03   0.01
   8   1    -0.02   0.06  -0.13    -0.10   0.07  -0.00    -0.05   0.03   0.00
   9   1     0.02  -0.09  -0.12    -0.10   0.07  -0.01    -0.05   0.03  -0.01
  10   1     0.01   0.10   0.09     0.08   0.01   0.00     0.18  -0.09   0.02
  11   1    -0.02  -0.08   0.11     0.08   0.01  -0.00     0.18  -0.09   0.00
  12   1     0.00  -0.01  -0.08     0.03   0.02  -0.00    -0.35   0.18  -0.02
                      7                      8                      9
                        a                      a                      a 
 Frequencies --   779.1111               829.2705               875.2293
 Red. masses --     1.0900                 1.3505                 1.1806
 Frc consts  --     0.0000                 0.0000                 0.0000
 IR Inten    --     5.0355                 4.5148                 2.3027
 Raman Activ --     0.0000                 0.0000                 0.0000
 Depolar     --     0.0000                 0.0000                 0.0000
 Atom AN      X      Y      Z        X      Y      Z        X      Y      Z
   1   6    -0.00   0.00   0.02     0.15  -0.02   0.00     0.00  -0.01  -0.15
   2   6    -0.00   0.02   0.20     0.05   0.16  -0.01     0.00  -0.01  -0.15
   3   6    -0.00   0.02   0.20    -0.34   0.10  -0.01    -0.00   0.03   0.33
   4  16     0.00  -0.00  -0.05     0.18  -0.24   0.02     0.00  -0.01  -0.07
   5   1     0.17  -0.10  -0.09     0.04  -0.01   0.00    -0.34   0.16   0.12
   6   1     0.00  -0.01  -0.07     0.06  -0.02   0.00    -0.00   0.02   0.16
   7   1    -0.17   0.09  -0.11     0.04  -0.01   0.00     0.34  -0.14   0.15
   8   1    -0.04   0.38  -0.29     0.06   0.06  -0.01     0.31  -0.09   0.10
   9   1     0.05  -0.43  -0.21     0.06   0.06  -0.00    -0.31   0.10   0.07
  10   1    -0.02  -0.39  -0.17    -0.03   0.03  -0.01     0.11  -0.33  -0.12
  11   1     0.02   0.35  -0.24    -0.03   0.03   0.00    -0.11   0.31  -0.18
  12   1    -0.00   0.00   0.02    -0.75   0.37  -0.04    -0.00   0.00   0.01
                     10                     11                     12
                        a                      a                      a 
 Frequencies --   954.1508              1038.5212              1088.1736
 Red. masses --     1.5932                 1.1287                 2.8358
 Frc consts  --     0.0000                 0.0000                 0.0000
 IR Inten    --     2.7153                 0.0379                 0.5772
 Raman Activ --     0.0000                 0.0000                 0.0000
 Depolar     --     0.0000                 0.0000                 0.0000
 Atom AN      X      Y      Z        X      Y      Z        X      Y      Z
   1   6     0.35   0.18  -0.01     0.00  -0.01  -0.16     0.41  -0.36   0.04
   2   6    -0.01   0.26  -0.02    -0.00   0.02   0.18    -0.59   0.24  -0.03
   3   6    -0.31  -0.27   0.02     0.00  -0.02  -0.22     0.03   0.01  -0.00
   4  16     0.03   0.02  -0.00    -0.00   0.01   0.09    -0.01   0.04  -0.00
   5   1    -0.20  -0.08  -0.02    -0.20   0.09   0.05     0.28  -0.04   0.01
   6   1     0.50  -0.31   0.03    -0.00   0.01   0.08    -0.05   0.05  -0.00
   7   1    -0.20  -0.07   0.03     0.20  -0.08   0.07     0.28  -0.04  -0.00
   8   1    -0.14   0.04  -0.01     0.19   0.18  -0.07    -0.19   0.06  -0.01
   9   1    -0.14   0.04  -0.00    -0.19  -0.19  -0.04    -0.19   0.06  -0.01
  10   1    -0.16  -0.09   0.01    -0.55   0.07   0.04     0.16   0.04   0.00
  11   1    -0.16  -0.09   0.01     0.55  -0.07   0.06     0.16   0.04  -0.01
  12   1     0.20  -0.10   0.01     0.00  -0.00  -0.00     0.06  -0.02   0.00
                     13                     14                     15
                        a                      a                      a 
 Frequencies --  1130.0422              1215.5226              1230.1934
 Red. masses --     2.2448                 1.4567                 1.2241
 Frc consts  --     0.0000                 0.0000                 0.0000
 IR Inten    --     5.9201                 0.4949                16.1947
 Raman Activ --     0.0000                 0.0000                 0.0000
 Depolar     --     0.0000                 0.0000                 0.0000
 Atom AN      X      Y      Z        X      Y      Z        X      Y      Z
   1   6    -0.14  -0.17   0.01     0.00  -0.03  -0.33     0.00   0.15  -0.01
   2   6     0.21   0.46  -0.04    -0.00   0.04   0.45    -0.05  -0.19   0.02
   3   6    -0.27  -0.47   0.04     0.00  -0.01  -0.16    -0.35  -0.05   0.00
   4  16    -0.01   0.05  -0.00     0.00  -0.00  -0.02    -0.03   0.06  -0.01
   5   1     0.16   0.06   0.02    -0.27   0.15   0.06    -0.07  -0.02  -0.02
   6   1    -0.25   0.16  -0.02    -0.00   0.01   0.14     0.13  -0.08   0.01
   7   1     0.16   0.05  -0.03     0.27  -0.14   0.10    -0.07  -0.02   0.02
   8   1     0.26   0.17  -0.01    -0.18   0.21  -0.10     0.17   0.00  -0.01
   9   1     0.26   0.17  -0.02     0.18  -0.22  -0.05     0.17   0.00   0.01
  10   1    -0.01  -0.12   0.01     0.33   0.15   0.02     0.59   0.05  -0.02
  11   1    -0.01  -0.12   0.01    -0.33  -0.15   0.05     0.59   0.05   0.02
  12   1     0.14  -0.07   0.01    -0.00  -0.00  -0.00     0.05  -0.02   0.00
                     16                     17                     18
                        a                      a                      a 
 Frequencies --  1268.8935              1339.4441              1415.0006
 Red. masses --     1.1040                 1.4442                 1.2268
 Frc consts  --     0.0000                 0.0000                 0.0000
 IR Inten    --     0.3831                 2.2939                 1.5849
 Raman Activ --     0.0000                 0.0000                 0.0000
 Depolar     --     0.0000                 0.0000                 0.0000
 Atom AN      X      Y      Z        X      Y      Z        X      Y      Z
   1   6    -0.00   0.02   0.19    -0.05  -0.14   0.01    -0.41   0.13  -0.01
   2   6    -0.00   0.01   0.08     0.51   0.12  -0.01     0.07   0.02  -0.00
   3   6     0.00  -0.02  -0.23    -0.19   0.03  -0.00    -0.01   0.01  -0.00
   4  16     0.00  -0.00  -0.01    -0.01   0.01  -0.00    -0.00  -0.00   0.00
   5   1     0.13  -0.07  -0.02    -0.00   0.06   0.05     0.49  -0.06  -0.14
   6   1     0.00  -0.00  -0.04    -0.16   0.10  -0.01     0.37  -0.35   0.04
   7   1    -0.13   0.07  -0.04    -0.00   0.05  -0.06     0.49  -0.03   0.15
   8   1     0.55   0.18  -0.03    -0.51  -0.10  -0.01    -0.07  -0.05   0.03
   9   1    -0.55  -0.18  -0.00    -0.51  -0.10   0.02    -0.07  -0.06  -0.02
  10   1     0.25   0.17   0.02     0.18  -0.06  -0.05    -0.00   0.01   0.00
  11   1    -0.25  -0.16   0.05     0.18  -0.05   0.06    -0.00   0.01  -0.00
  12   1     0.00  -0.00  -0.00     0.01   0.00  -0.00    -0.00   0.00  -0.00
                     19                     20                     21
                        a                      a                      a 
 Frequencies --  1453.1254              1493.3208              1500.8981
 Red. masses --     1.1010                 1.0840                 1.0535
 Frc consts  --     0.0000                 0.0000                 0.0000
 IR Inten    --     1.3202                 0.1925                 4.3068
 Raman Activ --     0.0000                 0.0000                 0.0000
 Depolar     --     0.0000                 0.0000                 0.0000
 Atom AN      X      Y      Z        X      Y      Z        X      Y      Z
   1   6     0.01   0.00  -0.00     0.02  -0.05   0.00    -0.00   0.02   0.21
   2   6    -0.09   0.02  -0.00    -0.06   0.26  -0.02    -0.00   0.00   0.04
   3   6     0.03   0.29  -0.03    -0.02  -0.01   0.00     0.00  -0.00  -0.00
   4  16    -0.01   0.01  -0.00     0.00  -0.00   0.00     0.00  -0.00  -0.00
   5   1     0.01   0.01   0.00    -0.03   0.13   0.08    -0.39  -0.25  -0.06
   6   1     0.02  -0.02   0.00     0.03  -0.02   0.00     0.00  -0.07  -0.71
   7   1     0.01   0.01  -0.00    -0.03   0.12  -0.11     0.39   0.23  -0.10
   8   1     0.07  -0.01   0.03     0.11  -0.48   0.44    -0.02   0.01  -0.00
   9   1     0.07  -0.02  -0.03     0.11  -0.55  -0.34     0.02  -0.01   0.00
  10   1     0.03  -0.58  -0.34     0.01   0.04   0.02     0.01   0.00   0.00
  11   1     0.03  -0.51   0.44     0.01   0.04  -0.03    -0.01  -0.00   0.00
  12   1    -0.01   0.00  -0.00     0.00  -0.00   0.00     0.00  -0.00  -0.00
                     22                     23                     24
                        a                      a                      a 
 Frequencies --  1503.1719              2435.0926              2967.1514
 Red. masses --     1.0640                 1.0388                 1.0960
 Frc consts  --     0.0000                 0.0000                 0.0000
 IR Inten    --     2.2299               132.4507                 0.6281
 Raman Activ --     0.0000                 0.0000                 0.0000
 Depolar     --     0.0000                 0.0000                 0.0000
 Atom AN      X      Y      Z        X      Y      Z        X      Y      Z
   1   6    -0.06  -0.20   0.02     0.00   0.00  -0.00    -0.00   0.00   0.01
   2   6    -0.03  -0.11   0.01    -0.00   0.00  -0.00     0.00  -0.02  -0.17
   3   6     0.02   0.01  -0.00    -0.00   0.00  -0.00    -0.00   0.02   0.24
   4  16     0.00  -0.00   0.00    -0.08  -0.15   0.01     0.00   0.00   0.00
   5   1     0.01   0.55   0.31    -0.00  -0.00   0.00    -0.01   0.02  -0.03
   6   1     0.23  -0.22   0.02    -0.00  -0.00   0.00    -0.00   0.00   0.00
   7   1     0.02   0.48  -0.41    -0.00  -0.00  -0.00     0.01  -0.02  -0.03
   8   1     0.01   0.11  -0.10     0.00  -0.00  -0.00    -0.06   0.26   0.29
   9   1     0.01   0.13   0.08     0.00  -0.00   0.00     0.05  -0.21   0.34
  10   1    -0.01   0.01   0.00    -0.00  -0.00   0.00    -0.04   0.28  -0.47
  11   1    -0.01   0.01  -0.00    -0.00  -0.00  -0.00     0.05  -0.36  -0.41
  12   1    -0.00   0.00  -0.00     0.46   0.86  -0.08     0.00  -0.00  -0.00
                     25                     26                     27
                        a                      a                      a 
 Frequencies --  2978.5942              2981.9518              2991.0829
 Red. masses --     1.0458                 1.1027                 1.0511
 Frc consts  --     0.0000                 0.0000                 0.0000
 IR Inten    --     4.4970                40.4675                29.0808
 Raman Activ --     0.0000                 0.0000                 0.0000
 Depolar     --     0.0000                 0.0000                 0.0000
 Atom AN      X      Y      Z        X      Y      Z        X      Y      Z
   1   6    -0.00   0.01  -0.00    -0.00   0.00   0.04    -0.01  -0.03   0.00
   2   6    -0.02   0.06  -0.01     0.00  -0.02  -0.24    -0.05   0.19  -0.02
   3   6     0.02  -0.19   0.02     0.00  -0.02  -0.19    -0.01   0.07  -0.01
   4  16     0.00  -0.00   0.00    -0.00  -0.00  -0.00    -0.00   0.00  -0.00
   5   1    -0.00  -0.00   0.01    -0.01   0.05  -0.08    -0.01   0.03  -0.07
   6   1    -0.00  -0.00   0.00    -0.00   0.00   0.01     0.04   0.05  -0.00
   7   1    -0.00  -0.01  -0.01     0.02  -0.06  -0.07    -0.01   0.05   0.06
   8   1     0.03  -0.14  -0.17    -0.08   0.35   0.39     0.09  -0.40  -0.51
   9   1     0.03  -0.10   0.20     0.07  -0.28   0.46     0.08  -0.29   0.57
  10   1    -0.05   0.29  -0.58     0.03  -0.20   0.34     0.02  -0.10   0.20
  11   1    -0.06   0.40   0.52    -0.04   0.26   0.30     0.02  -0.13  -0.18
  12   1     0.00   0.00  -0.00    -0.00   0.00   0.00    -0.00  -0.01   0.00
                     28                     29                     30
                        a                      a                      a 
 Frequencies --  3031.4752              3034.9716              3045.5306
 Red. masses --     1.0950                 1.0627                 1.0574
 Frc consts  --     0.0000                 0.0000                 0.0000
 IR Inten    --    49.0885                34.8997                27.2973
 Raman Activ --     0.0000                 0.0000                 0.0000
 Depolar     --     0.0000                 0.0000                 0.0000
 Atom AN      X      Y      Z        X      Y      Z        X      Y      Z
   1   6     0.00  -0.03  -0.29     0.02  -0.23   0.02    -0.17  -0.14   0.01
   2   6     0.00  -0.00  -0.05     0.01  -0.03   0.00    -0.00  -0.01   0.00
   3   6     0.00  -0.00  -0.01     0.00  -0.01   0.00     0.00  -0.00   0.00
   4  16    -0.00   0.00   0.00    -0.00  -0.00   0.00    -0.00  -0.00   0.00
   5   1     0.09  -0.34   0.56    -0.09   0.30  -0.59    -0.00  -0.09   0.13
   6   1     0.00  -0.00  -0.04     0.14   0.13  -0.01     0.61   0.72  -0.06
   7   1    -0.10   0.44   0.49    -0.10   0.40   0.52     0.00  -0.12  -0.11
   8   1    -0.01   0.06   0.07    -0.01   0.05   0.06    -0.00   0.02   0.02
   9   1     0.01  -0.05   0.08    -0.01   0.04  -0.07    -0.00   0.01  -0.02
  10   1     0.00  -0.01   0.02    -0.00   0.02  -0.03    -0.00   0.01  -0.01
  11   1    -0.00   0.02   0.02    -0.00   0.02   0.03    -0.00   0.01   0.01
  12   1     0.00   0.00   0.00     0.00   0.00  -0.00     0.00   0.00  -0.00
