      -----------------------------------------------------------      
     |                   =====================                   |     
     |                           x T B                           |     
     |                   =====================                   |     
     |                         S. Grimme                         |     
     |          Mulliken Center for Theoretical Chemistry        |     
     |                    University of Bonn                     |     
      -----------------------------------------------------------      

   * xtb version 6.7.1 (41059b4) compiled by 'michael@archlinux' on 2025-03-24

   xtb is free software: you can redistribute it and/or modify it under
   the terms of the GNU Lesser General Public License as published by
   the Free Software Foundation, either version 3 of the License, or
   (at your option) any later version.
   
   xtb is distributed in the hope that it will be useful,
   but WITHOUT ANY WARRANTY; without even the implied warranty of
   MERCHANTABILITY or FITNESS FOR A PARTICULAR PURPOSE.  See the
   GNU Lesser General Public License for more details.
   
   Cite this work as:
   * C. Bannwarth, E. Caldeweyher, S. Ehlert, A. Hansen, P. Pracht,
     J. Seibert, S. Spicher, S. Grimme, WIREs Comput. Mol. Sci., 2020, 11,
     e01493. DOI: 10.1002/wcms.1493
   
   for GFN2-xTB:
   * C. Bannwarth, S. Ehlert and S. Grimme., J. Chem. Theory Comput., 2019,
     15, 1652-1671. DOI: 10.1021/acs.jctc.8b01176
   for GFN1-xTB:
   * S. Grimme, C. Bannwarth, P. Shushkov, J. Chem. Theory Comput., 2017,
     13, 1989-2009. DOI: 10.1021/acs.jctc.7b00118
   for GFN0-xTB:
   * P. Pracht, E. Caldeweyher, S. Ehlert, S. Grimme, ChemRxiv, 2019, preprint.
     DOI: 10.26434/chemrxiv.8326202.v1
   for GFN-FF:
   * S. Spicher and S. Grimme, Angew. Chem. Int. Ed., 2020, 59, 15665-15673.
     DOI: 10.1002/anie.202004239
   
   for ALPB and GBSA implicit solvation:
   * S. Ehlert, M. Stahn, S. Spicher, S. Grimme, J. Chem. Theory Comput.,
     2021, 17, 4250-4261. DOI: 10.1021/acs.jctc.1c00471
   
   for ddCOSMO and CPCM-X implicit solvation:
   * M. Stahn, S. Ehlert, S. Grimme, J. Phys. Chem. A,
     2023, XX, XXXX-XXXX. DOI: 10.1021/acs.jpca.3c04382
   
   for DFT-D4:
   * E. Caldeweyher, C. Bannwarth and S. Grimme, J. Chem. Phys., 2017,
     147, 034112. DOI: 10.1063/1.4993215
   * E. Caldeweyher, S. Ehlert, A. Hansen, H. Neugebauer, S. Spicher,
     C. Bannwarth and S. Grimme, J. Chem. Phys., 2019, 150, 154122.
     DOI: 10.1063/1.5090222
   * E. Caldeweyher, J.-M. Mewes, S. Ehlert and S. Grimme, Phys. Chem. Chem. Phys.
     2020, 22, 8499-8512. DOI: 10.1039/D0CP00502A
   
   for sTDA-xTB:
   * S. Grimme and C. Bannwarth, J. Chem. Phys., 2016, 145, 054103.
     DOI: 10.1063/1.4959605
   
   in the mass-spec context:
   * V. Asgeirsson, C. Bauer and S. Grimme, Chem. Sci., 2017, 8, 4879.
     DOI: 10.1039/c7sc00601b
   * J. Koopman and S. Grimme, ACS Omega 2019, 4, 12, 15120-15133.
     DOI: 10.1021/acsomega.9b02011
   
   for metadynamics refer to:
   * S. Grimme, J. Chem. Theory Comput., 2019, 155, 2847-2862
     DOI: 10.1021/acs.jctc.9b00143
   
   for SPH calculations refer to:
   * S. Spicher and S. Grimme, J. Chem. Theory Comput., 2021, 17, 1701-1714
     DOI: 10.1021/acs.jctc.0c01306
   
   for ONIOM refer to:
   * C. Plett, A. Katbashev, S. Ehlert, S. Grimme, M. Bursch,
     Phys. Chem. Chem. Phys., 2023, 25, 17860-17868. DOI: 10.1039/D3CP02178E
   
   for DIPRO refer to:
   * J. Kohn, N. Gildemeister, S. Grimme, D. Fazzi, A. Hansen,
     J. Chem. Phys., 2023, just accepted.
   
   for PTB refer to:
   * S. Grimme, M. Mueller, A. Hansen, J. Chem. Phys., 2023, 158, 124111.
     DOI: 10.1063/5.0137838
   
   with help from (in alphabetical order)
   P. Atkinson, C. Bannwarth, F. Bohle, G. Brandenburg, E. Caldeweyher
   M. Checinski, S. Dohm, S. Ehlert, S. Ehrlich, I. Gerasimov, C. Hölzer
   A. Katbashev, J. Kohn, J. Koopman, C. Lavigne, S. Lehtola, F. März, M. Müller,
   F. Musil, H. Neugebauer, J. Pisarek, C. Plett, P. Pracht, F. Pultar,
   J. Seibert, P. Shushkov, S. Spicher, M. Stahn, M. Steiner, T. Strunk,
   J. Stückrath, T. Rose, and J. Unsleber
   
 * started run on 2025/04/09 at 02:25:26.086     
   ID    Z sym.   atoms
    1    6 C      1, 2, 4, 6, 8
    2    1 H      3, 5, 7, 9, 15-20
    3    8 O      10-14

           -------------------------------------------------
          |                Calculation Setup                |
           -------------------------------------------------

          program call               : /usr/bin/xtb xtb_opt.coord --opt normal --orca -I xtb_opt-xcontrol-inp
          coordinate file            : xtb_opt.coord
          omp threads                :                    16

           -------------------------------------------------
          |                   Orca driver                   |
           -------------------------------------------------
orca executable           : /home/michael/Documents/CHEM4561/orca_avx2/orca
orca input file           : xtb_opt.inp
orca input line           : 
orca parallel             : true
orca number of threads    : 16
                         * ORCA takes the control...
  ------------------------------------------------------------------------

                                 *****************
                                 * O   R   C   A *
                                 *****************

                                            #,                                       
                                            ###                                      
                                            ####                                     
                                            #####                                    
                                            ######                                   
                                           ########,                                 
                                     ,,################,,,,,                         
                               ,,#################################,,                 
                          ,,##########################################,,             
                       ,#########################################, ''#####,          
                    ,#############################################,,   '####,        
                  ,##################################################,,,,####,       
                ,###########''''           ''''###############################       
              ,#####''   ,,,,##########,,,,          '''####'''          '####       
            ,##' ,,,,###########################,,,                        '##       
           ' ,,###''''                  '''############,,,                           
         ,,##''                                '''############,,,,        ,,,,,,###''
      ,#''                                            '''#######################'''  
     '                                                          ''''####''''         
             ,#######,   #######,   ,#######,      ##                                
            ,#'     '#,  ##    ##  ,#'     '#,    #''#        ,####,   ,####,        
            ##       ##  ##   ,#'  ##            #'  '#       #'       #'  '#        
            ##       ##  #######   ##           ,######,      #####,   #    #        
            '#,     ,#'  ##    ##  '#,     ,#' ,#      #,     #,   #   #,  ,#        
             '#######'   ##     ##  '#######'  #'      '#     '####' # '####'        



                #########################################################
                #                        -***-                          #
                #          Department of theory and spectroscopy        #
                #                                                       #
                #                      Frank Neese                      #
                #                                                       #
                #     Directorship, Architecture, Infrastructure        #
                #                    SHARK, DRIVERS                     #
                #        Core code/Algorithms in most modules           #
                #                                                       #
                #        Max Planck Institute fuer Kohlenforschung      #
                #                Kaiser Wilhelm Platz 1                 #
                #                 D-45470 Muelheim/Ruhr                 #
                #                      Germany                          #
                #                                                       #
                #                  All rights reserved                  #
                #                        -***-                          #
                #########################################################


                         Program Version 6.0.1  -  RELEASE   -


 With contributions from (in alphabetic order):
[Max-Planck-Institut fuer Kohlenforschung]                               
  Daniel Aravena         : Magnetic Suceptibility                        
  Michael Atanasov       : Ab Initio Ligand Field Theory (pilot matlab implementation)
  Alexander A. Auer      : GIAO ZORA, VPT2 properties, NMR spectrum      
  Ute Becker             : All parallelization in ORCA, NUMFREQ, NUMCALC 
  Giovanni Bistoni       : ED, misc. LED, open-shell LED, HFLD           
  Martin Brehm           : Molecular dynamics                            
  Dmytro Bykov           : pre 5.0 version of the SCF Hessian            
  Marcos Casanova-Páez   : Triplet and SCS-CIS(D). UHF-(DLPNO)-IP/EA/STEOM-CCSD. UHF-CVS-IP/STEOM-CCSD   
  Vijay G. Chilkuri      : MRCI spin determinant printing, contributions to CSF-ICE 
  Pauline Colinet        : FMM embedding                                 
  Dipayan Datta          : RHF DLPNO-CCSD density                        
  Achintya Kumar Dutta   : EOM-CC, STEOM-CC                              
  Nicolas Foglia         : Exact transition moments, OPA infrastructure, MCD improvements    
  Dmitry Ganyushin       : Spin-Orbit,Spin-Spin,Magnetic field MRCI      
  Miquel Garcia-Rates    : C-PCM and meta-GGA Hessian, CCSD/C-PCM, Gaussian charge scheme 
  Tiago L. C. Gouveia    : GS-ROHF, GS-ROCIS                             
  Yang Guo               : DLPNO-NEVPT2, F12-NEVPT2, CIM, IAO-localization        
  Andreas Hansen         : Spin unrestricted coupled pair/coupled cluster methods 
  Ingolf Harden          : AUTO-CI MPn and infrastructure                
  Benjamin Helmich-Paris : MC-RPA, TRAH-(SCF,CASSCF), AVAS, COSX integrals, SCF dyn. polar. 
  Lee Huntington         : MR-EOM, pCC                                   
  Robert Izsak           : Overlap fitted RIJCOSX, COSX-SCS-MP3, EOM     
  Riya Kayal             : Wick's Theorem for AUTO-CI, AUTO-CI UHF-CCSDT 
  Emily Kempfer          : AUTO-CI, RHF CISDT and CCSDT                  
  Christian Kollmar      : KDIIS, OOCD, Brueckner-CCSD(T), CCSD density, CASPT2, CASPT2-K, improved NEVPT2 
  Axel Koslowski         : Symmetry handling                             
  Simone Kossmann        : meta-GGA functionals, TD-DFT gradient, OOMP2, (MP2 Hessian; deprecated post 5.0) 
  Lucas Lang             : DCDCAS                                        
  Marvin Lechner         : AUTO-CI (C++ implementation), FIC-MRCC        
  Spencer Leger          : CASSCF response                               
  Dagmar Lenk            : GEPOL surface, SMD, ORCA-2-JSON               
  Dimitrios Liakos       : Extrapolation schemes; Compound Job, initial MDCI parallelization 
  Dimitrios Manganas     : Further ROCIS development; embedding schemes. LFT, Crystal Embedding 
  Dimitrios Pantazis     : SARC Basis sets                               
  Anastasios Papadopoulos: AUTO-CI, single reference methods and gradients 
  Taras Petrenko         : pre 6.0 DFT Hessian and TD-DFT gradient, (ASA, deprecated), ECA, 1-Electron XAS/XES, NRVS 
  Peter Pinski           : DLPNO-MP2, DLPNO-MP2 Gradient                 
  Christoph Reimann      : Effective Core Potentials                     
  Marius Retegan         : Local ZFS, SOC                                
  Christoph Riplinger    : Optimizer, TS searches, QM/MM, DLPNO-CCSD(T), (RO)-DLPNO pert. Triples 
  Michael Roemelt        : Original ROCIS implementation                 
  Masaaki Saitow         : Open-shell DLPNO-CCSD energy and density      
  Barbara Sandhoefer     : DKH picture change effects                    
  Kantharuban Sivalingam : CASSCF convergence/infrastructure, NEVPT2 and variants, FIC-MRCI 
  Bernardo de Souza      : ESD, SOC TD-DFT                               
  Georgi L. Stoychev     : AutoAux, RI-MP2 NMR, DLPNO-MP2 response, X2C  
  Van Anh Tran           : RI-MP2 g-tensors                              
  Willem Van den Heuvel  : Paramagnetic NMR                              
  Zikuan Wang            : NOTCH, Electric field optimization            
  Frank Wennmohs         : Technical directorship and infrastructure     
  Hang Xu                : AUTO-CI-Response properties                   
                                                                         
[FACCTs GmbH]                                                            
  Markus Bursch, Miquel Garcia-Rates, Christoph Riplinger, Bernardo de Souza, Georgi L. Stoychev 
                                                                 
  APM, Basis sets (HGBS, AHGBS, def-TZVP (Ac-Lr), def2-XVPD (La-Lu)), CI-OPT, improved COSX, DLPNO-Multilevel,           
  DOCKER, DRACO, updates on ESD, GOAT, IRC, LR-CPCM, MBIS, meta-GGA TD-DFT gradient, ML-optimized integration grids, 
  MM, NACMEs, nearIR, NEB, NEB-TS, NL-DFT gradient (VV10), 2- and 3-layer-ONIOM, interface openCOSMO-RS, QMMM,   
  Crystal-QMMM, SF, symmetry and pop. for TD-DFT, r2SCAN hybrids, SOLVATOR                                   
                                                                         
[Other institutions]                                                     
  V. Asgeirsson          : NEB                                           
  Christoph Bannwarth    : sTDA-DFT, sTD-DFT, PBEh-3c, B97-3c, D3        
  Sebastian Ehlert       : rSCAN, r2SCAN, r2SCAN-3c, D4, dhf basis sets  
  Marvin Friede          : D4 for Fr, Ra, Ac-Lr                          
  Lars Goerigk           : TD-DFT with DH, B97 family of functionals     
  Stefan Grimme          : VdW corrections, initial TS optimization, DFT functionals, gCP, sTDA/sTD-DF 
  Waldemar Hujo          : DFT-NL                                        
  H. Jonsson             : NEB                                           
  Holger Kruse           : gCP                                           
  Marcel Mueller         : wB97X-3c, vDZP basis set                      
  Hagen Neugebauer       : wr2SCAN                                       
  Tobias Risthaus        : range-separated hybrid DFT                    
  Lukas Wittmann         : regularized MP2, r2SCAN double-hybrids, wr2SCAN        
                                                                         
We gratefully acknowledge several colleagues who have allowed us to      
interface, adapt or use parts of their codes:                            
  Ed Valeev, F. Pavosevic, A. Kumar             : LibInt (2-el integral package), F12 methods 
  Garnet Chan, S. Sharma, J. Yang, R. Olivares  : DMRG                   
  Ulf Ekstrom                                   : XCFun DFT Library      
  Mihaly Kallay                                 : mrcc  (arbitrary order and MRCC methods)
  Frank Weinhold                                : gennbo (NPA and NBO analysis)           
  Simon Mueller                                 : openCOSMO-RS                            
  Christopher J. Cramer and Donald G. Truhlar   : smd solvation model                     
  S Lehtola, MJT Oliveira, MAL Marques          : LibXC Library                           
  Liviu Ungur et al                             : ANISO software                          


 Your calculation uses the libint2 library for the computation of 2-el integrals
 For citations please refer to: http://libint.valeyev.net

 Your ORCA version has been built with support for libXC version: 6.2.2
 For citations please refer to: https://libxc.gitlab.io

 This ORCA versions uses:
   CBLAS   interface :  Fast vector & matrix operations
   LAPACKE interface :  Fast linear algebra routines
   SCALAPACK package :  Parallel linear algebra routines
   Shared memory     :  Shared parallel matrices
   BLAS/LAPACK       :  OpenBLAS 0.3.27  USE64BITINT DYNAMIC_ARCH NO_AFFINITY Zen SINGLE_THREADED
        Core in use  :  Zen
   Copyright (c) 2011-2014, The OpenBLAS Project




***************************************
The coordinates will be read from file: xtb_opt.xyz
***************************************


Your calculation utilizes the geometrical counterpoise correction gCP
Please cite in your paper:
H.Kruse, S. Grimme J.Chem.Phys., 136, (2012), 154101 
   

Your calculation utilizes the atom-pairwise dispersion correction
based on EEQ partial charges (D4)


================================================================================

----- Orbital basis set information -----
Your calculation utilizes the basis: def2-mTZVPP
   Stefan Grimme, Andreas Hansen, Sebastian Ehlert, and Jan-Michael Mewes 
   J. Chem. Phys. 154, 064103 (2021). DOI: 10.1063/5.0040021

----- AuxJ basis set information -----
Your calculation utilizes the auxiliary basis: def2/J
   F. Weigend, Phys. Chem. Chem. Phys. 8, 1057 (2006).

================================================================================
                                        WARNINGS
                       Please study these warnings very carefully!
================================================================================

WARNING: Old DensityContainer found on disk!
         Will remove this file - 
         If you want to keep old densities, please start your calculation with a different basename. 



WARNING: SCAN, rSCAN, or r2SCAN functional requested.
  ===> : libXC variant has now been activated.



================================================================================
                                       INPUT FILE
================================================================================
NAME = xtb_opt.inp
|  1> ! r2scan-3c def2/J RI DEFGRID2 scfconv7 ENGRAD tightSCF miniprint
|  2> * xyzfile 0 1 xtb_opt.xyz
|  3> 
|  4>                          ****END OF INPUT****
================================================================================

                     *******************************
                     * Energy+Gradient Calculation *
                     *******************************

---------------------------------
CARTESIAN COORDINATES (ANGSTROEM)
---------------------------------
  C      0.583632    1.707234    0.013945
  C      1.396114    0.426796   -0.245428
  H      1.605035    0.346350   -1.320146
  C      0.549131   -0.774374    0.192548
  H      0.340851   -0.705544    1.269955
  C     -0.793801   -0.738277   -0.557377
  H     -0.614359   -0.851090   -1.638205
  C     -1.476685    0.621435   -0.297506
  H     -2.369151    0.714324   -0.935778
  O     -0.653210    1.677165   -0.671404
  O     -1.827168    0.719134    1.054172
  O     -1.650732   -1.749777   -0.088368
  O      1.189305   -2.016030    0.002005
  O      2.654305    0.448263    0.373492
  H      1.113084    2.579992   -0.370109
  H      0.415004    1.826986    1.092275
  H     -2.255309   -0.115966    1.286941
  H     -1.116089   -2.548696    0.018001
  H      1.828187   -1.936108   -0.715057
  H      2.537324    0.503168    1.329671

----------------------------
CARTESIAN COORDINATES (A.U.)
----------------------------
  NO LB      ZA    FRAG     MASS         X           Y           Z
   0 C     6.0000    0    12.011    1.102905    3.226204    0.026352
   1 C     6.0000    0    12.011    2.638273    0.806527   -0.463792
   2 H     1.0000    0     1.008    3.033076    0.654506   -2.494714
   3 C     6.0000    0    12.011    1.037707   -1.463355    0.363863
   4 H     1.0000    0     1.008    0.644115   -1.333286    2.399868
   5 C     6.0000    0    12.011   -1.500066   -1.395141   -1.053290
   6 H     1.0000    0     1.008   -1.160970   -1.608327   -3.095758
   7 C     6.0000    0    12.011   -2.790530    1.174342   -0.562205
   8 H     1.0000    0     1.008   -4.477047    1.349877   -1.768364
   9 O     8.0000    0    15.999   -1.234389    3.169382   -1.268770
  10 O     8.0000    0    15.999   -3.452848    1.358966    1.992097
  11 O     8.0000    0    15.999   -3.119431   -3.306598   -0.166991
  12 O     8.0000    0    15.999    2.247460   -3.809745    0.003789
  13 O     8.0000    0    15.999    5.015909    0.847094    0.705798
  14 H     1.0000    0     1.008    2.103424    4.875479   -0.699405
  15 H     1.0000    0     1.008    0.784245    3.452503    2.064101
  16 H     1.0000    0     1.008   -4.261917   -0.219145    2.431966
  17 H     1.0000    0     1.008   -2.109102   -4.816337    0.034018
  18 H     1.0000    0     1.008    3.454773   -3.658714   -1.351261
  19 H     1.0000    0     1.008    4.794848    0.950851    2.512713

------------------------------------------------------------------------------
                   ___                                                        
                  /   \      - P O W E R E D   B Y -                         
                 /     \                                                     
                 |  |  |   _    _      __       _____    __    __             
                 |  |  |  | |  | |    /  \     |  _  \  |  |  /  |          
                  \  \/   | |  | |   /    \    | | | |  |  | /  /          
                 / \  \   | |__| |  /  /\  \   | |_| |  |  |/  /          
                |  |  |   |  __  | /  /__\  \  |    /   |      \           
                |  |  |   | |  | | |   __   |  |    \   |  |\   \          
                \     /   | |  | | |  |  |  |  | |\  \  |  | \   \       
                 \___/    |_|  |_| |__|  |__|  |_| \__\ |__|  \__/        
                                                                              
                      - O R C A' S   B I G   F R I E N D -                    
                                      &                                       
                       - I N T E G R A L  F E E D E R -                       
                                                                              
 v1 FN, 2020, v2 2021, v3 2022-2024                                           
------------------------------------------------------------------------------


----------------------
SHARK INTEGRAL PACKAGE
----------------------

Number of atoms                             ...     20
Number of basis functions                   ...    265
Number of shells                            ...    125
Maximum angular momentum                    ...      2
Integral batch strategy                     ... SHARK/LIBINT Hybrid
RI-J (if used) integral strategy            ... SPLIT-RIJ (Revised 2003 algorithm where possible)
Printlevel                                  ...      1
Contraction scheme used                     ... SEGMENTED contraction
Prescreening option                         ... SCHWARTZ
   Thresh                                   ... 3.000e-11
   Tcut                                     ... 1.000e-12
   Tpresel                                  ... 1.000e-12 
Coulomb Range Separation                    ... NOT USED
Exchange Range Separation                   ... NOT USED
Multipole approximations                    ... NOT USED
Finite Nucleus Model                        ... NOT USED
CABS basis                                  ... NOT available
Auxiliary Coulomb fitting basis             ... AVAILABLE
   # of basis functions in Aux-J            ...    600
   # of shells in Aux-J                     ...    200
   Maximum angular momentum in Aux-J        ...      4
Auxiliary J/K fitting basis                 ... NOT available
Auxiliary Correlation fitting basis         ... NOT available
Auxiliary 'external' fitting basis          ... NOT available

Checking pre-screening integrals            ... done (  0.0 sec) Dimension = 125
Check shell pair data                       ... done (  0.0 sec)
Shell pair information
Shell pair cut-off parameter TPreSel        ...   1.0e-12
Total number of shell pairs                 ...      7875
Shell pairs after pre-screening             ...      7172
Total number of primitive shell pairs       ...     27980
Primitive shell pairs kept                  ...     18010
          la=0 lb=0:   2173 shell pairs
          la=1 lb=0:   2556 shell pairs
          la=1 lb=1:    776 shell pairs
          la=2 lb=0:    974 shell pairs
          la=2 lb=1:    577 shell pairs
          la=2 lb=2:    116 shell pairs

Calculating one electron integrals          ... done (  0.1 sec)
Calculating RI/J V-Matrix + Cholesky decomp.... done (  0.0 sec)
Calculating Nuclear repulsion               ... done (  0.0 sec) ENN=    625.546976961483 Eh

Diagonalization of the overlap matrix:
Smallest eigenvalue                        ... 4.782e-05
Time for diagonalization                   ...    0.014 sec
Threshold for overlap eigenvalues          ... 1.000e-07
Number of eigenvalues below threshold      ... 0
Time for construction of square roots      ...    0.005 sec
Total time needed                          ...    0.021 sec

-------------------
DFT GRID GENERATION
-------------------

General Integration Accuracy     IntAcc      ... 4.388
Radial Grid Type                 RadialGrid  ... OptM3 with GC (2021)
Angular Grid (max. ang.)         AngularGrid ... 4 (Lebedev-302)
Angular grid pruning method      GridPruning ... 4 (adaptive)
Weight generation scheme         WeightScheme... mBecke (2022)
Basis function cutoff            BFCut       ... 1.0000e-11
Integration weight cutoff        WCut        ... 1.0000e-14
Partially contracted basis set               ... off
Rotationally invariant grid construction     ... off
Angular grids for H and He will be reduced by one unit
Diffuse basis detected: some atoms will have their outermost
                        angular grid increased by 1.

Total number of grid points                  ...    93458
Total number of batches                      ...     1470
Average number of points per batch           ...       63
Average number of grid points per atom       ...     4673
Initializing property integral containers    ... done (  0.0 sec)

SHARK setup successfully completed in   1.3 seconds

Maximum memory used throughout the entire STARTUP-calculation: 46.1 MB
Occupation numbers will be reassigned to an Aufbau configuration
             **** ENERGY FILE WAS UPDATED (xtb_opt.en.tmp) ****
Finished Guess after   0.1 sec
Maximum memory used throughout the entire GUESS-calculation: 21.0 MB
----------------------------------------D-I-I-S--------------------------------------------
Iteration    Energy (Eh)           Delta-E    RMSDP     MaxDP     DIISErr   Damp  Time(sec)
-------------------------------------------------------------------------------------------
               ***  Starting incremental Fock matrix formation  ***
                              *** Initializing SOSCF ***
---------------------------------------S-O-S-C-F--------------------------------------
Iteration    Energy (Eh)           Delta-E    RMSDP     MaxDP     MaxGrad    Time(sec)
--------------------------------------------------------------------------------------
    1    -572.5705201866262541     0.00e+00  6.67e-06  4.66e-04  9.85e-06     4.5
               *** Restarting incremental Fock matrix formation ***
    2    -572.5705201522434891     3.44e-08  1.08e-05  7.94e-04  5.33e-05     3.7
    3    -572.5705198018474675     3.50e-07  8.19e-06  6.26e-04  9.62e-05     2.6
    4    -572.5705202920476040    -4.90e-07  2.22e-06  1.62e-04  3.74e-06     2.6
                  *** Gradient check signals convergence ***

               *****************************************************
               *                     SUCCESS                       *
               *           SCF CONVERGED AFTER   4 CYCLES          *
               *****************************************************

             **** ENERGY FILE WAS UPDATED (xtb_opt.en.tmp) ****

----------------
TOTAL SCF ENERGY
----------------

Total Energy       :       -572.57052029204760 Eh          -15580.43595 eV

Components:
Nuclear Repulsion  :        625.54697696148332 Eh           17021.99862 eV
Electronic Energy  :      -1198.11749725353093 Eh          -32602.43458 eV
One Electron Energy:      -2025.92120241662656 Eh          -55128.11858 eV
Two Electron Energy:        827.80370516309551 Eh           22525.68400 eV

Virial components:
Potential Energy   :      -1142.95634401330653 Eh          -31101.42329 eV
Kinetic Energy     :        570.38582372125882 Eh           15520.98734 eV
Virial Ratio       :          2.00383020839567

DFT components:
N(Alpha)           :       39.999941677638 electrons
N(Beta)            :       39.999941677638 electrons
N(Total)           :       79.999883355276 electrons
E(X)               :      -71.072275521870 Eh       
E(C)               :       -2.661553747030 Eh       
E(XC)              :      -73.733829268900 Eh       

---------------
SCF CONVERGENCE
---------------

  Last Energy change         ...    4.9020e-07  Tolerance :   1.0000e-07
  Last MAX-Density change    ...    1.6207e-04  Tolerance :   1.0000e-07
  Last RMS-Density change    ...    2.2200e-06  Tolerance :   5.0000e-09
  Last DIIS Error            ...    1.8934e-04  Tolerance :   1.0000e-07
  Last Orbital Gradient      ...    3.7409e-06  Tolerance :   1.0000e-04
  Last Orbital Rotation      ...    6.5661e-06  Tolerance :   1.0000e-04


----------------
ORBITAL ENERGIES
----------------

  NO   OCC          E(Eh)            E(eV) 
   0   2.0000     -18.974741      -516.3290 
   1   2.0000     -18.970195      -516.2053 
   2   2.0000     -18.970184      -516.2050 
   3   2.0000     -18.969490      -516.1861 
   4   2.0000     -18.959003      -515.9007 
   5   2.0000     -10.138436      -275.8809 
   6   2.0000     -10.101137      -274.8659 
   7   2.0000     -10.096302      -274.7343 
   8   2.0000     -10.093499      -274.6581 
   9   2.0000     -10.088332      -274.5175 
  10   2.0000      -1.052870       -28.6501 
  11   2.0000      -1.022274       -27.8175 
  12   2.0000      -1.011735       -27.5307 
  13   2.0000      -0.995067       -27.0772 
  14   2.0000      -0.979250       -26.6467 
  15   2.0000      -0.754063       -20.5191 
  16   2.0000      -0.726399       -19.7663 
  17   2.0000      -0.625434       -17.0189 
  18   2.0000      -0.622611       -16.9421 
  19   2.0000      -0.570428       -15.5221 
  20   2.0000      -0.523248       -14.2383 
  21   2.0000      -0.504767       -13.7354 
  22   2.0000      -0.499869       -13.6021 
  23   2.0000      -0.471293       -12.8245 
  24   2.0000      -0.466388       -12.6911 
  25   2.0000      -0.446747       -12.1566 
  26   2.0000      -0.433652       -11.8003 
  27   2.0000      -0.412607       -11.2276 
  28   2.0000      -0.388031       -10.5589 
  29   2.0000      -0.379555       -10.3282 
  30   2.0000      -0.350758        -9.5446 
  31   2.0000      -0.345963        -9.4141 
  32   2.0000      -0.332784        -9.0555 
  33   2.0000      -0.316455        -8.6112 
  34   2.0000      -0.307396        -8.3647 
  35   2.0000      -0.284737        -7.7481 
  36   2.0000      -0.274409        -7.4671 
  37   2.0000      -0.256568        -6.9816 
  38   2.0000      -0.238391        -6.4869 
  39   2.0000      -0.232272        -6.3204 
  40   0.0000       0.026544         0.7223 
  41   0.0000       0.051049         1.3891 
  42   0.0000       0.065266         1.7760 
  43   0.0000       0.071568         1.9475 
  44   0.0000       0.089704         2.4410 
  45   0.0000       0.116882         3.1805 
  46   0.0000       0.122444         3.3319 
  47   0.0000       0.124810         3.3963 
  48   0.0000       0.135702         3.6926 
  49   0.0000       0.145554         3.9607 
  50   0.0000       0.148420         4.0387 
*Only the first 10 virtual orbitals were printed.
Total SCF time: 0 days 0 hours 0 min 13 sec 
Finished LeanSCF after  13.7 sec

Maximum memory used throughout the entire LEANSCF-calculation: 31.8 MB


-------------------------------------------------------------------------------
                          DFT DISPERSION CORRECTION                            
                                                                               
                                DFTD4 V3.4.0                                   
-------------------------------------------------------------------------------
-------------------------   ----------------
Dispersion correction           -0.006342477
-------------------------   ----------------

------------------   -----------------
gCP correction             0.016590106
------------------   -----------------

-------------------------   --------------------
FINAL SINGLE POINT ENERGY      -572.560272663647
-------------------------   --------------------

------------------------------------------------------------------------------
                         ORCA SCF GRADIENT CALCULATION
------------------------------------------------------------------------------

Nuc. rep. gradient        (SHARK) ... done (  0.0 sec)
HCore & Overlap gradient  (SHARK) ... done (  0.6 sec)
Split-RIJ-J gradient      (SHARK) ... done (  3.1 sec)
XC gradient                       ... done ( 11.7 sec)
Dispersion correction             ... done (  0.0 sec)

-------------------
DISPERSION GRADIENT
-------------------

   1   C   :    0.000007234    0.000062167    0.000001444
   2   C   :    0.000059697    0.000020290   -0.000010361
   3   H   :    0.000040063    0.000009635   -0.000014853
   4   C   :    0.000018570   -0.000026291    0.000002658
   5   H   :    0.000009998   -0.000024921    0.000016774
   6   C   :   -0.000039911   -0.000026104   -0.000020414
   7   H   :   -0.000020776   -0.000025536   -0.000027412
   8   C   :   -0.000041464    0.000031643   -0.000007601
   9   H   :   -0.000037877    0.000014784   -0.000007964
  10   O   :   -0.000033611    0.000076267   -0.000028454
  11   O   :   -0.000096232    0.000013240    0.000048305
  12   O   :   -0.000059047   -0.000090736   -0.000002386
  13   O   :    0.000063746   -0.000092781   -0.000015806
  14   O   :    0.000100036    0.000018731    0.000037571
  15   H   :    0.000017566    0.000045569   -0.000007732
  16   H   :    0.000005689    0.000040001    0.000012773
  17   H   :   -0.000033806    0.000015230    0.000016997
  18   H   :   -0.000027954   -0.000028525   -0.000001469
  19   H   :    0.000019442   -0.000038784    0.000007006
  20   H   :    0.000048636    0.000006120    0.000000923

Difference to translation invariance:
           :   -0.0000000000    0.0000000000   -0.0000000000

Difference to rotation invariance:
           :    0.0000000000    0.0000000000   -0.0000000000

Norm of the Dispersion gradient    ...    0.0002979352
RMS gradient                       ...    0.0000384633
MAX gradient                       ...    0.0001000363
gCP correction                   ... done

------------------
CARTESIAN GRADIENT
------------------

   1   C   :   -0.008923009    0.001606202   -0.001312850
   2   C   :    0.013191470    0.002017593   -0.001090757
   3   H   :    0.000968281   -0.000337174    0.001814038
   4   C   :    0.003810280   -0.011190303    0.005847777
   5   H   :    0.000265005   -0.001823041   -0.000143899
   6   C   :   -0.011478066   -0.009799572   -0.002037075
   7   H   :   -0.000699363   -0.001319732    0.001100077
   8   C   :    0.007693013    0.012756447    0.012131531
   9   H   :   -0.000030883   -0.000391708    0.000597853
  10   O   :    0.004657868   -0.003125293    0.003884440
  11   O   :    0.002732803   -0.005654476   -0.010422816
  12   O   :    0.007858728    0.008149397   -0.003680745
  13   O   :   -0.004107895    0.011801083    0.000701069
  14   O   :   -0.012285551   -0.003046212   -0.004739983
  15   H   :   -0.002248641   -0.000661389   -0.000817790
  16   H   :   -0.001687567   -0.000716550   -0.002015104
  17   H   :   -0.000958809    0.001070709   -0.000626491
  18   H   :    0.000578185   -0.000167814    0.000561032
  19   H   :   -0.000120981   -0.000034057    0.000448499
  20   H   :    0.000785131    0.000865890   -0.000198806

Difference to translation invariance:
           :    0.0000000000    0.0000000000    0.0000000000

Difference to rotation invariance:
           :   -0.0003421416   -0.0009720181    0.0005028422

Norm of the Cartesian gradient     ...    0.0417595636
RMS gradient                       ...    0.0053911365
MAX gradient                       ...    0.0131914701

-------
TIMINGS
-------

Total SCF gradient time     ....       15.413 sec

Densities                   ....       0.001 sec  (  0.0%)
One electron gradient       ....       0.593 sec  (  3.8%)
RI-J Coulomb gradient       ....       3.053 sec  ( 19.8%)
XC gradient                 ....      11.713 sec  ( 76.0%)

Maximum memory used throughout the entire SCFGRAD-calculation: 41.2 MB

------------------------------------------------------------------------------
                              ORCA PROPERTY CALCULATIONS
------------------------------------------------------------------------------

GBWName                                 ... xtb_opt.gbw
Number of atoms                         ...     20
Number of basis functions               ...    265
Max core memory                         ...   1024 MB

Electric properties:
Dipole moment                           ... YES
Quadrupole moment                       ...  NO
Static polarizability (Dipole/Dipole)   ...  NO
Static polarizability (Dipole/Quad.)    ...  NO
Static polarizability (Quad./Quad.)     ...  NO
Static polarizability (Velocity)        ...  NO

Atomic electric properties:
Dipole moment                           ...  NO
Quadrupole moment                       ...  NO
Static polarizability                   ...  NO

Choice of electric origin               ... Center of mass
Position of electric origin             ...     0.000003     0.000004    -0.000003

General magnetic properties:
Magnetizability                         ...  NO

EPR properties:
g-Tensor (aka g-matrix)                 ...  NO
Zero-Field splitting spin-orbit         ...  NO
Zero-field splitting spin-spin          ...  NO
Hyperfine couplings                     ...  NO (   0 nuclei)
Quadrupole couplings                    ...  NO (   0 nuclei)
Contact density                         ...  NO (   0 nuclei)

NMR properties:
Chemical shifts                         ...  NO (   0 nuclei)
Spin-rotation constants                 ...  NO (   0 nuclei)
Spin-spin couplings                     ...  NO (   0 nuclei,    0 pairs)

Choice of magnetic origin               ... GIAO
Position of magnetic origin             ...     0.000000     0.000000     0.000000

Properties with geometric perturbations:
SCF Hessian                             ...  NO
IR spectrum                             ...  NO
VCD spectrum                            ...  NO
X-ray spectroscopy properties:
SCF XES/XAS/RIXS spectra                ...  NO


-------------
DIPOLE MOMENT
-------------

Method             : SCF
Type of density    : Electron Density
Multiplicity       :   1
Irrep              :   0
Energy             :  -572.5705202920476040 Eh
Relativity type    : 
Basis              : AO
                                X                 Y                 Z
Electronic contribution:     -1.034274983      -0.222866418      -0.056167017
Nuclear contribution   :      1.388526631      -0.188695780       0.026388635
                        -----------------------------------------
Total Dipole Moment    :      0.354251648      -0.411562198      -0.029778383
                        -----------------------------------------
Magnitude (a.u.)       :      0.543842279
Magnitude (Debye)      :      1.382337217



--------------------
Rotational spectrum 
--------------------
 
Rotational constants in cm-1:             0.057313             0.044820             0.029108 
Rotational constants in MHz :          1718.205489          1343.679538           872.627009 

Dipole components along the rotational axes: 
x,y,z [a.u.] :     0.343588     0.420447    -0.030600 
x,y,z [Debye]:     0.873331     1.068691    -0.077778 

 

Dipole moment calculation done in   0.0 sec 

Maximum memory used throughout the entire PROP-calculation: 20.0 MB

--------------------------------
SUGGESTED CITATIONS FOR THIS RUN
--------------------------------

Below you find a list of papers that are relevant to this ORCA run
We neither can nor want to force you to cite these papers, but we appreciate if you do
You receive ORCA, which is the product of decades of hard work by many enthusiastic individuals, for free
The only thing we kindly ask in return is that you cite our papers,
We deeply appreciate it, if you show your appreciation for ORCA by not just citing the generic ORCA reference.

Please note that relegating all ORCA citations to the supporting information does *not* help us.
SI sections are not indexed - citations you put there will not count into any citation statistics
But we need these citations in order to attract the funding resources that allow us to do what we are doing

Therefore, if you are a happy ORCA user, please consider citing a few of the papers listed below in the main body of your paper

In addition to the list printed below, the program has created the file xtb_opt.bibtex that contains the list in bibtex format
You can import this file easily into all common literature databanks and citation aid programs


List of essential papers. We consider these as the minimum necessary citations

  1. Neese,F.
     Software update: the ORCA program system, version 5.0
     WIRES Comput. Molec. Sci., 2022 12(1)e1606
     doi.org/10.1002/wcms.1606
  2. Grimme,S.; Hansen,A.; Ehlert,S.; Mewes,J.
     r2SCAN-3c: A 'Swiss army knife' composite electronic-structure method
     J. Chem. Phys., 2021 154 064103
     doi.org/10.1063/5.0040021

List of papers to cite with high priority. The work reported in these papers was absolutely
necessary for this run to complete.
Our perspective: the developers of density functionals and basis sets usually get cited in chemistry papers
Good! But without the algorithms to do something with them, the functionals or basis sets would not do anything.
Hence, in our opinion, the algorithm design and method developments papers are equally worthy of getting cited

  1. Neese,F.
     An improvement of the resolution of the identity approximation for the formation of the Coulomb matrix
     J. Comp. Chem., 2003 24(14)1740-1747
     doi.org/10.1002/jcc.10318
  2. Neese,F.
     The SHARK Integral Generation and Digestion System
     J. Comp. Chem., 2022  1-16
     doi.org/10.1002/jcc.26942
  3. Lehtola,S.; Steigemann,C.; Oliveira,M.; Marques,M.
     Recent developments in Libxc - A comprehensive library of functionals for density functional theory
     Software X, 2018 7 
     doi.org/10.1016/j.softx.2017.11.002
  4. Caldeweyher,E.; Bannwarth,C.; Grimme,S.
     Extension of the D3 dispersion coefficient model
     J. Chem. Phys., 2017 147 034112
     doi.org/10.1063/1.4993215
  5. Caldeweyher,E.; Ehlert,S.; Hansen,A.; Neugebauer,H.; Spicher,S.; Bannwarth,C.; Grimme,S.
     A generally applicable atomic-charge dependent London dispersion correction
     J. Chem. Phys., 2019 150 154122
     doi.org/10.1063/1.5090222
  6. Caldeweyher,E.; Mewes,J.; Ehlert,S.; Grimme,S.
     Extension and evaluation of the D4 London-dispersion model for periodic systems
     Phys. Chem. Chem. Phys., 2020 22(16)8499-8512
     doi.org/10.1039/D0CP00502A
  7. Wittmann,L.; Gordiy,I.; Friede,M.; Helmich-Paris,B.; Grimme,S.; Hansen,A.; Bursch,M.
     Extension of the D3 and D4 London Dispersion Corrections to the full Actinides Series
     Phys. Chem. Chem. Phys., 2024 26(32)21379-21394
     doi.org/https://doi.org/10.1039/D4CP01514B 

List of suggested additional citations. These are papers that are important in the 'surrounding' of 
of this run, or papers that preceded the highly important papers. If you like your results we are grateful for a citation.

  1. Neese,F.
     The ORCA program system
     WIRES Comput. Molec. Sci., 2012 2(1)73-78
     doi.org/10.1002/wcms.81
  2. Neese,F.
     Software update: the ORCA program system, version 4.0
     WIRES Comput. Molec. Sci., 2018 8(1)1-6
     doi.org/10.1002/wcms.1327
  3. Neese,F.; Wennmohs,F.; Becker,U.; Riplinger,C.
     The ORCA quantum chemistry program package
     J. Chem. Phys., 2020 152 Art. No. L224108
     doi.org/10.1063/5.0004608

List of optional additional citations

  1. Neese,F.
     Approximate second-order SCF convergence for spin unrestricted wavefunctions
     Chem. Phys. Lett., 2000 325(1-3)93-98
     doi.org/10.1016/s0009-2614(00)00662-x

Timings for individual modules:

Sum of individual times          ...       30.785 sec (=   0.513 min)
Startup calculation              ...        1.336 sec (=   0.022 min)   4.3 %
SCF iterations                   ...       13.878 sec (=   0.231 min)  45.1 %
Property calculations            ...        0.082 sec (=   0.001 min)   0.3 %
SCF Gradient evaluation          ...       15.489 sec (=   0.258 min)  50.3 %
                             ****ORCA TERMINATED NORMALLY****
TOTAL RUN TIME: 0 days 0 hours 0 minutes 30 seconds 915 msec
  ------------------------------------------------------------------------
          * successful ORCA run, taking over control again...

         :::::::::::::::::::::::::::::::::::::::::::::::::::::
         ::                  ORCA SUMMARY                   ::
         :::::::::::::::::::::::::::::::::::::::::::::::::::::
         :: total energy            -572.560272663647 Eh    ::
         :: gradient norm              0.041759563641 Eh/a0 ::
         :: HOMO-LUMO gap              0.000000000000 eV    ::
         :::::::::::::::::::::::::::::::::::::::::::::::::::::

      ----------------------------------------------------------- 
     |                       L-ANC optimizer                     |
      ----------------------------------------------------------- 
          low memory version by Sebastian Ehlert

          ...................................................
          :                      SETUP                      :
          :.................................................:
          :   energy convergence        0.5000000E-05 Eh    :
          :   grad. convergence         0.1000000E-02 Eh/a0 :
          :   optimization log               true           :
          :   writing optlog all                1     steps :
          :   Hessian reset                     8     steps :
          :   maximium step len.        1.0000000     a0    :
          :   LBFGS images                      8           :
          ...................................................
 * calculating model hessian...
Using Lindh-Hessian (1995)
 Shifting diagonal of input Hessian by    1.0000000000000000E-002
 Lowest  eigenvalues of input Hessian
    0.000000    0.000000    0.000000    0.000000    0.000000    0.000000
    0.015574    0.016273    0.020867    0.022845    0.024439    0.026270
    0.029763    0.034035    0.041394    0.042303    0.044978    0.049920
 Highest eigenvalues
    1.330660    1.471372    1.496263    1.515396    1.546464    1.669391


........................................................................
.............................. CYCLE    1 ..............................
........................................................................
                         * ORCA takes the control...
  ------------------------------------------------------------------------

                                 *****************
                                 * O   R   C   A *
                                 *****************

                                            #,                                       
                                            ###                                      
                                            ####                                     
                                            #####                                    
                                            ######                                   
                                           ########,                                 
                                     ,,################,,,,,                         
                               ,,#################################,,                 
                          ,,##########################################,,             
                       ,#########################################, ''#####,          
                    ,#############################################,,   '####,        
                  ,##################################################,,,,####,       
                ,###########''''           ''''###############################       
              ,#####''   ,,,,##########,,,,          '''####'''          '####       
            ,##' ,,,,###########################,,,                        '##       
           ' ,,###''''                  '''############,,,                           
         ,,##''                                '''############,,,,        ,,,,,,###''
      ,#''                                            '''#######################'''  
     '                                                          ''''####''''         
             ,#######,   #######,   ,#######,      ##                                
            ,#'     '#,  ##    ##  ,#'     '#,    #''#        ,####,   ,####,        
            ##       ##  ##   ,#'  ##            #'  '#       #'       #'  '#        
            ##       ##  #######   ##           ,######,      #####,   #    #        
            '#,     ,#'  ##    ##  '#,     ,#' ,#      #,     #,   #   #,  ,#        
             '#######'   ##     ##  '#######'  #'      '#     '####' # '####'        



                #########################################################
                #                        -***-                          #
                #          Department of theory and spectroscopy        #
                #                                                       #
                #                      Frank Neese                      #
                #                                                       #
                #     Directorship, Architecture, Infrastructure        #
                #                    SHARK, DRIVERS                     #
                #        Core code/Algorithms in most modules           #
                #                                                       #
                #        Max Planck Institute fuer Kohlenforschung      #
                #                Kaiser Wilhelm Platz 1                 #
                #                 D-45470 Muelheim/Ruhr                 #
                #                      Germany                          #
                #                                                       #
                #                  All rights reserved                  #
                #                        -***-                          #
                #########################################################


                         Program Version 6.0.1  -  RELEASE   -


 With contributions from (in alphabetic order):
[Max-Planck-Institut fuer Kohlenforschung]                               
  Daniel Aravena         : Magnetic Suceptibility                        
  Michael Atanasov       : Ab Initio Ligand Field Theory (pilot matlab implementation)
  Alexander A. Auer      : GIAO ZORA, VPT2 properties, NMR spectrum      
  Ute Becker             : All parallelization in ORCA, NUMFREQ, NUMCALC 
  Giovanni Bistoni       : ED, misc. LED, open-shell LED, HFLD           
  Martin Brehm           : Molecular dynamics                            
  Dmytro Bykov           : pre 5.0 version of the SCF Hessian            
  Marcos Casanova-Páez   : Triplet and SCS-CIS(D). UHF-(DLPNO)-IP/EA/STEOM-CCSD. UHF-CVS-IP/STEOM-CCSD   
  Vijay G. Chilkuri      : MRCI spin determinant printing, contributions to CSF-ICE 
  Pauline Colinet        : FMM embedding                                 
  Dipayan Datta          : RHF DLPNO-CCSD density                        
  Achintya Kumar Dutta   : EOM-CC, STEOM-CC                              
  Nicolas Foglia         : Exact transition moments, OPA infrastructure, MCD improvements    
  Dmitry Ganyushin       : Spin-Orbit,Spin-Spin,Magnetic field MRCI      
  Miquel Garcia-Rates    : C-PCM and meta-GGA Hessian, CCSD/C-PCM, Gaussian charge scheme 
  Tiago L. C. Gouveia    : GS-ROHF, GS-ROCIS                             
  Yang Guo               : DLPNO-NEVPT2, F12-NEVPT2, CIM, IAO-localization        
  Andreas Hansen         : Spin unrestricted coupled pair/coupled cluster methods 
  Ingolf Harden          : AUTO-CI MPn and infrastructure                
  Benjamin Helmich-Paris : MC-RPA, TRAH-(SCF,CASSCF), AVAS, COSX integrals, SCF dyn. polar. 
  Lee Huntington         : MR-EOM, pCC                                   
  Robert Izsak           : Overlap fitted RIJCOSX, COSX-SCS-MP3, EOM     
  Riya Kayal             : Wick's Theorem for AUTO-CI, AUTO-CI UHF-CCSDT 
  Emily Kempfer          : AUTO-CI, RHF CISDT and CCSDT                  
  Christian Kollmar      : KDIIS, OOCD, Brueckner-CCSD(T), CCSD density, CASPT2, CASPT2-K, improved NEVPT2 
  Axel Koslowski         : Symmetry handling                             
  Simone Kossmann        : meta-GGA functionals, TD-DFT gradient, OOMP2, (MP2 Hessian; deprecated post 5.0) 
  Lucas Lang             : DCDCAS                                        
  Marvin Lechner         : AUTO-CI (C++ implementation), FIC-MRCC        
  Spencer Leger          : CASSCF response                               
  Dagmar Lenk            : GEPOL surface, SMD, ORCA-2-JSON               
  Dimitrios Liakos       : Extrapolation schemes; Compound Job, initial MDCI parallelization 
  Dimitrios Manganas     : Further ROCIS development; embedding schemes. LFT, Crystal Embedding 
  Dimitrios Pantazis     : SARC Basis sets                               
  Anastasios Papadopoulos: AUTO-CI, single reference methods and gradients 
  Taras Petrenko         : pre 6.0 DFT Hessian and TD-DFT gradient, (ASA, deprecated), ECA, 1-Electron XAS/XES, NRVS 
  Peter Pinski           : DLPNO-MP2, DLPNO-MP2 Gradient                 
  Christoph Reimann      : Effective Core Potentials                     
  Marius Retegan         : Local ZFS, SOC                                
  Christoph Riplinger    : Optimizer, TS searches, QM/MM, DLPNO-CCSD(T), (RO)-DLPNO pert. Triples 
  Michael Roemelt        : Original ROCIS implementation                 
  Masaaki Saitow         : Open-shell DLPNO-CCSD energy and density      
  Barbara Sandhoefer     : DKH picture change effects                    
  Kantharuban Sivalingam : CASSCF convergence/infrastructure, NEVPT2 and variants, FIC-MRCI 
  Bernardo de Souza      : ESD, SOC TD-DFT                               
  Georgi L. Stoychev     : AutoAux, RI-MP2 NMR, DLPNO-MP2 response, X2C  
  Van Anh Tran           : RI-MP2 g-tensors                              
  Willem Van den Heuvel  : Paramagnetic NMR                              
  Zikuan Wang            : NOTCH, Electric field optimization            
  Frank Wennmohs         : Technical directorship and infrastructure     
  Hang Xu                : AUTO-CI-Response properties                   
                                                                         
[FACCTs GmbH]                                                            
  Markus Bursch, Miquel Garcia-Rates, Christoph Riplinger, Bernardo de Souza, Georgi L. Stoychev 
                                                                 
  APM, Basis sets (HGBS, AHGBS, def-TZVP (Ac-Lr), def2-XVPD (La-Lu)), CI-OPT, improved COSX, DLPNO-Multilevel,           
  DOCKER, DRACO, updates on ESD, GOAT, IRC, LR-CPCM, MBIS, meta-GGA TD-DFT gradient, ML-optimized integration grids, 
  MM, NACMEs, nearIR, NEB, NEB-TS, NL-DFT gradient (VV10), 2- and 3-layer-ONIOM, interface openCOSMO-RS, QMMM,   
  Crystal-QMMM, SF, symmetry and pop. for TD-DFT, r2SCAN hybrids, SOLVATOR                                   
                                                                         
[Other institutions]                                                     
  V. Asgeirsson          : NEB                                           
  Christoph Bannwarth    : sTDA-DFT, sTD-DFT, PBEh-3c, B97-3c, D3        
  Sebastian Ehlert       : rSCAN, r2SCAN, r2SCAN-3c, D4, dhf basis sets  
  Marvin Friede          : D4 for Fr, Ra, Ac-Lr                          
  Lars Goerigk           : TD-DFT with DH, B97 family of functionals     
  Stefan Grimme          : VdW corrections, initial TS optimization, DFT functionals, gCP, sTDA/sTD-DF 
  Waldemar Hujo          : DFT-NL                                        
  H. Jonsson             : NEB                                           
  Holger Kruse           : gCP                                           
  Marcel Mueller         : wB97X-3c, vDZP basis set                      
  Hagen Neugebauer       : wr2SCAN                                       
  Tobias Risthaus        : range-separated hybrid DFT                    
  Lukas Wittmann         : regularized MP2, r2SCAN double-hybrids, wr2SCAN        
                                                                         
We gratefully acknowledge several colleagues who have allowed us to      
interface, adapt or use parts of their codes:                            
  Ed Valeev, F. Pavosevic, A. Kumar             : LibInt (2-el integral package), F12 methods 
  Garnet Chan, S. Sharma, J. Yang, R. Olivares  : DMRG                   
  Ulf Ekstrom                                   : XCFun DFT Library      
  Mihaly Kallay                                 : mrcc  (arbitrary order and MRCC methods)
  Frank Weinhold                                : gennbo (NPA and NBO analysis)           
  Simon Mueller                                 : openCOSMO-RS                            
  Christopher J. Cramer and Donald G. Truhlar   : smd solvation model                     
  S Lehtola, MJT Oliveira, MAL Marques          : LibXC Library                           
  Liviu Ungur et al                             : ANISO software                          


 Your calculation uses the libint2 library for the computation of 2-el integrals
 For citations please refer to: http://libint.valeyev.net

 Your ORCA version has been built with support for libXC version: 6.2.2
 For citations please refer to: https://libxc.gitlab.io

 This ORCA versions uses:
   CBLAS   interface :  Fast vector & matrix operations
   LAPACKE interface :  Fast linear algebra routines
   SCALAPACK package :  Parallel linear algebra routines
   Shared memory     :  Shared parallel matrices
   BLAS/LAPACK       :  OpenBLAS 0.3.27  USE64BITINT DYNAMIC_ARCH NO_AFFINITY Zen SINGLE_THREADED
        Core in use  :  Zen
   Copyright (c) 2011-2014, The OpenBLAS Project




***************************************
The coordinates will be read from file: xtb_opt.xyz
***************************************


Your calculation utilizes the geometrical counterpoise correction gCP
Please cite in your paper:
H.Kruse, S. Grimme J.Chem.Phys., 136, (2012), 154101 
   

Your calculation utilizes the atom-pairwise dispersion correction
based on EEQ partial charges (D4)


================================================================================

----- Orbital basis set information -----
Your calculation utilizes the basis: def2-mTZVPP
   Stefan Grimme, Andreas Hansen, Sebastian Ehlert, and Jan-Michael Mewes 
   J. Chem. Phys. 154, 064103 (2021). DOI: 10.1063/5.0040021

----- AuxJ basis set information -----
Your calculation utilizes the auxiliary basis: def2/J
   F. Weigend, Phys. Chem. Chem. Phys. 8, 1057 (2006).

================================================================================
                                        WARNINGS
                       Please study these warnings very carefully!
================================================================================

WARNING: Old DensityContainer found on disk!
         Will remove this file - 
         If you want to keep old densities, please start your calculation with a different basename. 



WARNING: SCAN, rSCAN, or r2SCAN functional requested.
  ===> : libXC variant has now been activated.



================================================================================
                                       INPUT FILE
================================================================================
NAME = xtb_opt.inp
|  1> ! r2scan-3c def2/J RI DEFGRID2 scfconv7 ENGRAD tightSCF miniprint
|  2> * xyzfile 0 1 xtb_opt.xyz
|  3> 
|  4>                          ****END OF INPUT****
================================================================================

                     *******************************
                     * Energy+Gradient Calculation *
                     *******************************

---------------------------------
CARTESIAN COORDINATES (ANGSTROEM)
---------------------------------
  C      0.584689    1.705355    0.014663
  C      1.397539    0.428814   -0.241574
  H      1.600732    0.354794   -1.319763
  C      0.554868   -0.772921    0.185507
  H      0.345353   -0.693884    1.262530
  C     -0.789057   -0.735789   -0.552060
  H     -0.606975   -0.838874   -1.634916
  C     -1.493968    0.612077   -0.304431
  H     -2.381025    0.702397   -0.950121
  O     -0.662753    1.671790   -0.673023
  O     -1.846832    0.735722    1.054734
  O     -1.655762   -1.756660   -0.089375
  O      1.191207   -2.029335   -0.000285
  O      2.666522    0.466064    0.379037
  H      1.122323    2.575835   -0.367164
  H      0.428143    1.828978    1.096546
  H     -2.250302   -0.107070    1.307490
  H     -1.123376   -2.557464    0.008525
  H      1.829545   -1.953719   -0.718611
  H      2.544595    0.498872    1.335921

----------------------------
CARTESIAN COORDINATES (A.U.)
----------------------------
  NO LB      ZA    FRAG     MASS         X           Y           Z
   0 C     6.0000    0    12.011    1.104903    3.222653    0.027710
   1 C     6.0000    0    12.011    2.640967    0.810341   -0.456509
   2 H     1.0000    0     1.008    3.024944    0.670464   -2.493991
   3 C     6.0000    0    12.011    1.048548   -1.460609    0.350557
   4 H     1.0000    0     1.008    0.652623   -1.311250    2.385836
   5 C     6.0000    0    12.011   -1.491101   -1.390439   -1.043242
   6 H     1.0000    0     1.008   -1.147016   -1.585242   -3.089543
   7 C     6.0000    0    12.011   -2.823190    1.156658   -0.575290
   8 H     1.0000    0     1.008   -4.499485    1.327339   -1.795469
   9 O     8.0000    0    15.999   -1.252421    3.159226   -1.271829
  10 O     8.0000    0    15.999   -3.490006    1.390313    1.993159
  11 O     8.0000    0    15.999   -3.128938   -3.319605   -0.168893
  12 O     8.0000    0    15.999    2.251055   -3.834887   -0.000538
  13 O     8.0000    0    15.999    5.038997    0.880734    0.716276
  14 H     1.0000    0     1.008    2.120883    4.867623   -0.693839
  15 H     1.0000    0     1.008    0.809074    3.456267    2.072171
  16 H     1.0000    0     1.008   -4.252455   -0.202333    2.470798
  17 H     1.0000    0     1.008   -2.122874   -4.832907    0.016109
  18 H     1.0000    0     1.008    3.457339   -3.691993   -1.357979
  19 H     1.0000    0     1.008    4.808587    0.942731    2.524524

------------------------------------------------------------------------------
                   ___                                                        
                  /   \      - P O W E R E D   B Y -                         
                 /     \                                                     
                 |  |  |   _    _      __       _____    __    __             
                 |  |  |  | |  | |    /  \     |  _  \  |  |  /  |          
                  \  \/   | |  | |   /    \    | | | |  |  | /  /          
                 / \  \   | |__| |  /  /\  \   | |_| |  |  |/  /          
                |  |  |   |  __  | /  /__\  \  |    /   |      \           
                |  |  |   | |  | | |   __   |  |    \   |  |\   \          
                \     /   | |  | | |  |  |  |  | |\  \  |  | \   \       
                 \___/    |_|  |_| |__|  |__|  |_| \__\ |__|  \__/        
                                                                              
                      - O R C A' S   B I G   F R I E N D -                    
                                      &                                       
                       - I N T E G R A L  F E E D E R -                       
                                                                              
 v1 FN, 2020, v2 2021, v3 2022-2024                                           
------------------------------------------------------------------------------


----------------------
SHARK INTEGRAL PACKAGE
----------------------

Number of atoms                             ...     20
Number of basis functions                   ...    265
Number of shells                            ...    125
Maximum angular momentum                    ...      2
Integral batch strategy                     ... SHARK/LIBINT Hybrid
RI-J (if used) integral strategy            ... SPLIT-RIJ (Revised 2003 algorithm where possible)
Printlevel                                  ...      1
Contraction scheme used                     ... SEGMENTED contraction
Prescreening option                         ... SCHWARTZ
   Thresh                                   ... 3.000e-11
   Tcut                                     ... 1.000e-12
   Tpresel                                  ... 1.000e-12 
Coulomb Range Separation                    ... NOT USED
Exchange Range Separation                   ... NOT USED
Multipole approximations                    ... NOT USED
Finite Nucleus Model                        ... NOT USED
CABS basis                                  ... NOT available
Auxiliary Coulomb fitting basis             ... AVAILABLE
   # of basis functions in Aux-J            ...    600
   # of shells in Aux-J                     ...    200
   Maximum angular momentum in Aux-J        ...      4
Auxiliary J/K fitting basis                 ... NOT available
Auxiliary Correlation fitting basis         ... NOT available
Auxiliary 'external' fitting basis          ... NOT available

Checking pre-screening integrals            ... done (  0.0 sec) Dimension = 125
Check shell pair data                       ... done (  0.0 sec)
Shell pair information
Shell pair cut-off parameter TPreSel        ...   1.0e-12
Total number of shell pairs                 ...      7875
Shell pairs after pre-screening             ...      7166
Total number of primitive shell pairs       ...     27980
Primitive shell pairs kept                  ...     17993
          la=0 lb=0:   2169 shell pairs
          la=1 lb=0:   2557 shell pairs
          la=1 lb=1:    776 shell pairs
          la=2 lb=0:    974 shell pairs
          la=2 lb=1:    574 shell pairs
          la=2 lb=2:    116 shell pairs

Calculating one electron integrals          ... done (  0.0 sec)
Calculating RI/J V-Matrix + Cholesky decomp.... done (  0.0 sec)
Calculating Nuclear repulsion               ... done (  0.0 sec) ENN=    623.466791716023 Eh

Diagonalization of the overlap matrix:
Smallest eigenvalue                        ... 4.776e-05
Time for diagonalization                   ...    0.008 sec
Threshold for overlap eigenvalues          ... 1.000e-07
Number of eigenvalues below threshold      ... 0
Time for construction of square roots      ...    0.003 sec
Total time needed                          ...    0.012 sec

-------------------
DFT GRID GENERATION
-------------------

General Integration Accuracy     IntAcc      ... 4.388
Radial Grid Type                 RadialGrid  ... OptM3 with GC (2021)
Angular Grid (max. ang.)         AngularGrid ... 4 (Lebedev-302)
Angular grid pruning method      GridPruning ... 4 (adaptive)
Weight generation scheme         WeightScheme... mBecke (2022)
Basis function cutoff            BFCut       ... 1.0000e-11
Integration weight cutoff        WCut        ... 1.0000e-14
Partially contracted basis set               ... off
Rotationally invariant grid construction     ... off
Angular grids for H and He will be reduced by one unit
Diffuse basis detected: some atoms will have their outermost
                        angular grid increased by 1.

Total number of grid points                  ...    93472
Total number of batches                      ...     1471
Average number of points per batch           ...       63
Average number of grid points per atom       ...     4674
Initializing property integral containers    ... done (  0.0 sec)

SHARK setup successfully completed in   1.2 seconds

Maximum memory used throughout the entire STARTUP-calculation: 46.1 MB
Occupation numbers will be reassigned to an Aufbau configuration
             **** ENERGY FILE WAS UPDATED (xtb_opt.en.tmp) ****
Finished Guess after   0.1 sec
Maximum memory used throughout the entire GUESS-calculation: 20.9 MB
----------------------------------------D-I-I-S--------------------------------------------
Iteration    Energy (Eh)           Delta-E    RMSDP     MaxDP     DIISErr   Damp  Time(sec)
-------------------------------------------------------------------------------------------
               ***  Starting incremental Fock matrix formation  ***
    1    -572.5709682024403264     0.00e+00  1.42e-04  4.61e-03  7.51e-03  0.700   3.0
    2    -572.5712080094358498    -2.40e-04  1.36e-04  5.05e-03  5.71e-03  0.700   3.2
                               ***Turning on AO-DIIS***
    3    -572.5713843767023263    -1.76e-04  1.08e-04  4.40e-03  4.10e-03  0.700   3.0
                              *** Initializing SOSCF ***
---------------------------------------S-O-S-C-F--------------------------------------
Iteration    Energy (Eh)           Delta-E    RMSDP     MaxDP     MaxGrad    Time(sec)
--------------------------------------------------------------------------------------
    4    -572.5715070523915529    -1.23e-04  2.65e-04  1.06e-02  2.89e-03     2.9
               *** Restarting incremental Fock matrix formation ***
    5    -572.5717967056609723    -2.90e-04  1.47e-05  5.17e-04  2.96e-05     3.2
    6    -572.5717967383391169    -3.27e-08  7.01e-06  3.27e-04  3.03e-05     3.0
                 **** Energy Check signals convergence ****

               *****************************************************
               *                     SUCCESS                       *
               *           SCF CONVERGED AFTER   6 CYCLES          *
               *****************************************************

             **** ENERGY FILE WAS UPDATED (xtb_opt.en.tmp) ****

----------------
TOTAL SCF ENERGY
----------------

Total Energy       :       -572.57179673833912 Eh          -15580.47069 eV

Components:
Nuclear Repulsion  :        623.46679171602318 Eh           16965.39391 eV
Electronic Energy  :      -1196.03858845436230 Eh          -32545.86459 eV
One Electron Energy:      -2021.77843528075528 Eh          -55015.38815 eV
Two Electron Energy:        825.73984682639298 Eh           22469.52356 eV

Virial components:
Potential Energy   :      -1142.84941965495318 Eh          -31098.51373 eV
Kinetic Energy     :        570.27762291661418 Eh           15518.04304 eV
Virial Ratio       :          2.00402290696589

DFT components:
N(Alpha)           :       39.999935463621 electrons
N(Beta)            :       39.999935463621 electrons
N(Total)           :       79.999870927242 electrons
E(X)               :      -71.044295488600 Eh       
E(C)               :       -2.659411802864 Eh       
E(XC)              :      -73.703707291465 Eh       

---------------
SCF CONVERGENCE
---------------

  Last Energy change         ...    3.2678e-08  Tolerance :   1.0000e-07
  Last MAX-Density change    ...    3.2672e-04  Tolerance :   1.0000e-07
  Last RMS-Density change    ...    7.0080e-06  Tolerance :   5.0000e-09
  Last DIIS Error            ...    2.8865e-03  Tolerance :   1.0000e-07
  Last Orbital Gradient      ...    3.0344e-05  Tolerance :   1.0000e-04
  Last Orbital Rotation      ...    3.1461e-05  Tolerance :   1.0000e-04


----------------
ORBITAL ENERGIES
----------------

  NO   OCC          E(Eh)            E(eV) 
   0   2.0000     -18.974655      -516.3266 
   1   2.0000     -18.971697      -516.2461 
   2   2.0000     -18.971211      -516.2329 
   3   2.0000     -18.970089      -516.2024 
   4   2.0000     -18.959762      -515.9213 
   5   2.0000     -10.140476      -275.9364 
   6   2.0000     -10.102756      -274.9100 
   7   2.0000     -10.098717      -274.8001 
   8   2.0000     -10.096028      -274.7269 
   9   2.0000     -10.090144      -274.5668 
  10   2.0000      -1.048943       -28.5432 
  11   2.0000      -1.019432       -27.7402 
  12   2.0000      -1.008897       -27.4535 
  13   2.0000      -0.993014       -27.0213 
  14   2.0000      -0.975919       -26.5561 
  15   2.0000      -0.757593       -20.6152 
  16   2.0000      -0.727468       -19.7954 
  17   2.0000      -0.626600       -17.0507 
  18   2.0000      -0.621713       -16.9177 
  19   2.0000      -0.569323       -15.4921 
  20   2.0000      -0.522216       -14.2102 
  21   2.0000      -0.504243       -13.7212 
  22   2.0000      -0.498275       -13.5588 
  23   2.0000      -0.471023       -12.8172 
  24   2.0000      -0.464702       -12.6452 
  25   2.0000      -0.445507       -12.1229 
  26   2.0000      -0.433458       -11.7950 
  27   2.0000      -0.411541       -11.1986 
  28   2.0000      -0.387328       -10.5397 
  29   2.0000      -0.378715       -10.3054 
  30   2.0000      -0.352248        -9.5852 
  31   2.0000      -0.345752        -9.4084 
  32   2.0000      -0.333195        -9.0667 
  33   2.0000      -0.316255        -8.6057 
  34   2.0000      -0.306399        -8.3375 
  35   2.0000      -0.284969        -7.7544 
  36   2.0000      -0.275042        -7.4843 
  37   2.0000      -0.257406        -7.0044 
  38   2.0000      -0.241560        -6.5732 
  39   2.0000      -0.234540        -6.3822 
  40   0.0000       0.023203         0.6314 
  41   0.0000       0.050459         1.3731 
  42   0.0000       0.063973         1.7408 
  43   0.0000       0.070778         1.9260 
  44   0.0000       0.087878         2.3913 
  45   0.0000       0.115504         3.1430 
  46   0.0000       0.120468         3.2781 
  47   0.0000       0.121978         3.3192 
  48   0.0000       0.134530         3.6608 
  49   0.0000       0.145076         3.9477 
  50   0.0000       0.147510         4.0140 
*Only the first 10 virtual orbitals were printed.
Total SCF time: 0 days 0 hours 0 min 18 sec 
Finished LeanSCF after  18.6 sec

Maximum memory used throughout the entire LEANSCF-calculation: 31.8 MB


-------------------------------------------------------------------------------
                          DFT DISPERSION CORRECTION                            
                                                                               
                                DFTD4 V3.4.0                                   
-------------------------------------------------------------------------------
-------------------------   ----------------
Dispersion correction           -0.006327943
-------------------------   ----------------

------------------   -----------------
gCP correction             0.016340315
------------------   -----------------

-------------------------   --------------------
FINAL SINGLE POINT ENERGY      -572.561784365983
-------------------------   --------------------

------------------------------------------------------------------------------
                         ORCA SCF GRADIENT CALCULATION
------------------------------------------------------------------------------

Nuc. rep. gradient        (SHARK) ... done (  0.0 sec)
HCore & Overlap gradient  (SHARK) ... done (  0.6 sec)
Split-RIJ-J gradient      (SHARK) ... done (  2.9 sec)
XC gradient                       ... done (  9.2 sec)
Dispersion correction             ... done (  0.0 sec)

-------------------
DISPERSION GRADIENT
-------------------

   1   C   :    0.000010228    0.000063661    0.000001851
   2   C   :    0.000060451    0.000020633   -0.000010357
   3   H   :    0.000039808    0.000009878   -0.000014715
   4   C   :    0.000019863   -0.000027022    0.000002795
   5   H   :    0.000010256   -0.000024735    0.000016615
   6   C   :   -0.000040392   -0.000026207   -0.000020665
   7   H   :   -0.000020555   -0.000025171   -0.000027197
   8   C   :   -0.000045993    0.000030399   -0.000007764
   9   H   :   -0.000037472    0.000014492   -0.000007780
  10   O   :   -0.000033545    0.000074835   -0.000027962
  11   O   :   -0.000095689    0.000013318    0.000047578
  12   O   :   -0.000058605   -0.000090261   -0.000002848
  13   O   :    0.000063159   -0.000092732   -0.000015786
  14   O   :    0.000098906    0.000019212    0.000037739
  15   H   :    0.000017677    0.000045050   -0.000007489
  16   H   :    0.000006296    0.000039901    0.000012435
  17   H   :   -0.000034441    0.000015768    0.000017041
  18   H   :   -0.000027773   -0.000028668   -0.000001362
  19   H   :    0.000019243   -0.000038971    0.000006840
  20   H   :    0.000048579    0.000006620    0.000001031

Difference to translation invariance:
           :    0.0000000000   -0.0000000000    0.0000000000

Difference to rotation invariance:
           :   -0.0000000000   -0.0000000000   -0.0000000000

Norm of the Dispersion gradient    ...    0.0002977263
RMS gradient                       ...    0.0000384363
MAX gradient                       ...    0.0000989056
gCP correction                   ... done

------------------
CARTESIAN GRADIENT
------------------

   1   C   :   -0.004187825    0.001783353   -0.002051387
   2   C   :    0.007166413    0.001778166    0.002548727
   3   H   :   -0.000497231   -0.000222458    0.000417687
   4   C   :    0.002765394   -0.006697065   -0.000665126
   5   H   :   -0.000510669    0.000105957   -0.000504819
   6   C   :   -0.004064338   -0.004904007    0.000867548
   7   H   :    0.000335197   -0.000244142    0.000389850
   8   C   :   -0.000551304    0.005821975    0.004041883
   9   H   :   -0.000402167    0.000120943   -0.000126700
  10   O   :    0.001038768   -0.003637429    0.002640409
  11   O   :    0.002653577   -0.001236393   -0.004029965
  12   O   :    0.002756162    0.003627261   -0.002073561
  13   O   :   -0.001106690    0.004839641    0.000260631
  14   O   :   -0.005038616   -0.001532426   -0.001898302
  15   H   :   -0.000123572   -0.000093430    0.000129987
  16   H   :    0.000057360   -0.000481883   -0.000342398
  17   H   :   -0.000872885    0.000255944   -0.000524620
  18   H   :    0.000018877    0.000200265    0.000555011
  19   H   :   -0.000065827   -0.000312376    0.000422115
  20   H   :    0.000629374    0.000828105   -0.000056968

[...]
ORBITAL ENERGIES
----------------

  NO   OCC          E(Eh)            E(eV) 
   0   2.0000     -18.974257      -516.3158 
   1   2.0000     -18.973893      -516.3059 
   2   2.0000     -18.971788      -516.2486 
   3   2.0000     -18.971527      -516.2415 
   4   2.0000     -18.959074      -515.9026 
   5   2.0000     -10.141034      -275.9516 
   6   2.0000     -10.104333      -274.9529 
   7   2.0000     -10.102457      -274.9018 
   8   2.0000     -10.099271      -274.8151 
   9   2.0000     -10.089725      -274.5554 
  10   2.0000      -1.045564       -28.4512 
  11   2.0000      -1.018240       -27.7077 
  12   2.0000      -1.007335       -27.4110 
  13   2.0000      -0.991780       -26.9877 
  14   2.0000      -0.973284       -26.4844 
  15   2.0000      -0.761814       -20.7300 
  16   2.0000      -0.728564       -19.8252 
  17   2.0000      -0.628651       -17.1065 
  18   2.0000      -0.621038       -16.8993 
  19   2.0000      -0.568641       -15.4735 
  20   2.0000      -0.522130       -14.2079 
  21   2.0000      -0.506867       -13.7925 
  22   2.0000      -0.494602       -13.4588 
  23   2.0000      -0.473300       -12.8792 
  24   2.0000      -0.463802       -12.6207 
  25   2.0000      -0.443180       -12.0596 
  26   2.0000      -0.433506       -11.7963 
  27   2.0000      -0.413288       -11.2461 
  28   2.0000      -0.385737       -10.4964 
  29   2.0000      -0.378143       -10.2898 
  30   2.0000      -0.357017        -9.7149 
  31   2.0000      -0.346866        -9.4387 
  32   2.0000      -0.333645        -9.0789 
  33   2.0000      -0.314351        -8.5539 
  34   2.0000      -0.305882        -8.3235 
  35   2.0000      -0.285782        -7.7765 
  36   2.0000      -0.276919        -7.5354 
  37   2.0000      -0.259063        -7.0495 
  38   2.0000      -0.244978        -6.6662 
  39   2.0000      -0.236151        -6.4260 
  40   0.0000       0.020518         0.5583 
  41   0.0000       0.048812         1.3283 
  42   0.0000       0.062275         1.6946 
  43   0.0000       0.069002         1.8776 
  44   0.0000       0.083029         2.2593 
  45   0.0000       0.115032         3.1302 
  46   0.0000       0.118335         3.2201 
  47   0.0000       0.121791         3.3141 
  48   0.0000       0.133505         3.6328 
  49   0.0000       0.144742         3.9386 
  50   0.0000       0.146403         3.9838 
*Only the first 10 virtual orbitals were printed.
Total SCF time: 0 days 0 hours 0 min 4 sec 
Finished LeanSCF after   5.0 sec

Maximum memory used throughout the entire LEANSCF-calculation: 31.6 MB


-------------------------------------------------------------------------------
                          DFT DISPERSION CORRECTION                            
                                                                               
                                DFTD4 V3.4.0                                   
-------------------------------------------------------------------------------
-------------------------   ----------------
Dispersion correction           -0.006328926
-------------------------   ----------------

------------------   -----------------
gCP correction             0.016303045
------------------   -----------------

-------------------------   --------------------
FINAL SINGLE POINT ENERGY      -572.562370496239
-------------------------   --------------------

------------------------------------------------------------------------------
                         ORCA SCF GRADIENT CALCULATION
------------------------------------------------------------------------------

Nuc. rep. gradient        (SHARK) ... done (  0.0 sec)
HCore & Overlap gradient  (SHARK) ... done (  0.3 sec)
Split-RIJ-J gradient      (SHARK) ... done (  1.8 sec)
XC gradient                       ... done (  6.5 sec)
Dispersion correction             ... done (  0.0 sec)

-------------------
DISPERSION GRADIENT
-------------------

   1   C   :    0.000010806    0.000064172    0.000001411
   2   C   :    0.000060970    0.000020766   -0.000010523
   3   H   :    0.000039681    0.000010266   -0.000014883
   4   C   :    0.000020249   -0.000026337    0.000003455
   5   H   :    0.000010591   -0.000024538    0.000016862
   6   C   :   -0.000040381   -0.000026776   -0.000020539
   7   H   :   -0.000020400   -0.000025257   -0.000026977
   8   C   :   -0.000047602    0.000030762   -0.000007532
   9   H   :   -0.000037692    0.000014432   -0.000008057
  10   O   :   -0.000033444    0.000074190   -0.000027965
  11   O   :   -0.000093866    0.000011929    0.000046921
  12   O   :   -0.000058083   -0.000090212   -0.000003023
  13   O   :    0.000063174   -0.000091547   -0.000015328
  14   O   :    0.000097976    0.000016450    0.000037818
  15   H   :    0.000017721    0.000045040   -0.000007490
  16   H   :    0.000006447    0.000040209    0.000012281
  17   H   :   -0.000036634    0.000016499    0.000016224
  18   H   :   -0.000027552   -0.000028758   -0.000000430
  19   H   :    0.000019100   -0.000038986    0.000007059
  20   H   :    0.000048937    0.000007695    0.000000716

Difference to translation invariance:
           :   -0.0000000000   -0.0000000000   -0.0000000000

Difference to rotation invariance:
           :   -0.0000000000   -0.0000000000    0.0000000000

Norm of the Dispersion gradient    ...    0.0002967724
RMS gradient                       ...    0.0000383132
MAX gradient                       ...    0.0000979756
gCP correction                   ... done

------------------
CARTESIAN GRADIENT
------------------

   1   C   :   -0.000088479   -0.000006783   -0.000048531
   2   C   :    0.000142517   -0.000015789    0.000131401
   3   H   :    0.000009070    0.000020173   -0.000020241
   4   C   :    0.000057447   -0.000012836   -0.000005018
   5   H   :   -0.000045180    0.000013384    0.000012410
   6   C   :   -0.000080559   -0.000132806   -0.000031132
   7   H   :    0.000033184    0.000020253   -0.000031759
   8   C   :    0.000032370    0.000075800   -0.000029477
   9   H   :    0.000002154    0.000000936   -0.000051112
  10   O   :    0.000009722   -0.000068300    0.000023069
  11   O   :   -0.000132833   -0.000081783   -0.000014299
  12   O   :    0.000065406   -0.000102260    0.000038244
  13   O   :   -0.000022890    0.000056786    0.000035989
  14   O   :    0.000012479   -0.000002215   -0.000270887
  15   H   :    0.000018690    0.000006123   -0.000015433
  16   H   :    0.000024717    0.000030194    0.000028310
  17   H   :    0.000112511    0.000096079   -0.000008598
  18   H   :   -0.000077419    0.000055538   -0.000061933
  19   H   :   -0.000004779   -0.000008146    0.000000411
  20   H   :   -0.000068124    0.000055650    0.000318583

Difference to translation invariance:
           :   -0.0000000000    0.0000000000   -0.0000000000

Difference to rotation invariance:
           :   -0.0003825016   -0.0012710438    0.0004080423

Norm of the Cartesian gradient     ...    0.0006037190
RMS gradient                       ...    0.0000779398
MAX gradient                       ...    0.0003185831

-------
TIMINGS
-------

Total SCF gradient time     ....        8.692 sec

Densities                   ....       0.001 sec  (  0.0%)
One electron gradient       ....       0.336 sec  (  3.9%)
RI-J Coulomb gradient       ....       1.846 sec  ( 21.2%)
XC gradient                 ....       6.489 sec  ( 74.7%)

Maximum memory used throughout the entire SCFGRAD-calculation: 41.2 MB

------------------------------------------------------------------------------
                              ORCA PROPERTY CALCULATIONS
------------------------------------------------------------------------------

GBWName                                 ... xtb_opt.gbw
Number of atoms                         ...     20
Number of basis functions               ...    265
Max core memory                         ...   1024 MB

Electric properties:
Dipole moment                           ... YES
Quadrupole moment                       ...  NO
Static polarizability (Dipole/Dipole)   ...  NO
Static polarizability (Dipole/Quad.)    ...  NO
Static polarizability (Quad./Quad.)     ...  NO
Static polarizability (Velocity)        ...  NO

Atomic electric properties:
Dipole moment                           ...  NO
Quadrupole moment                       ...  NO
Static polarizability                   ...  NO

Choice of electric origin               ... Center of mass
Position of electric origin             ...    -0.015232     0.016332     0.001812

General magnetic properties:
Magnetizability                         ...  NO

EPR properties:
g-Tensor (aka g-matrix)                 ...  NO
Zero-Field splitting spin-orbit         ...  NO
Zero-field splitting spin-spin          ...  NO
Hyperfine couplings                     ...  NO (   0 nuclei)
Quadrupole couplings                    ...  NO (   0 nuclei)
Contact density                         ...  NO (   0 nuclei)

NMR properties:
Chemical shifts                         ...  NO (   0 nuclei)
Spin-rotation constants                 ...  NO (   0 nuclei)
Spin-spin couplings                     ...  NO (   0 nuclei,    0 pairs)

Choice of magnetic origin               ... GIAO
Position of magnetic origin             ...     0.000000     0.000000     0.000000

Properties with geometric perturbations:
SCF Hessian                             ...  NO
IR spectrum                             ...  NO
VCD spectrum                            ...  NO
X-ray spectroscopy properties:
SCF XES/XAS/RIXS spectra                ...  NO


-------------
DIPOLE MOMENT
-------------

Method             : SCF
Type of density    : Electron Density
Multiplicity       :   1
Irrep              :   0
Energy             :  -572.5723446151067719 Eh
Relativity type    : 
Basis              : AO
                                X                 Y                 Z
Electronic contribution:     -1.116379190      -0.172815136      -0.086453474
Nuclear contribution   :      1.545350241      -0.360276885       0.009538240
                        -----------------------------------------
Total Dipole Moment    :      0.428971051      -0.533092021      -0.076915234
                        -----------------------------------------
Magnitude (a.u.)       :      0.688563155
Magnitude (Debye)      :      1.750188450



--------------------
Rotational spectrum 
--------------------
 
Rotational constants in cm-1:             0.056945             0.044235             0.028760 
Rotational constants in MHz :          1707.163884          1326.141920           862.201676 

Dipole components along the rotational axes: 
x,y,z [a.u.] :     0.417337     0.541705    -0.080647 
x,y,z [Debye]:     1.060788     1.376906    -0.204989 

 

Dipole moment calculation done in   0.0 sec 

Maximum memory used throughout the entire PROP-calculation: 20.0 MB

--------------------------------
SUGGESTED CITATIONS FOR THIS RUN
--------------------------------

Below you find a list of papers that are relevant to this ORCA run
We neither can nor want to force you to cite these papers, but we appreciate if you do
You receive ORCA, which is the product of decades of hard work by many enthusiastic individuals, for free
The only thing we kindly ask in return is that you cite our papers,
We deeply appreciate it, if you show your appreciation for ORCA by not just citing the generic ORCA reference.

Please note that relegating all ORCA citations to the supporting information does *not* help us.
SI sections are not indexed - citations you put there will not count into any citation statistics
But we need these citations in order to attract the funding resources that allow us to do what we are doing

Therefore, if you are a happy ORCA user, please consider citing a few of the papers listed below in the main body of your paper

In addition to the list printed below, the program has created the file xtb_opt.bibtex that contains the list in bibtex format
You can import this file easily into all common literature databanks and citation aid programs


List of essential papers. We consider these as the minimum necessary citations

  1. Neese,F.
     Software update: the ORCA program system, version 5.0
     WIRES Comput. Molec. Sci., 2022 12(1)e1606
     doi.org/10.1002/wcms.1606
  2. Grimme,S.; Hansen,A.; Ehlert,S.; Mewes,J.
     r2SCAN-3c: A 'Swiss army knife' composite electronic-structure method
     J. Chem. Phys., 2021 154 064103
     doi.org/10.1063/5.0040021

List of papers to cite with high priority. The work reported in these papers was absolutely
necessary for this run to complete.
Our perspective: the developers of density functionals and basis sets usually get cited in chemistry papers
Good! But without the algorithms to do something with them, the functionals or basis sets would not do anything.
Hence, in our opinion, the algorithm design and method developments papers are equally worthy of getting cited

  1. Neese,F.
     An improvement of the resolution of the identity approximation for the formation of the Coulomb matrix
     J. Comp. Chem., 2003 24(14)1740-1747
     doi.org/10.1002/jcc.10318
  2. Neese,F.
     The SHARK Integral Generation and Digestion System
     J. Comp. Chem., 2022  1-16
     doi.org/10.1002/jcc.26942
  3. Lehtola,S.; Steigemann,C.; Oliveira,M.; Marques,M.
     Recent developments in Libxc - A comprehensive library of functionals for density functional theory
     Software X, 2018 7 
     doi.org/10.1016/j.softx.2017.11.002
  4. Caldeweyher,E.; Bannwarth,C.; Grimme,S.
     Extension of the D3 dispersion coefficient model
     J. Chem. Phys., 2017 147 034112
     doi.org/10.1063/1.4993215
  5. Caldeweyher,E.; Ehlert,S.; Hansen,A.; Neugebauer,H.; Spicher,S.; Bannwarth,C.; Grimme,S.
     A generally applicable atomic-charge dependent London dispersion correction
     J. Chem. Phys., 2019 150 154122
     doi.org/10.1063/1.5090222
  6. Caldeweyher,E.; Mewes,J.; Ehlert,S.; Grimme,S.
     Extension and evaluation of the D4 London-dispersion model for periodic systems
     Phys. Chem. Chem. Phys., 2020 22(16)8499-8512
     doi.org/10.1039/D0CP00502A
  7. Wittmann,L.; Gordiy,I.; Friede,M.; Helmich-Paris,B.; Grimme,S.; Hansen,A.; Bursch,M.
     Extension of the D3 and D4 London Dispersion Corrections to the full Actinides Series
     Phys. Chem. Chem. Phys., 2024 26(32)21379-21394
     doi.org/https://doi.org/10.1039/D4CP01514B 

List of suggested additional citations. These are papers that are important in the 'surrounding' of 
of this run, or papers that preceded the highly important papers. If you like your results we are grateful for a citation.

  1. Neese,F.
     The ORCA program system
     WIRES Comput. Molec. Sci., 2012 2(1)73-78
     doi.org/10.1002/wcms.81
  2. Neese,F.
     Software update: the ORCA program system, version 4.0
     WIRES Comput. Molec. Sci., 2018 8(1)1-6
     doi.org/10.1002/wcms.1327
  3. Neese,F.; Wennmohs,F.; Becker,U.; Riplinger,C.
     The ORCA quantum chemistry program package
     J. Chem. Phys., 2020 152 Art. No. L224108
     doi.org/10.1063/5.0004608

List of optional additional citations

  1. Neese,F.
     Approximate second-order SCF convergence for spin unrestricted wavefunctions
     Chem. Phys. Lett., 2000 325(1-3)93-98
     doi.org/10.1016/s0009-2614(00)00662-x

Timings for individual modules:

Sum of individual times          ...       14.602 sec (=   0.243 min)
Startup calculation              ...        0.763 sec (=   0.013 min)   5.2 %
SCF iterations                   ...        5.050 sec (=   0.084 min)  34.6 %
Property calculations            ...        0.046 sec (=   0.001 min)   0.3 %
SCF Gradient evaluation          ...        8.743 sec (=   0.146 min)  59.9 %
                             ****ORCA TERMINATED NORMALLY****
TOTAL RUN TIME: 0 days 0 hours 0 minutes 14 seconds 679 msec
  ------------------------------------------------------------------------
          * successful ORCA run, taking over control again...

         :::::::::::::::::::::::::::::::::::::::::::::::::::::
         ::                  ORCA SUMMARY                   ::
         :::::::::::::::::::::::::::::::::::::::::::::::::::::
         :: total energy            -572.562370496239 Eh    ::
         :: gradient norm              0.000603718992 Eh/a0 ::
         :: HOMO-LUMO gap              0.000000000000 eV    ::
         :::::::::::::::::::::::::::::::::::::::::::::::::::::

           -------------------------------------------------
          |                Property Printout                |
           -------------------------------------------------
           -------------------------------------------------
          |                Geometry Summary                 |
           -------------------------------------------------

      molecular mass/u    :      150.1301116
   center of mass at/Å    :       -0.0080626       0.0086381       0.0009623
  moments of inertia/u·Å² :        0.2960363E+03   0.3810931E+03   0.5861551E+03
rotational constants/cm⁻¹ :        0.5694448E-01   0.4423494E-01   0.2875968E-01

 * 20 selected distances

     #   Z          #   Z                                           value/Å
     1   6          2   6                                         1.5312633
     2   6          3   1                                         1.0999936
     2   6          4   6                                         1.5213032
     4   6          5   1                                         1.1006338
     4   6          6   6                                         1.5285917
     6   6          7   1                                         1.1026883
     6   6          8   6                                         1.5345106 (max)
     8   6          9   1                                         1.0995398
     1   6         10   8                                         1.4324606
     8   6         10   8                                         1.4033711
     8   6         11   8                                         1.4169787
     6   6         12   8                                         1.4258709
     4   6         13   8                                         1.4310380
     2   6         14   8                                         1.4238511
     1   6         15   1                                         1.0921129
     1   6         16   1                                         1.0999775
    11   8         17   1                                         0.9681917
    12   8         18   1                                         0.9667190
    13   8         19   1                                         0.9645172 (min)
    14   8         20   1                                         0.9656032

 * 4 distinct bonds (by element types)

   Z      Z             #   av. dist./Å        max./Å        min./Å
   1 H    6 C           6     1.0991577     1.1026883     1.0921129
   6 C    6 C           4     1.5289172     1.5345106     1.5213032
   1 H    8 O           4     0.9662577     0.9681917     0.9645172
   6 C    8 O           6     1.4222617     1.4324606     1.4033711


optimized geometry written to: xtbopt.coord


           -------------------------------------------------
          | TOTAL ENERGY             -572.562370496239 Eh   |
          | GRADIENT NORM               0.000603718992 Eh/α |
           -------------------------------------------------

------------------------------------------------------------------------
 * finished run on 2025/04/09 at 02:30:04.732     
------------------------------------------------------------------------
 total:
 * wall-time:     0 d,  0 h,  4 min, 38.645 sec
 *  cpu-time:     0 d,  0 h,  0 min,  0.525 sec
 * ratio c/w:     0.002 speedup
 SCF:
 * wall-time:     0 d,  0 h,  0 min, 30.949 sec
 *  cpu-time:     0 d,  0 h,  0 min,  0.025 sec
 * ratio c/w:     0.001 speedup
 ANC optimizer:
 * wall-time:     0 d,  0 h,  4 min,  7.528 sec
 *  cpu-time:     0 d,  0 h,  0 min,  0.017 sec
 * ratio c/w:     0.000 speedup

