11
 energy: -628.346703533998 gnorm: 0.074431870438 xtb: 6.7.1 (41059b4)
C           -1.42264999213041       -1.00459204664516       -0.00028437170013
S           -0.00000602640000        0.12169017925392        0.00001129140001
O           -0.00015186250007        0.85998404738108        1.23123544334559
O            0.00016123510007        0.86039403148126       -1.23098064384548
C            1.42265288683042       -1.00460109624517       -0.00000422090000
H           -2.32029705232818       -0.39890163127676       -0.00004634230002
H           -1.37837062211079       -1.60953966131323       -0.89598593379704
H           -1.37826881011075       -1.60998516941343        0.89510372469664
H            2.32029375132818       -0.39885181487674        0.00034458500015
H            1.37814680291069       -1.61003656361345        0.89537837459677
H            1.37850434431085       -1.60949966751321       -0.89575914379693
11
 energy: -628.349838331581 gnorm: 0.034364402927 xtb: 6.7.1 (41059b4)
C           -1.40860796308928       -1.01149376701683       -0.00027965800766
S           -0.00000455322244        0.13517539275169        0.00002147140584
O           -0.00014804251327        0.87487287793500        1.25187210861641
O            0.00014688427386        0.87527867237343       -1.25159562897186
C            1.40861036974936       -1.01149633782053       -0.00001282870990
H           -2.30257979342473       -0.38626878246595       -0.00006123418357
H           -1.37551393492919       -1.62320385678475       -0.90219685876027
H           -1.37544689236863       -1.62367776289254        0.90131356927025
H            2.30256917249174       -0.38624385891181        0.00033697847170
H            1.37531977173549       -1.62369772421980        0.90156796931662
H            1.37567031321733       -1.62318433540961       -0.90195365495415
11
 energy: -628.350699518764 gnorm: 0.006380485449 xtb: 6.7.1 (41059b4)
C           -1.41730667949545       -1.00911406526635       -0.00027594897127
S           -0.00000236395221        0.12564287398089        0.00002945807574
O           -0.00013572038346        0.86550136173576        1.26986173600736
O            0.00012839702650        0.86590718181753       -1.26956717381588
C            1.41731121466628       -1.00910714292137       -0.00001485328515
H           -2.31042873824495       -0.37641632702137       -0.00008473107993
H           -1.38600783753561       -1.62224233578705       -0.90556698727422
H           -1.38598600353645       -1.62273874295369        0.90468085838504
H            2.31042567634362       -0.37640750798233        0.00032271925348
H            1.38584412882508       -1.62272564002796        0.90493492237797
H            1.38617234312672       -1.62223887899737       -0.90530706695973
11
 energy: -628.350770478673 gnorm: 0.004591710869 xtb: 6.7.1 (41059b4)
C           -1.41849375563093       -1.00872816561301       -0.00027684042471
S           -0.00000110037264        0.12349611914896        0.00003326982269
O           -0.00012790412015        0.86072847295610        1.27501356222163
O            0.00012162249124        0.86114201890864       -1.27470730981497
C            1.41849870844388       -1.00872037765055       -0.00001503139899
H           -2.30821877935435       -0.37335209097501       -0.00009799163778
H           -1.38936775276000       -1.62104909079044       -0.90490257076286
H           -1.38936614892129       -1.62154155450151        0.90401685335638
H            2.30821820151113       -0.37334033997658        0.00031083163156
H            1.38921999056243       -1.62152453159763        0.90427771748619
H            1.38953109818707       -1.62104960000330       -0.90463935580656
11
 energy: -628.350798922478 gnorm: 0.004591960213 xtb: 6.7.1 (41059b4)
C           -1.41991601451162       -1.00813119259996       -0.00027854130772
S           -0.00000077702315        0.12148085829547        0.00003841034386
O           -0.00012193321682        0.85498829003566        1.27821623828395
O            0.00011648530266        0.85541408806311       -1.27789420110847
C            1.41992059853680       -1.00812302410927       -0.00001595509598
H           -2.30674398864957       -0.37026741489092       -0.00011452520023
H           -1.39250338388403       -1.61952476154084       -0.90452559750825
H           -1.39252475343298       -1.62000663830759        0.90364346561270
H            2.30674495903314       -0.37025359628903        0.00029481517040
H            1.39237508165245       -1.61998750899761        0.90390943270524
H            1.39266765925897       -1.61952815411185       -0.90426019220731
11
 energy: -628.350812897199 gnorm: 0.002923605625 xtb: 6.7.1 (41059b4)
C           -1.42093468962678       -1.00747469882431       -0.00028043554582
S           -0.00000073188380        0.12051073250551        0.00004501882341
O           -0.00011831270274        0.85007321996120        1.27992201211528
O            0.00011289409101        0.85051405884666       -1.27958081860245
C            1.42093883885671       -1.00746648335015       -0.00001754498871
H           -2.30602439504441       -0.36768247243592       -0.00013427397518
H           -1.39518378589570       -1.61845653087138       -0.90445964700420
H           -1.39523114789214       -1.61892365827529        0.90358407457306
H            2.30602577010782       -0.36766822245757        0.00027566710779
H            1.39507903150468       -1.61890318613631        0.90385236987584
H            1.39535025115080       -1.61846174254698       -0.90419289249072
11
 energy: -628.350817988707 gnorm: 0.000685244306 xtb: 6.7.1 (41059b4)
C           -1.42130073946042       -1.00712031828465       -0.00028213922104
S           -0.00000096366969        0.12080052080885        0.00005406054430
O           -0.00011805372023        0.84811368919305        1.28024536065180
O            0.00011227646361        0.84856272807420       -1.27988706076865
C            1.42130479766177       -1.00711212096839       -0.00001948839162
H           -2.30633961119433       -0.36677704056915       -0.00015156195413
H           -1.39616427398480       -1.61818812527432       -0.90468667604731
H           -1.39623209051670       -1.61864105073278        0.90381729458611
H            2.30634080893345       -0.36676358129564        0.00025919729573
H            1.39607926386892       -1.61862060759086        0.90408469740028
H            1.39633222718336       -1.61819305187197       -0.90442008743950
11
 energy: -628.350818446436 gnorm: 0.000165486716 xtb: 6.7.1 (41059b4)
C           -1.42137033838483       -1.00698744807296       -0.00028180647359
S           -0.00000102770646        0.12121027985778        0.00005603223619
O           -0.00011943199278        0.84815767184150        1.28007394736238
O            0.00011322512678        0.84861725914152       -1.27970621967438
C            1.42137464888741       -1.00697938524996       -0.00001959886692
H           -2.30708397893416       -0.36695676417728       -0.00016360950747
H           -1.39600090767986       -1.61829555495303       -0.90485946940974
H           -1.39608659174410       -1.61874061644451        0.90399744029108
H            2.30708472426459       -0.36694407525715        0.00024820524782
H            1.39593407688975       -1.61872130262179        0.90426262760723
H            1.39616924533409       -1.61829902619025       -0.90459395735348
11
 energy: -628.350818446436 gnorm: 0.000165486716 xtb: 6.7.1 (41059b4)
C           -1.42137033838483       -1.00698744807296       -0.00028180647359
S           -0.00000102770646        0.12121027985778        0.00005603223619
O           -0.00011943199278        0.84815767184150        1.28007394736238
O            0.00011322512678        0.84861725914152       -1.27970621967438
C            1.42137464888741       -1.00697938524996       -0.00001959886692
H           -2.30708397893416       -0.36695676417728       -0.00016360950747
H           -1.39600090767986       -1.61829555495303       -0.90485946940974
H           -1.39608659174410       -1.61874061644451        0.90399744029108
H            2.30708472426459       -0.36694407525715        0.00024820524782
H            1.39593407688975       -1.61872130262179        0.90426262760723
H            1.39616924533409       -1.61829902619025       -0.90459395735348
