20
 energy: -572.561117059367 gnorm: 0.040957083298 xtb: 6.7.1 (41059b4)
C            0.58937447476117        1.70910748405735       -0.07142586303165
C            1.38606546741420        0.40909714498128       -0.24296405330766
H            1.64552639382918        0.26664711401816       -1.29791362937514
C            0.52935426673457       -0.77846417194496        0.21929006799717
H            0.31946142444156       -0.68672860180431        1.29840595787536
C           -0.80211312955544       -0.75014424343241       -0.53503603893709
H           -0.58890859016096       -0.80452340855651       -1.61628811501622
C           -1.48018992855591        0.60221147806686       -0.26317341101662
H           -2.39946271946327        0.67119287909742       -0.85959465288091
O           -0.66454838929448        1.65545836223358       -0.72247016052015
O           -1.74071289217136        0.71082812411499        1.09960805608727
O           -1.65449772763315       -1.78891703919272       -0.15408291446828
O            1.17240580981952       -2.00658417428917       -0.03844412751704
O            2.61486873315872        0.43748512649386        0.44354945239655
H            1.12054058589654        2.55042904553016       -0.51860082852981
H            0.44710429399812        1.89880445844141        1.00346784204466
H           -2.32961650593231        1.45856461904633        1.25254618035504
H           -1.10871454819130       -2.58095848094369       -0.06448663442858
H            2.11850370983877       -1.87447627903063        0.10369228644595
H            2.44958793728548        0.64115817718411        1.37279677500832
20
 energy: -572.562694083646 gnorm: 0.019682738804 xtb: 6.7.1 (41059b4)
C            0.59611276458974        1.71546485888813       -0.06969155555677
C            1.38576917341990        0.41485505239243       -0.24243207870433
H            1.63730830920074        0.27252364929118       -1.30065551421552
C            0.53581145597412       -0.77135706605917        0.21533470455395
H            0.33038969819898       -0.67399542668382        1.29584610291292
C           -0.79877407982932       -0.74842243463336       -0.52462360596438
H           -0.58913010844779       -0.79031361445523       -1.60781106178037
C           -1.48911159520267        0.59775725815510       -0.26705108123037
H           -2.40555258468435        0.66837246791031       -0.86845905065521
O           -0.66306365077648        1.65206939047987       -0.73095637163469
O           -1.76002550726671        0.69881581167661        1.10376348654444
O           -1.65824714745885       -1.79573660195731       -0.14021897146776
O            1.16899301306453       -2.01296544590774       -0.05403115813639
O            2.62900185309284        0.44776650648235        0.44230407995474
H            1.13664686493202        2.55335000058194       -0.51510513772900
H            0.45970184393462        1.91149272035496        1.00636813613663
H           -2.34547948068505        1.45053075211746        1.24795732445799
H           -1.11939087187544       -2.59380997174585       -0.07196705060471
H            2.11295693031751       -1.89681435423083        0.11672310508666
H            2.46011154477981        0.64060315965508        1.37358326154144
20
 energy: -572.563235253778 gnorm: 0.005724934740 xtb: 6.7.1 (41059b4)
C            0.60075973495974        1.71735601040685       -0.06529187641531
C            1.38347815699914        0.41750207027290       -0.24758903070621
H            1.63120459464015        0.28046042153593       -1.30804955241934
C            0.53878298501091       -0.76288477295181        0.21585069330199
H            0.34555601469952       -0.67022368237972        1.29980159457019
C           -0.79457195456703       -0.74429629046666       -0.51851695546211
H           -0.59072201178648       -0.78832878913191       -1.60270943249154
C           -1.49333439613117        0.59404408044988       -0.26676104461877
H           -2.40578084028712        0.66656363080521       -0.87321464669861
O           -0.66394509946746        1.65437153138359       -0.73293458515683
O           -1.77886708010079        0.69695032364400        1.10916804757880
O           -1.65377048919485       -1.79988104260967       -0.12387822159693
O            1.16529986563531       -2.01282843073512       -0.07253834897816
O            2.64085676488949        0.45228655011230        0.43429372538903
H            1.14490263927407        2.55421568645055       -0.51024226658459
H            0.46393463668788        1.91912994351433        1.01019046943912
H           -2.36362157687440        1.45259434650535        1.23815478264723
H           -1.11816694181804       -2.60321882612228       -0.08838458880991
H            2.10430689561863       -1.91520886116122        0.14339463579955
H            2.46772614835652        0.63158156487831        1.36813599359785
20
 energy: -572.563350364346 gnorm: 0.005350490576 xtb: 6.7.1 (41059b4)
C            0.60172135434920        1.71826026985905       -0.06323807915497
C            1.38248322362822        0.41931966750492       -0.25007187970295
H            1.62944553922455        0.28468075227209       -1.31041179553600
C            0.54108737598538       -0.76087883256724        0.21369862062934
H            0.35448525675659       -0.67339948490894        1.29881528259672
C           -0.79453953565472       -0.74226015297466       -0.51430548752066
H           -0.59378091634690       -0.79372940040503       -1.59807543403897
C           -1.49458377408072        0.59387927255369       -0.26671549741601
H           -2.40556238176993        0.66627307058424       -0.87449882494028
O           -0.66542244639099        1.65759957423837       -0.73120131318440
O           -1.78440150030284        0.70020088022115        1.10950811152808
O           -1.65077981381880       -1.79973025667522       -0.11254605598658
O            1.16707415373853       -2.01166032571626       -0.08215223612802
O            2.64492292326651        0.45280408336017        0.42964363173489
H            1.14392588714499        2.55689962915011       -0.50703255651863
H            0.46228556595453        1.91738469047447        1.01185126283851
H           -2.36976273680313        1.45697286787778        1.23054752600910
H           -1.11540889269935       -2.60462515398508       -0.10076213846704
H            2.10032350770269       -1.92324921888366        0.16132495154545
H            2.47051508708918        0.62544299917470        1.36450223470508
20
 energy: -572.563434014011 gnorm: 0.005473953324 xtb: 6.7.1 (41059b4)
C            0.60200334495791        1.71885228491886       -0.06052173176662
C            1.38279473101480        0.42186920421627       -0.25324262450570
H            1.62935913585155        0.28942015640879       -1.31321937915046
C            0.54402323473109       -0.75885841382885        0.21118236311527
H            0.36465803980091       -0.67798125568604        1.29750683768848
C           -0.79525846804762       -0.74169844849760       -0.50980667258758
H           -0.59918667041325       -0.80309642961133       -1.59351071255402
C           -1.49437759626669        0.59389156350328       -0.26643088754513
H           -2.40365383315960        0.66489563678459       -0.87638318631537
O           -0.66612154667177        1.65952291483749       -0.72905085446429
O           -1.78792434695325        0.70466748916168        1.10845103396862
O           -1.64810658861053       -1.79787935597748       -0.09740457446380
O            1.16987175051582       -2.00797909445052       -0.09368644392426
O            2.64775260924376        0.45381205902153        0.42518476046081
H            1.14061979286857        2.56061229637501       -0.50197690025962
H            0.45896358813039        1.91236933514882        1.01450191123130
H           -2.37346228920549        1.46256427381898        1.22178163081982
H           -1.11487190288448       -2.60451548759212       -0.11579629569550
H            2.09459127976352       -1.93083072377958        0.18053314658658
H            2.47235349931737        0.62054649800515        1.36076985903827
20
 energy: -572.563475547363 gnorm: 0.003671534885 xtb: 6.7.1 (41059b4)
C            0.60124379511094        1.71916067867746       -0.05904890572052
C            1.38401990307136        0.42400982712816       -0.25455844898600
H            1.63024802905322        0.29302659746764       -1.31457505202721
C            0.54687300605377       -0.75888969821884        0.20875908570534
H            0.37104765744302       -0.68140950462249        1.29573364818512
C           -0.79576943488535       -0.74232070828377       -0.50701190318745
H           -0.60327592575634       -0.80953340942406       -1.59100308791390
C           -1.49379259552861        0.59437557829742       -0.26669305585185
H           -2.40217409543045        0.66390048386619       -0.87831276992492
O           -0.66587586946677        1.65910167840570       -0.72882466995914
O           -1.78882169261515        0.70741448302198        1.10669298780635
O           -1.64670669910281       -1.79576480010697       -0.08655886055741
O            1.17249530021349       -2.00565395409005       -0.10225088433339
O            2.64835934395758        0.45571267519318        0.42358069638639
H            1.13751783146383        2.56369343479841       -0.49757552522736
H            0.45599916913430        1.90806624692009        1.01631969056714
H           -2.37342829028943        1.46620243129771        1.21750412337472
H           -1.11781535082062       -2.60384838360409       -0.12398027492516
H            2.09086397419492       -1.93775291193344        0.19139214145026
H            2.47301974945334        0.62069367787907        1.35929284425646
20
 energy: -572.563501021300 gnorm: 0.001481554463 xtb: 6.7.1 (41059b4)
C            0.60024958209851        1.71938095101643       -0.05823836012548
C            1.38590488931605        0.42594740683172       -0.25502357411911
H            1.63183178197457        0.29636189996161       -1.31542150388049
C            0.54950979787053       -0.75939865330375        0.20647824133066
H            0.37553377951099       -0.68401462354129        1.29403571562901
C           -0.79591255262962       -0.74364866418092       -0.50524671035704
H           -0.60672805645203       -0.81368112808914       -1.58979630030027
C           -1.49301050008082        0.59467902799120       -0.26698241861703
H           -2.40085918860371        0.66286934268715       -0.88002696064851
O           -0.66491750794291        1.65725136469695       -0.72994907682894
O           -1.78900015254884        0.70882225169545        1.10524007257213
O           -1.64594673957926       -1.79417824403836       -0.07815980645386
O            1.17434843446977       -2.00391702207625       -0.11011836604471
O            2.64837389404934        0.45887351380665        0.42349483162653
H            1.13548293233785        2.56614363716722       -0.49368532910517
H            0.45341249039418        1.90544288378338        1.01756005878403
H           -2.37171825466995        1.46889105941592        1.21627136555237
H           -1.12365941542193       -2.60477308944868       -0.12959727960756
H            2.08760761454841       -1.94588930644411        0.19906735828981
H            2.47352507738838        0.62502195578365        1.35898010809319
20
 energy: -572.563508922267 gnorm: 0.001111643732 xtb: 6.7.1 (41059b4)
C            0.59921818024862        1.71962370769122       -0.05842585759436
C            1.38762328749485        0.42735569059854       -0.25463403513602
H            1.63373694445391        0.29900763095322       -1.31541540292795
C            0.55177442534403       -0.76039729199910        0.20465330219985
H            0.37874478079845       -0.68639061065914        1.29279166595783
C           -0.79550471404937       -0.74476788394920       -0.50416800828307
H           -0.60916681741319       -0.81537944316137       -1.58930276680418
C           -1.49256130287463        0.59476156406328       -0.26729324326072
H           -2.40043019999185        0.66205299669624       -0.88074631734445
O           -0.66401077348318        1.65527798055145       -0.73201456991426
O           -1.78870443949842        0.70926031502041        1.10467025916716
O           -1.64531201667517       -1.79318328574455       -0.07233668474137
O            1.17561907127034       -2.00341295971725       -0.11682320856002
O            2.64808505328762        0.46250674388679        0.42484619995536
H            1.13482686243477        2.56759255946954       -0.49141113104188
H            0.45137902234750        1.90504651791129        1.01765658177821
H           -2.36898808730605        1.47097942336795        1.21766261395446
H           -1.13079301052958       -2.60763672627332       -0.13484035920070
H            2.08485544102853       -1.95521230294748        0.20438030783525
H            2.47363632647732        0.63310026042742        1.35963275965467
20
 energy: -572.563510836414 gnorm: 0.000452976276 xtb: 6.7.1 (41059b4)
C            0.59941219570365        1.71966826216252       -0.05879617098506
C            1.38741570395636        0.42702355153290       -0.25434204459110
H            1.63425284959433        0.29857958317867       -1.31487889415106
C            0.55144147853702       -0.76043426464311        0.20475269511858
H            0.37830406276770       -0.68701490185842        1.29285565260651
C           -0.79523633779126       -0.74474374721793       -0.50465256382406
H           -0.60863636499481       -0.81478529297062       -1.58967323664890
C           -1.49259327405125        0.59423775010491       -0.26708784368862
H           -2.40083756267340        0.66197115689126       -0.87971923306952
O           -0.66416629715185        1.65542824578987       -0.73205598108121
O           -1.78798118990490        0.70886048180157        1.10539683866034
O           -1.64544219769397       -1.79353176684935       -0.07374657055821
O            1.17520764154739       -2.00374735574020       -0.11699982373261
O            2.64794955294743        0.46283958613884        0.42568237364297
H            1.13531572945122        2.56707045749145       -0.49263968744342
H            0.45154926508861        1.90630026470226        1.01707805111726
H           -2.36790272945225        1.47088593074919        1.21884673388250
H           -1.13155046410420       -2.60828444914212       -0.13560060523256
H            2.08438001042714       -1.95619162497656        0.20449861665043
H            2.47314596714083        0.63605316646507        1.35996366042399
20
 energy: -572.563510836414 gnorm: 0.000452976276 xtb: 6.7.1 (41059b4)
C            0.59941219570365        1.71966826216252       -0.05879617098506
C            1.38741570395636        0.42702355153290       -0.25434204459110
H            1.63425284959433        0.29857958317867       -1.31487889415106
C            0.55144147853702       -0.76043426464311        0.20475269511858
H            0.37830406276770       -0.68701490185842        1.29285565260651
C           -0.79523633779126       -0.74474374721793       -0.50465256382406
H           -0.60863636499481       -0.81478529297062       -1.58967323664890
C           -1.49259327405125        0.59423775010491       -0.26708784368862
H           -2.40083756267340        0.66197115689126       -0.87971923306952
O           -0.66416629715185        1.65542824578987       -0.73205598108121
O           -1.78798118990490        0.70886048180157        1.10539683866034
O           -1.64544219769397       -1.79353176684935       -0.07374657055821
O            1.17520764154739       -2.00374735574020       -0.11699982373261
O            2.64794955294743        0.46283958613884        0.42568237364297
H            1.13531572945122        2.56707045749145       -0.49263968744342
H            0.45154926508861        1.90630026470226        1.01707805111726
H           -2.36790272945225        1.47088593074919        1.21884673388250
H           -1.13155046410420       -2.60828444914212       -0.13560060523256
H            2.08438001042714       -1.95619162497656        0.20449861665043
H            2.47314596714083        0.63605316646507        1.35996366042399
