20
 energy: -572.558879988194 gnorm: 0.041970843247 xtb: 6.7.1 (41059b4)
C            0.60572468906841        1.43841494113740       -0.00277219990123
C            1.52862981557738        0.19780654978765        0.08424879543733
H            2.41069206396824        0.33245005634732       -0.55045746854392
C            0.75227093133335       -1.03883495746034       -0.42487768528827
H            1.23131862024563       -1.93988363685961       -0.02988294751324
C           -0.69340420710727       -0.96433747752732        0.10770579294773
H           -1.25042587405410       -1.86039903592439       -0.20339342479013
C           -1.37621593190984        0.27700053622275       -0.51925762943010
H           -1.91233635444741       -0.01181846270524       -1.43659970863660
O           -0.44891391959893        1.24207980975040       -0.93582043751469
O           -2.27236944390695        0.79171096775083        0.42681845888913
O           -0.65027517638815       -0.88651803529284        1.51032394246926
O            0.78182395064645       -1.15526210551193       -1.82056689400674
O            2.00917268979032        0.01142663570506        1.38427647871341
H            1.14603970860784        2.31826800142729       -0.35123555895564
H            0.19375882548586        1.64636020382955        0.99251172813981
H           -2.63804833926899        1.61683662051646        0.08906561493947
H           -1.47002914105141       -0.45965187650368        1.79762387089657
H            0.49931829192126       -0.31361173693897       -2.20267343067606
H            1.26941398466251       -0.31118724723790        1.92239903735187
20
 energy: -572.560666521807 gnorm: 0.021293483930 xtb: 6.7.1 (41059b4)
C            0.61528675698911        1.44624844687869        0.00399276872508
C            1.52586769786424        0.19369772950617        0.08917978989947
H            2.40083108442777        0.31556649935051       -0.55947917180992
C            0.74388238485820       -1.03810889514280       -0.42222891370341
H            1.22663761402985       -1.93457061199646       -0.01896916023206
C           -0.70466189066893       -0.96993363601091        0.09701674279858
H           -1.25839368449742       -1.86464124839171       -0.22472608447185
C           -1.37806826177942        0.27796040572202       -0.53278610551390
H           -1.90724346791055       -0.00690658694942       -1.45278459717648
O           -0.44595259987458        1.25442808684871       -0.94094067589783
O           -2.28188426028147        0.78149078692890        0.42517439037020
O           -0.64545663694433       -0.90302695924717        1.51235723430160
O            0.76646379264014       -1.16453507170099       -1.82924644358390
O            2.02659349986761        0.01616943416294        1.39570728697242
H            1.16269328810564        2.32663284195722       -0.33728637659960
H            0.20504257007795        1.65456765539254        1.00046120807430
H           -2.65578372530261        1.60346953715093        0.08715128039624
H           -1.45201221934523       -0.46075274377790        1.81272542744387
H            0.49169191091217       -0.31919783059200       -2.20781618636861
H            1.28061117813515       -0.27770748903583        1.93993423255237
20
 energy: -572.561213106767 gnorm: 0.005743549536 xtb: 6.7.1 (41059b4)
C            0.62188220938874        1.44885728035446        0.01707000567805
C            1.52459627011715        0.19061199617735        0.08130032028942
H            2.39221820195451        0.30401867602325       -0.57918147625439
C            0.73953936988226       -1.04408014239846       -0.41522515637922
H            1.22330612816960       -1.93731605876803       -0.00562754563511
C           -0.70902912231429       -0.97118354956177        0.08768387822430
H           -1.26482743472378       -1.86216020726706       -0.23856855297670
C           -1.38088784850626        0.28063153397214       -0.53517241390091
H           -1.90113477444543        0.00357351607227       -1.46094580335886
O           -0.44705949592662        1.26761246897413       -0.93633626618069
O           -2.29780668632609        0.77695121428535        0.42511642617265
O           -0.64837213090837       -0.91208977931105        1.51331122612155
O            0.76509383235081       -1.17711255987587       -1.83218247159765
O            2.04752152292962        0.01686392003307        1.39002999524971
H            1.17329486902112        2.33013728509199       -0.31830883003951
H            0.20995935098807        1.65385223147020        1.01362633562175
H           -2.68355556590941        1.59041590023481        0.07801808369676
H           -1.44486573884873       -0.45444443753291        1.81711139295209
H            0.50070327528614       -0.32608594343347       -2.20628352104309
H            1.29556900048193       -0.24820235186235        1.94200252905708
20
 energy: -572.561302753480 gnorm: 0.002711594232 xtb: 6.7.1 (41059b4)
C            0.62379237008777        1.44554967608046        0.02320785364886
C            1.52531152686848        0.18993160408097        0.07760874743353
H            2.38795573304278        0.30481682137035       -0.58823703908445
C            0.73638685784205       -1.04318549146018       -0.41297535831611
H            1.21801718889583       -1.93621774924041       -0.00153272966033
C           -0.70975819415457       -0.96867452670646        0.08691898534210
H           -1.26743875360618       -1.85901547283950       -0.23639492365743
C           -1.38051977848586        0.28136847777624       -0.53625309440647
H           -1.89892507311192        0.00780237078132       -1.46388469792754
O           -0.44644006255724        1.27093354381664       -0.93340196512530
O           -2.30169417878358        0.77499430890947        0.42311022765578
O           -0.65116553216176       -0.90869243435011        1.51485861407953
O            0.76451898191490       -1.18092711132628       -1.83262731291890
O            2.05958636283896        0.01443887451061        1.38437942876648
H            1.17499504929024        2.32889670587870       -0.30655569017305
H            0.20931942250969        1.64339233583707        1.01978486914559
H           -2.69657572797881        1.58111285309442        0.06866656388982
H           -1.44607177975259       -0.44735920594580        1.81600617516242
H            0.50689544089415       -0.32728568055974       -2.20591528181411
H            1.30795547739439       -0.24102885630040        1.94067596654606
20
 energy: -572.561362230805 gnorm: 0.003537193967 xtb: 6.7.1 (41059b4)
C            0.62458555972808        1.44193288990313        0.03157814028349
C            1.52491607650508        0.18901781357590        0.07339282322186
H            2.38152282404662        0.30661414167959       -0.59898263327956
C            0.73415666568358       -1.04386203571693       -0.41118248577903
H            1.21352430442113       -1.93711890383447        0.00135491068798
C           -0.70977022486539       -0.96442999971999        0.08704464828131
H           -1.26951384966702       -1.85508301221279       -0.23078843806820
C           -1.37916550349664        0.28328754729004       -0.53704362546468
H           -1.89477523871975        0.01120262257372       -1.46674033042328
O           -0.44411706711912        1.27360439102472       -0.92885204608210
O           -2.30511777001638        0.77511814279067        0.41863396016392
O           -0.65172681114883       -0.90037205967018        1.51547405327945
O            0.76222867913747       -1.18561898361278       -1.83217764029949
O            2.07231220333912        0.01075595774357        1.37565929068898
H            1.17407568636978        2.32929974586246       -0.28914166471003
H            0.20592156949034        1.62890479760475        1.02820215540137
H           -2.71257447020610        1.57056664960004        0.05423837816608
H           -1.44644225055635       -0.43646617032462        1.81268519535394
H            0.51193671498899       -0.32942105775935       -2.20495326600526
H            1.32416825040825       -0.23708149300952        1.93903959915513
20
 energy: -572.561399732489 gnorm: 0.003632328212 xtb: 6.7.1 (41059b4)
C            0.62427150427265        1.43854204233063        0.03958261560257
C            1.52578774532076        0.18822480991493        0.07012358296568
H            2.37657924592027        0.30851441285371       -0.60912228740135
C            0.73200122309044       -1.04390402858263       -0.41039545273962
H            1.20992030533768       -1.93736658093388        0.00302828820100
C           -0.71081437893445       -0.96067114086428        0.08875061226108
H           -1.27285563100557       -1.85170913394667       -0.22406391940488
C           -1.37730244055677        0.28556535715780       -0.53871126971407
H           -1.88894986603325        0.01293733242566       -1.47055871380515
O           -0.44104191581747        1.27577780854755       -0.92479566617395
O           -2.30812882811210        0.77600779282334        0.41222566451281
O           -0.65163217014642       -0.89080090606414        1.51658016873101
O            0.75830488220100       -1.18924375303964       -1.83127648519727
O            2.08499617394220        0.00714046753545        1.36682006079771
H            1.17237405377106        2.33035422009271       -0.27049899252660
H            0.20175354153158        1.61483219091160        1.03649421444912
H           -2.72812025534464        1.56062821739403        0.03902716803162
H           -1.44726789512816       -0.42654998581613        1.81095798625703
H            0.51442245341450       -0.33180717090827       -2.20520950000788
H            1.34184754461918       -0.23562107169520        1.93848462991361
20
 energy: -572.561424965568 gnorm: 0.002339463880 xtb: 6.7.1 (41059b4)
C            0.62351165533530        1.43669134371464        0.04659237951787
C            1.52647546093903        0.18733931046463        0.06786789596253
H            2.37167352976379        0.31019922825133       -0.61821657346977
C            0.73067368249820       -1.04506557728247       -0.41021316341874
H            1.20790954740377       -1.93850355940857        0.00425563393516
C           -0.71193333484211       -0.95725186583976        0.09099908455852
H           -1.27634568008736       -1.84810821821304       -0.21844855213227
C           -1.37588126683015        0.28821460731851       -0.54057776051512
H           -1.88197554153944        0.01381197737577       -1.47506039008436
O           -0.43808879242873        1.27829555404304       -0.92115388195616
O           -2.31182762266639        0.77764793929690        0.40514210219961
O           -0.65067777564075       -0.88194811816596        1.51784621539934
O            0.75392257520093       -1.19285815233759       -1.83018230547514
O            2.09615480189094        0.00442908323986        1.35872646106709
H            1.17098289482248        2.33247375663674       -0.25304125852997
H            0.19817214254076        1.60320870130170        1.04402117466096
H           -2.74257560826415        1.55257584843494        0.02502722533512
H           -1.44795218608988       -0.41967272078635        1.81125684571050
H            0.51512126241188       -0.33505944601249       -2.20620094246203
H            1.35880544554260       -0.23556887094821        1.93880402817246
20
 energy: -572.561433541399 gnorm: 0.000891610314 xtb: 6.7.1 (41059b4)
C            0.62314554419546        1.43649743949313        0.04983202213205
C            1.52741248805098        0.18703685663950        0.06722605914602
H            2.36948838182217        0.31105430266127       -0.62276787799858
C            0.72981908003553       -1.04551548038052       -0.41025083921819
H            1.20680378392112       -1.93889234666127        0.00504472580522
C           -0.71307608407022       -0.95586294599498        0.09264784048653
H           -1.27899561057128       -1.84619466196861       -0.21593402651961
C           -1.37530243975929        0.28979020633516       -0.54172070622721
H           -1.87728281998777        0.01399103644061       -1.47799377981191
O           -0.43645570254126        1.28017198563141       -0.91947264723969
O           -2.31446886951393        0.77861187224432        0.40076127548759
O           -0.65005452255101       -0.87790853710116        1.51880162001909
O            0.75104255444892       -1.19449388599684       -1.82925000288517
O            2.10212497359373        0.00348495506321        1.35469190036671
H            1.17112129702805        2.33361489196145       -0.24476315985452
H            0.19698958486092        1.59887811464628        1.04755361644380
H           -2.75020885591364        1.54873941599199        0.01762782389193
H           -1.44901918228489       -0.41927914048602        1.81331389981203
H            0.51482228227403       -0.33692976252212       -2.20717070511279
H            1.36823923205252       -0.23594346595240        1.93926786687073
20
 energy: -572.561435820251 gnorm: 0.000835110465 xtb: 6.7.1 (41059b4)
C            0.62331552557270        1.43749945098875        0.04925210967058
C            1.52767891329563        0.18702382676980        0.06790470266637
H            2.36927606511280        0.31075747040569       -0.62271075841043
C            0.72975379709349       -1.04578287738717       -0.41043048148902
H            1.20672974103645       -1.93914530047075        0.00522382362414
C           -0.71334864301952       -0.95572173681273        0.09314538547539
H           -1.27966997747692       -1.84554208141513       -0.21633611454266
C           -1.37550924728005        0.29029883601269       -0.54180126247763
H           -1.87614206526172        0.01395615480056       -1.47850551422600
O           -0.43635642215135        1.28112887698070       -0.91963660836936
O           -2.31528285014363        0.77888510225948        0.40009277262030
O           -0.64954983455105       -0.87820126385441        1.51905497153219
O            0.75045573201149       -1.19437930001388       -1.82889683462845
O            2.10229924157892        0.00391299562803        1.35477617257417
H            1.17237838011132        2.33373037522782       -0.24588896285654
H            0.19808820126621        1.60090761563388        1.04718181899522
H           -2.75121177159477        1.54874205480929        0.01692640247077
H           -1.45017405923529       -0.42403502225127        1.81575487720074
H            0.51437187617027       -0.33706408958419       -2.20737923981540
H            1.36904249199578       -0.23612013619457        1.93971753013311
20
 energy: -572.561435820251 gnorm: 0.000835110465 xtb: 6.7.1 (41059b4)
C            0.62331552557270        1.43749945098875        0.04925210967058
C            1.52767891329563        0.18702382676980        0.06790470266637
H            2.36927606511280        0.31075747040569       -0.62271075841043
C            0.72975379709349       -1.04578287738717       -0.41043048148902
H            1.20672974103645       -1.93914530047075        0.00522382362414
C           -0.71334864301952       -0.95572173681273        0.09314538547539
H           -1.27966997747692       -1.84554208141513       -0.21633611454266
C           -1.37550924728005        0.29029883601269       -0.54180126247763
H           -1.87614206526172        0.01395615480056       -1.47850551422600
O           -0.43635642215135        1.28112887698070       -0.91963660836936
O           -2.31528285014363        0.77888510225948        0.40009277262030
O           -0.64954983455105       -0.87820126385441        1.51905497153219
O            0.75045573201149       -1.19437930001388       -1.82889683462845
O            2.10229924157892        0.00391299562803        1.35477617257417
H            1.17237838011132        2.33373037522782       -0.24588896285654
H            0.19808820126621        1.60090761563388        1.04718181899522
H           -2.75121177159477        1.54874205480929        0.01692640247077
H           -1.45017405923529       -0.42403502225127        1.81575487720074
H            0.51437187617027       -0.33706408958419       -2.20737923981540
H            1.36904249199578       -0.23612013619457        1.93971753013311
