      -----------------------------------------------------------      
     |                   =====================                   |     
     |                           x T B                           |     
     |                   =====================                   |     
     |                         S. Grimme                         |     
     |          Mulliken Center for Theoretical Chemistry        |     
     |                    University of Bonn                     |     
      -----------------------------------------------------------      

   * xtb version 6.7.1 (41059b4) compiled by 'michael@archlinux' on 2025-03-24

   xtb is free software: you can redistribute it and/or modify it under
   the terms of the GNU Lesser General Public License as published by
   the Free Software Foundation, either version 3 of the License, or
   (at your option) any later version.
   
   xtb is distributed in the hope that it will be useful,
   but WITHOUT ANY WARRANTY; without even the implied warranty of
   MERCHANTABILITY or FITNESS FOR A PARTICULAR PURPOSE.  See the
   GNU Lesser General Public License for more details.
   
   Cite this work as:
   * C. Bannwarth, E. Caldeweyher, S. Ehlert, A. Hansen, P. Pracht,
     J. Seibert, S. Spicher, S. Grimme, WIREs Comput. Mol. Sci., 2020, 11,
     e01493. DOI: 10.1002/wcms.1493
   
   for GFN2-xTB:
   * C. Bannwarth, S. Ehlert and S. Grimme., J. Chem. Theory Comput., 2019,
     15, 1652-1671. DOI: 10.1021/acs.jctc.8b01176
   for GFN1-xTB:
   * S. Grimme, C. Bannwarth, P. Shushkov, J. Chem. Theory Comput., 2017,
     13, 1989-2009. DOI: 10.1021/acs.jctc.7b00118
   for GFN0-xTB:
   * P. Pracht, E. Caldeweyher, S. Ehlert, S. Grimme, ChemRxiv, 2019, preprint.
     DOI: 10.26434/chemrxiv.8326202.v1
   for GFN-FF:
   * S. Spicher and S. Grimme, Angew. Chem. Int. Ed., 2020, 59, 15665-15673.
     DOI: 10.1002/anie.202004239
   
   for ALPB and GBSA implicit solvation:
   * S. Ehlert, M. Stahn, S. Spicher, S. Grimme, J. Chem. Theory Comput.,
     2021, 17, 4250-4261. DOI: 10.1021/acs.jctc.1c00471
   
   for ddCOSMO and CPCM-X implicit solvation:
   * M. Stahn, S. Ehlert, S. Grimme, J. Phys. Chem. A,
     2023, XX, XXXX-XXXX. DOI: 10.1021/acs.jpca.3c04382
   
   for DFT-D4:
   * E. Caldeweyher, C. Bannwarth and S. Grimme, J. Chem. Phys., 2017,
     147, 034112. DOI: 10.1063/1.4993215
   * E. Caldeweyher, S. Ehlert, A. Hansen, H. Neugebauer, S. Spicher,
     C. Bannwarth and S. Grimme, J. Chem. Phys., 2019, 150, 154122.
     DOI: 10.1063/1.5090222
   * E. Caldeweyher, J.-M. Mewes, S. Ehlert and S. Grimme, Phys. Chem. Chem. Phys.
     2020, 22, 8499-8512. DOI: 10.1039/D0CP00502A
   
   for sTDA-xTB:
   * S. Grimme and C. Bannwarth, J. Chem. Phys., 2016, 145, 054103.
     DOI: 10.1063/1.4959605
   
   in the mass-spec context:
   * V. Asgeirsson, C. Bauer and S. Grimme, Chem. Sci., 2017, 8, 4879.
     DOI: 10.1039/c7sc00601b
   * J. Koopman and S. Grimme, ACS Omega 2019, 4, 12, 15120-15133.
     DOI: 10.1021/acsomega.9b02011
   
   for metadynamics refer to:
   * S. Grimme, J. Chem. Theory Comput., 2019, 155, 2847-2862
     DOI: 10.1021/acs.jctc.9b00143
   
   for SPH calculations refer to:
   * S. Spicher and S. Grimme, J. Chem. Theory Comput., 2021, 17, 1701-1714
     DOI: 10.1021/acs.jctc.0c01306
   
   for ONIOM refer to:
   * C. Plett, A. Katbashev, S. Ehlert, S. Grimme, M. Bursch,
     Phys. Chem. Chem. Phys., 2023, 25, 17860-17868. DOI: 10.1039/D3CP02178E
   
   for DIPRO refer to:
   * J. Kohn, N. Gildemeister, S. Grimme, D. Fazzi, A. Hansen,
     J. Chem. Phys., 2023, just accepted.
   
   for PTB refer to:
   * S. Grimme, M. Mueller, A. Hansen, J. Chem. Phys., 2023, 158, 124111.
     DOI: 10.1063/5.0137838
   
   with help from (in alphabetical order)
   P. Atkinson, C. Bannwarth, F. Bohle, G. Brandenburg, E. Caldeweyher
   M. Checinski, S. Dohm, S. Ehlert, S. Ehrlich, I. Gerasimov, C. Hölzer
   A. Katbashev, J. Kohn, J. Koopman, C. Lavigne, S. Lehtola, F. März, M. Müller,
   F. Musil, H. Neugebauer, J. Pisarek, C. Plett, P. Pracht, F. Pultar,
   J. Seibert, P. Shushkov, S. Spicher, M. Stahn, M. Steiner, T. Strunk,
   J. Stückrath, T. Rose, and J. Unsleber
   
 * started run on 2025/04/09 at 02:30:15.365     
   ID    Z sym.   atoms
    1    6 C      1, 2, 4, 6, 8
    2    1 H      3, 5, 7, 9, 15-20
    3    8 O      10-14

           -------------------------------------------------
          |                Calculation Setup                |
           -------------------------------------------------

          program call               : /usr/bin/xtb xtb_rrho.coord --gfn2 --bhess vtight --chrg 0 --enso --norestart -I rrho-xcontrol-inp --parallel 1
          coordinate file            : xtb_rrho.coord
          omp threads                :                     1


           -------------------------------------------------
          |                 G F N 2 - x T B                 |
           -------------------------------------------------

        Reference                      10.1021/acs.jctc.8b01176
      * Hamiltonian:
        H0-scaling (s, p, d)           1.850000    2.230000    2.230000
        zeta-weighting                 0.500000
      * Dispersion:
        s8                             2.700000
        a1                             0.520000
        a2                             5.000000
        s9                             5.000000
      * Repulsion:
        kExp                           1.500000    1.000000
        rExp                           1.000000
      * Coulomb:
        alpha                          2.000000
        third order                    shell-resolved
        anisotropic                    true
        a3                             3.000000
        a5                             4.000000
        cn-shift                       1.200000
        cn-exp                         4.000000
        max-rad                        5.000000


          ...................................................
          :                      SETUP                      :
          :.................................................:
          :  # basis functions                  50          :
          :  # atomic orbitals                  50          :
          :  # shells                           30          :
          :  # electrons                        60          :
          :  max. iterations                   250          :
          :  Hamiltonian                  GFN2-xTB          :
          :  restarted?                      false          :
          :  GBSA solvation                  false          :
          :  PC potential                    false          :
          :  electronic temp.          300.0000000     K    :
          :  accuracy                    1.0000000          :
          :  -> integral cutoff          0.2500000E+02      :
          :  -> integral neglect         0.1000000E-07      :
          :  -> SCF convergence          0.1000000E-05 Eh   :
          :  -> wf. convergence          0.1000000E-03 e    :
          :  Broyden damping             0.4000000          :
          :  net charge                          0          :
          :  unpaired electrons                  0          :
          ...................................................

 iter      E             dE          RMSdq      gap      omega  full diag
   1    -36.3490607 -0.363491E+02  0.473E+00    9.95       0.0  T
   2    -36.3802049 -0.311441E-01  0.255E+00    9.81       1.0  T
   3    -36.3810448 -0.839886E-03  0.765E-01    9.79       1.0  T
   4    -36.3819955 -0.950783E-03  0.143E-01    9.79       1.0  T
   5    -36.3820517 -0.561407E-04  0.603E-02    9.80       1.0  T
   6    -36.3820609 -0.922567E-05  0.190E-02    9.81       1.2  T
   7    -36.3820616 -0.705196E-06  0.667E-03    9.81       3.4  T
   8    -36.3820619 -0.274416E-06  0.191E-03    9.81      11.7  T
   9    -36.3820619 -0.464609E-08  0.739E-04    9.81      30.2  T
  10    -36.3820619 -0.188506E-08  0.319E-04    9.81      70.1  T

   *** convergence criteria satisfied after 10 iterations ***

         #    Occupation            Energy/Eh            Energy/eV
      -------------------------------------------------------------
         1        2.0000           -0.7263460             -19.7649
       ...           ...                  ...                  ...
        24        2.0000           -0.4798410             -13.0571
        25        2.0000           -0.4690792             -12.7643
        26        2.0000           -0.4538788             -12.3507
        27        2.0000           -0.4452696             -12.1164
        28        2.0000           -0.4304595             -11.7134
        29        2.0000           -0.4272160             -11.6251
        30        2.0000           -0.4000326             -10.8854 (HOMO)
        31                         -0.0396250              -1.0783 (LUMO)
        32                         -0.0009760              -0.0266
        33                          0.0202273               0.5504
        34                          0.0383557               1.0437
        35                          0.0506771               1.3790
       ...                                ...                  ...
        50                          0.2626708               7.1476
      -------------------------------------------------------------
                  HL-Gap            0.3604076 Eh            9.8072 eV
             Fermi-level           -0.2198288 Eh           -5.9818 eV

 SCC (total)                   0 d,  0 h,  0 min,  0.018 sec
 SCC setup                      ...        0 min,  0.000 sec (  0.737%)
 Dispersion                     ...        0 min,  0.000 sec (  0.820%)
 classical contributions        ...        0 min,  0.000 sec (  0.173%)
 integral evaluation            ...        0 min,  0.003 sec ( 15.072%)
 iterations                     ...        0 min,  0.009 sec ( 47.368%)
 molecular gradient             ...        0 min,  0.006 sec ( 35.149%)
 printout                       ...        0 min,  0.000 sec (  0.607%)

         :::::::::::::::::::::::::::::::::::::::::::::::::::::
         ::                     SUMMARY                     ::
         :::::::::::::::::::::::::::::::::::::::::::::::::::::
         :: total energy             -36.133667786684 Eh    ::
         :: gradient norm              0.043150920396 Eh/a0 ::
         :: HOMO-LUMO gap              9.807190496572 eV    ::
         ::.................................................::
         :: SCC energy               -36.381979271739 Eh    ::
         :: -> isotropic ES            0.114004257091 Eh    ::
         :: -> anisotropic ES         -0.003247570811 Eh    ::
         :: -> anisotropic XC         -0.007257855767 Eh    ::
         :: -> dispersion             -0.015352476865 Eh    ::
         :: repulsion energy           0.248311485055 Eh    ::
         :: add. restraining           0.000000000000 Eh    ::
         :: total charge               0.000000000000 e     ::
         :::::::::::::::::::::::::::::::::::::::::::::::::::::

metadynamics with 1 initial structures loaded
           -------------------------------------------------
          |           Optimal kpush determination           |
           -------------------------------------------------
      ----------------------------------------------------------- 
     |                   =====================                   |
     |                        A N C O P T                        |
     |                   =====================                   |
     |               Approximate Normal Coordinate               |
     |                Rational Function Optimizer                |
      ----------------------------------------------------------- 
target rmsd / Å         0.100000
unbiased initial rmsd   0.036496

iter. min.        max.        rmsd       kpush
final kpush: -0.000000
           -------------------------------------------------
          |            Biased Numerical Hessian             |
           -------------------------------------------------
kpush                :  -0.00000
alpha                :   1.00000
step length          :   0.00500
SCC accuracy         :   0.30000
Hessian scale factor :   1.00000
frozen atoms in %    :   0.00000    0
RMS gradient         :   0.00005
estimated CPU  time      0.02 min
estimated wall time      0.02 min

writing file <hessian>, containing the non-mass-weighted Hessian matrix in atomic units (Eₕ/Bohr²).

writing file <hessian_sph>.

 projected vibrational frequencies (cm⁻¹)
eigval :       -0.00    -0.00    -0.00     0.00     0.00     0.00
eigval :       92.67   137.69   193.76   224.47   254.33   270.06
eigval :      275.48   299.95   353.13   361.36   402.23   422.56
eigval :      491.16   504.01   512.46   576.74   701.58   814.69
eigval :      841.11   876.19   947.90   966.78  1041.56  1063.24
eigval :     1096.55  1106.38  1112.70  1128.74  1141.04  1172.73
eigval :     1187.73  1216.00  1224.30  1239.82  1268.48  1288.09
eigval :     1302.01  1311.60  1314.46  1331.29  1346.81  1356.44
eigval :     1364.33  1434.09  2790.01  2875.00  2879.96  2886.99
eigval :     2914.88  3000.97  3411.33  3474.29  3536.07  3544.67
           -------------------------------------------------
          |                Property Printout                |
           -------------------------------------------------

    * Orbital Energies and Occupations

         #    Occupation            Energy/Eh            Energy/eV
      -------------------------------------------------------------
         1        2.0000           -0.7293771             -19.8474
       ...           ...                  ...                  ...
        18        2.0000           -0.5334791             -14.5167
        19        2.0000           -0.5314754             -14.4622
        20        2.0000           -0.5253496             -14.2955
        21        2.0000           -0.5068307             -13.7916
        22        2.0000           -0.5010673             -13.6347
        23        2.0000           -0.4933904             -13.4258
        24        2.0000           -0.4807201             -13.0811
        25        2.0000           -0.4661462             -12.6845
        26        2.0000           -0.4532154             -12.3326
        27        2.0000           -0.4441872             -12.0869
        28        2.0000           -0.4265487             -11.6070
        29        2.0000           -0.4258249             -11.5873
        30        2.0000           -0.3954317             -10.7602 (HOMO)
        31                         -0.0174336              -0.4744 (LUMO)
        32                          0.0179655               0.4889
        33                          0.0307469               0.8367
        34                          0.0509891               1.3875
        35                          0.0565108               1.5377
        36                          0.0690387               1.8786
        37                          0.0799485               2.1755
        38                          0.1032311               2.8091
        39                          0.1079473               2.9374
        40                          0.1224314               3.3315
        41                          0.1436901               3.9100
       ...                                ...                  ...
        50                          0.2755573               7.4983
      -------------------------------------------------------------
                  HL-Gap            0.3779981 Eh           10.2859 eV
             Fermi-level           -0.2064326 Eh           -5.6173 eV

     #   Z          covCN         q      C6AA      α(0)
     1   6          3.709     0.064    19.642     6.334
     2   6          3.725     0.093    19.138     6.247
     3   1          0.924     0.040     2.452     2.449
     4   6          3.728     0.096    19.095     6.239
     5   1          0.923     0.044     2.401     2.423
     6   6          3.727     0.102    18.988     6.221
     7   1          0.923     0.042     2.418     2.432
     8   6          3.636     0.242    17.188     5.965
     9   1          0.922     0.014     2.833     2.632
    10   8          1.701    -0.330    19.534     5.967
    11   8          1.658    -0.440    21.641     6.280
    12   8          1.656    -0.443    21.704     6.289
    13   8          1.656    -0.451    21.857     6.311
    14   8          1.656    -0.443    21.691     6.287
    15   1          0.923     0.031     2.571     2.508
    16   1          0.924     0.071     2.076     2.253
    17   1          0.805     0.321     0.662     1.278
    18   1          0.805     0.321     0.661     1.277
    19   1          0.805     0.304     0.709     1.323
    20   1          0.804     0.323     0.655     1.272

 Mol. C6AA /au·bohr⁶  :       3279.637955
 Mol. C8AA /au·bohr⁸  :      69529.448644
 Mol. α(0) /au        :         81.986880


Wiberg/Mayer (AO) data.
largest (>0.10) Wiberg bond orders for each atom

 ---------------------------------------------------------------------------
     #   Z sym  total        # sym  WBO       # sym  WBO       # sym  WBO
 ---------------------------------------------------------------------------
     1   6      3.947 --    10      0.977     2      0.972    16      0.968
                            15      0.966
     2   6      3.969 --    14      1.017     1      0.972     3      0.960
                             4      0.959
     3   1      0.998 --     2      0.960
     4   6      3.954 --    13      0.994     6      0.975     2      0.959
                             5      0.958
     5   1      0.998 --     4      0.958
     6   6      3.962 --    12      1.001     4      0.975     8      0.958
                             7      0.956
     7   1      0.998 --     6      0.956
     8   6      3.931 --    11      1.004    10      0.970     6      0.958
                             9      0.945
     9   1      1.000 --     8      0.945
    10   8      2.080 --     1      0.977     8      0.970
    11   8      1.979 --     8      1.004    17      0.878
    12   8      1.975 --     6      1.001    18      0.872
    13   8      1.956 --     4      0.994    19      0.892
    14   8      1.967 --     2      1.017    20      0.860
    15   1      0.999 --     1      0.966
    16   1      0.995 --     1      0.968
    17   1      0.897 --    11      0.878
    18   1      0.897 --    12      0.872
    19   1      0.908 --    13      0.892
    20   1      0.896 --    14      0.860
 ---------------------------------------------------------------------------

Topologies differ in total number of bonds
Writing topology from bond orders to xtbtopo.mol

molecular dipole:
                 x           y           z       tot (Debye)
 q only:       -0.051       0.140      -0.472
   full:       -0.143       0.203      -0.775       2.069
molecular quadrupole (traceless):
                xx          xy          yy          xz          yz          zz
 q only:        1.430      -4.303      -0.081      -6.587      -0.159      -1.349
  q+dip:        0.903      -6.341       1.999      -7.998      -0.867      -2.902
   full:        1.441      -6.484       0.983      -8.578      -0.524      -2.424

           -------------------------------------------------
          |                Geometry Summary                 |
           -------------------------------------------------

      molecular mass/u    :      150.1301116
   center of mass at/Å    :       -0.0000309      -0.0001172       0.0000087
  moments of inertia/u·Å² :        0.2866606E+03   0.4128239E+03   0.4351315E+03
rotational constants/cm⁻¹ :        0.5880693E-01   0.4083492E-01   0.3874147E-01

 * 19 selected distances

     #   Z          #   Z                                           value/Å
     1   6          2   6                                         1.5393201 (max)
     2   6          3   1                                         1.0979059
     4   6          5   1                                         1.1005334
     4   6          6   6                                         1.5341427
     6   6          7   1                                         1.0998169
     6   6          8   6                                         1.5372742
     8   6          9   1                                         1.1085989
     1   6         10   8                                         1.4093920
     8   6         10   8                                         1.4048243
     8   6         11   8                                         1.3905335
     6   6         12   8                                         1.4055979
     4   6         13   8                                         1.4078471
     2   6         14   8                                         1.3973553
     1   6         15   1                                         1.0997043
     1   6         16   1                                         1.0905558
    11   8         17   1                                         0.9646140
    12   8         18   1                                         0.9680431
    13   8         19   1                                         0.9638444 (min)
    14   8         20   1                                         0.9711591

 * 4 distinct bonds (by element types)

   Z      Z             #   av. dist./Å        max./Å        min./Å
   1 H    6 C           6     1.0995192     1.1085989     1.0905558
   6 C    6 C           3     1.5369123     1.5393201     1.5341427
   1 H    8 O           4     0.9669152     0.9711591     0.9638444
   6 C    8 O           6     1.4025917     1.4093920     1.3905335

           -------------------------------------------------
          |               Frequency Printout                |
           -------------------------------------------------
 projected vibrational frequencies (cm⁻¹)
eigval :       -0.00    -0.00    -0.00     0.00     0.00     0.00
eigval :       92.67   137.69   193.76   224.47   254.33   270.06
eigval :      275.48   299.95   353.13   361.36   402.23   422.56
eigval :      491.16   504.01   512.46   576.74   701.58   814.69
eigval :      841.11   876.19   947.90   966.78  1041.56  1063.24
eigval :     1096.55  1106.38  1112.70  1128.74  1141.04  1172.73
eigval :     1187.73  1216.00  1224.30  1239.82  1268.48  1288.09
eigval :     1302.01  1311.60  1314.46  1331.29  1346.81  1356.44
eigval :     1364.33  1434.09  2790.01  2875.00  2879.96  2886.99
eigval :     2914.88  3000.97  3411.33  3474.29  3536.07  3544.67
 reduced masses (amu)
    1:      6.54    2:      6.71    3:      7.15    4:      6.57    5:      5.85    6:      6.62
    7:      4.93    8:      5.17    9:      4.77   10:      5.54   11:      4.12   12:      3.42
   13:      1.46   14:      1.08   15:      2.11   16:      2.80   17:      1.61   18:      3.08
   19:      1.98   20:      1.78   21:      6.36   22:      5.08   23:      5.96   24:      4.11
   25:      3.80   26:      2.88   27:      2.63   28:      2.29   29:      2.16   30:      2.30
   31:      2.93   32:      2.66   33:      3.87   34:      3.44   35:      4.80   36:      1.20
   37:      1.13   38:      1.24   39:      1.33   40:      1.40   41:      1.50   42:      1.28
   43:      1.25   44:      1.34   45:      1.29   46:      1.35   47:      1.63   48:      1.88
   49:      1.31   50:      1.09   51:      1.07   52:      1.07   53:      1.07   54:      1.07
   55:      1.07   56:      1.07   57:      1.07   58:      1.07   59:      1.07   60:      1.07
 IR intensities (km·mol⁻¹)
    1:      0.16    2:      0.19    3:      0.15    4:      0.14    5:      0.31    6:      0.11
    7:      0.08    8:      4.11    9:      3.13   10:      7.59   11:      1.50   12:     57.90
   13:     72.57   14:    136.09   15:     29.76   16:      6.26   17:     21.97   18:     40.46
   19:     94.61   20:    247.87   21:     11.39   22:      9.31   23:     20.99   24:     27.23
   25:     22.43   26:     16.97   27:     30.46   28:      9.54   29:     17.01   30:     34.25
   31:      9.46   32:     88.23   33:    168.77   34:     88.28   35:     91.17   36:      8.86
   37:    189.34   38:     39.23   39:     61.20   40:     41.82   41:     14.65   42:      6.32
   43:     26.56   44:     15.72   45:     47.74   46:     70.44   47:     33.16   48:      6.40
   49:    111.97   50:      2.65   51:     78.09   52:     39.42   53:     62.73   54:     57.69
   55:     59.07   56:     16.67   57:    119.47   58:     47.81   59:     30.46   60:     14.14
 Raman intensities (Ä⁴*amu⁻¹)
    1:      0.00    2:      0.00    3:      0.00    4:      0.00    5:      0.00    6:      0.00
Molecule has no symmetry elements
It seems to be the C1 point group
    7:      0.00    8:      0.00    9:      0.00   10:      0.00   11:      0.00   12:      0.00
   13:      0.00   14:      0.00   15:      0.00   16:      0.00   17:      0.00   18:      0.00
   19:      0.00   20:      0.00   21:      0.00   22:      0.00   23:      0.00   24:      0.00
   25:      0.00   26:      0.00   27:      0.00   28:      0.00   29:      0.00   30:      0.00
   31:      0.00   32:      0.00   33:      0.00   34:      0.00   35:      0.00   36:      0.00
   37:      0.00   38:      0.00   39:      0.00   40:      0.00   41:      0.00   42:      0.00
   43:      0.00   44:      0.00   45:      0.00   46:      0.00   47:      0.00   48:      0.00
   49:      0.00   50:      0.00   51:      0.00   52:      0.00   53:      0.00   54:      0.00
   55:      0.00   56:      0.00   57:      0.00   58:      0.00   59:      0.00   60:      0.00
 output can be read by thermo (or use thermo option).
 writing <g98.out> molden fake output.
 recommended (thermochemical) frequency scaling factor: 1.0
           -------------------------------------------------
          |             Thermodynamic Functions             |
           -------------------------------------------------

c1  symmetry found (for desy threshold:  0.10E+00) used in thermo

          ...................................................
          :                      SETUP                      :
          :.................................................:
          :  # frequencies                          54      :
          :  # imaginary freq.                       0      :
          :  linear?                             false      :
          :  only rotor calc.                    false      :
          :  symmetry                               c1      :
          :  rotational number                       1      :
          :  scaling factor                  1.0000000      :
          :  rotor cutoff                    0.0000000 cm⁻¹ :
          :  imag. cutoff                 -100.0000000 cm⁻¹ :
          :.................................................:

    mode    ω/cm⁻¹     T·S(HO)/kcal·mol⁻¹    T·S(FR)/kcal·mol⁻¹   T·S(vib)
   ------------------------------------------------------------------------
       1     92.67    -1.07418 (100.00%)    -0.87361 (  0.00%)    -1.07418
       2    137.69    -0.84548 (100.00%)    -0.75637 (  0.00%)    -0.84548
       3    193.76    -0.65340 (100.00%)    -0.65519 (  0.00%)    -0.65340
       4    224.47    -0.57327 (100.00%)    -0.61162 (  0.00%)    -0.57327
       5    254.33    -0.50696 (100.00%)    -0.57462 (  0.00%)    -0.50696
       6    270.06    -0.47580 (100.00%)    -0.55686 (  0.00%)    -0.47580
       7    275.48    -0.46558 (100.00%)    -0.55096 (  0.00%)    -0.46558
       8    299.95    -0.42252 (100.00%)    -0.52576 (  0.00%)    -0.42252
   ------------------------------------------------------------------------

   temp. (K)  partition function   enthalpy   heat capacity  entropy
                                   cal/mol     cal/K/mol   cal/K/mol   J/K/mol
 298.15  VIB   163.                 4529.992     32.970     25.321
         ROT  0.548E+06              888.727      2.981     29.240
         INT  0.896E+08             5418.719     35.951     54.561
         TR   0.563E+26             1481.212      4.968     40.929
         TOT                        6899.9316    40.9187    95.4904   399.5319

       T/K    H(0)-H(T)+PV         H(T)/Eh          T*S/Eh         G(T)/Eh
   ------------------------------------------------------------------------
    298.15    0.109957E-01    0.167922E+00    0.453706E-01    0.122552E+00
   ------------------------------------------------------------------------

         :::::::::::::::::::::::::::::::::::::::::::::::::::::
         ::                  THERMODYNAMIC                  ::
         :::::::::::::::::::::::::::::::::::::::::::::::::::::
         :: total free energy         -36.013284769359 Eh   ::
         ::.................................................::
         :: total energy              -36.135836630836 Eh   ::
         :: zero point energy           0.156926696771 Eh   ::
         :: G(RRHO) w/o ZPVE           -0.034374835293 Eh   ::
         :: G(RRHO) contrib.            0.122551861477 Eh   ::
         :::::::::::::::::::::::::::::::::::::::::::::::::::::

optimized geometry written to: xtbopt.coord


           -------------------------------------------------
          | TOTAL ENERGY              -36.135836630836 Eh   |
          | TOTAL ENTHALPY            -35.967914193201 Eh   |
          | TOTAL FREE ENERGY         -36.013284769359 Eh   |
          | GRADIENT NORM               0.000051262405 Eh/α |
          | HOMO-LUMO GAP              10.285850513430 eV   |
           -------------------------------------------------

------------------------------------------------------------------------
 * finished run on 2025/04/09 at 02:30:17.121     
------------------------------------------------------------------------
 total:
 * wall-time:     0 d,  0 h,  0 min,  1.756 sec
 *  cpu-time:     0 d,  0 h,  0 min,  1.698 sec
 * ratio c/w:     0.967 speedup
 SCF:
 * wall-time:     0 d,  0 h,  0 min,  0.018 sec
 *  cpu-time:     0 d,  0 h,  0 min,  0.017 sec
 * ratio c/w:     0.954 speedup
 analytical hessian:
 * wall-time:     0 d,  0 h,  0 min,  1.527 sec
 *  cpu-time:     0 d,  0 h,  0 min,  1.494 sec
 * ratio c/w:     0.978 speedup

