20
 energy: -36.133667787527 gnorm: 0.043148124599 xtb: 6.7.1 (41059b4)
C            0.87672603528079        1.38831681361304       -0.60577954447589
C            1.59311023311261        0.17347749705441       -0.02375909600578
H            2.57098313701074        0.07932667793875       -0.51886774987463
C            0.77778160109171       -1.10538360308259       -0.30165538484688
H            1.20614506151233       -1.93393249989586        0.28070913397128
C           -0.68394994949406       -0.92638322596736        0.11625160959385
H           -1.27440310348554       -1.76990515578035       -0.27195623733818
C           -1.24154811010762        0.37270009064598       -0.46503201972628
H           -1.27619762902500        0.30648479796932       -1.56772074987433
O           -0.45488728126632        1.49052080046193       -0.08169844598230
O           -2.52185266363779        0.54609904823945        0.08753902617449
O           -0.72015136958268       -0.88915763822573        1.54277751750499
O            0.74326186108312       -1.40534572591610       -1.70116486980552
O            1.85850092465221        0.32384952229333        1.36182581308444
H            0.84717838804121        1.32228357319660       -1.70548211396076
H            1.39178178916090        2.30424045958540       -0.30766870476852
H           -2.80666763811769        1.44597917102547       -0.11359582727136
H           -1.55143615844715       -0.45473701641837        1.78170232950342
H            1.63487646261296       -1.64147047639459       -1.97861696049871
H            1.01170381026205        0.19952443793078        1.81838348345423
20
 energy: -36.135327338959 gnorm: 0.021012588258 xtb: 6.7.1 (41059b4)
C            0.86625135895520        1.38662579282056       -0.59902188495372
C            1.59705326680826        0.16799866638738       -0.02836499464915
H            2.57951225149062        0.08596524338533       -0.51307387460201
C            0.78085125629295       -1.10790323043697       -0.31406643457304
H            1.20810394170734       -1.93793624766096        0.26453235787860
C           -0.67461842480253       -0.92115192867737        0.12577809977484
H           -1.27171851292017       -1.76340872292446       -0.24989419759217
C           -1.24371882478039        0.37459368426004       -0.45808525400458
H           -1.28194042180849        0.29312603664112       -1.55988657057630
O           -0.45896777615442        1.49099982357769       -0.09626123887159
O           -2.51614418745501        0.55700691305956        0.08843635236040
O           -0.72076198927956       -0.87047512202714        1.53933581876557
O            0.75919097366380       -1.41042412843628       -1.70095429535636
O            1.85304022401471        0.30668053556356        1.34836720454861
H            0.83674724217048        1.31967617140772       -1.69552181301098
H            1.36743018881975        2.30629854388091       -0.29412044789366
H           -2.79766577531237        1.45766875467927       -0.11061620595845
H           -1.55956615488025       -0.44604121427138        1.76914514275499
H            1.65163308249850       -1.64785880862568       -1.97570308346788
H            1.00624368162838        0.18504678567063        1.80616652828444
20
 energy: -36.135749663295 gnorm: 0.003914541741 xtb: 6.7.1 (41059b4)
C            0.85922445491519        1.38739331324055       -0.59804166186210
C            1.59601420196509        0.16761631752249       -0.02311107615796
H            2.57925334339996        0.09814778765307       -0.50551842828838
C            0.78157291066698       -1.10815069642711       -0.32274970927635
H            1.20738995762521       -1.93959717236877        0.25658715121219
C           -0.67064732485955       -0.91866777379509        0.13163390926045
H           -1.27174384430995       -1.76205041845530       -0.23679364623572
C           -1.24455630185662        0.37517196294858       -0.46241969899570
H           -1.28584724897897        0.28058453118731       -1.56556091168785
O           -0.46094158950911        1.48867010908197       -0.11267795092348
O           -2.50873977215827        0.55983632709807        0.08449769881928
O           -0.71086469361468       -0.85692978650692        1.53572885338001
O            0.75821008372782       -1.41123560983214       -1.69890358078516
O            1.84748336817938        0.29560762978330        1.34692619065751
H            0.84250668766310        1.31793115706708       -1.69449638953779
H            1.35375088688615        2.30699336963363       -0.28469296508516
H           -2.78618598975829        1.46437726527059       -0.10139312360425
H           -1.55640373671235       -0.44543651999464        1.76563363465931
H            1.64941707733013       -1.64985191758261       -1.97741772295111
H            1.00206293005558        0.17607767274947        1.80896063625983
20
 energy: -36.135794296569 gnorm: 0.001490735533 xtb: 6.7.1 (41059b4)
C            0.85798682905216        1.38811652515532       -0.59797250369653
C            1.59603609636296        0.16786418756775       -0.02064436400604
H            2.57858260990995        0.10061988478383       -0.50519970315851
C            0.78161189586979       -1.10868900703582       -0.32327202842898
H            1.20827848348954       -1.94007081201935        0.25746012839355
C           -0.67097242662326       -0.91914046792664        0.13297058501937
H           -1.27248319147332       -1.76344602776496       -0.23454450608499
C           -1.24595917894698        0.37393706699637       -0.46582722074039
H           -1.28628732603617        0.27388734604439       -1.56934104714427
O           -0.46350047831307        1.48844051268242       -0.11936867086603
O           -2.50937373313524        0.55858254389167        0.08109021936741
O           -0.70830356409266       -0.85161456568875        1.53591450061650
O            0.75536620206749       -1.40834835155024       -1.69843781755871
O            1.84708611033022        0.29402454555778        1.34816176988918
H            0.85116496054315        1.31744048040861       -1.69519942945364
H            1.35282486839399        2.30722889525198       -0.28309907262081
H           -2.78277630603427        1.46668360000915       -0.09479784402733
H           -1.55663118667385       -0.44622406508844        1.76687412750914
H            1.64578367768016       -1.64600562680190       -1.98055223869072
H            1.00252105828622        0.17320088380035        1.81197632453937
20
 energy: -36.135816077029 gnorm: 0.002479368878 xtb: 6.7.1 (41059b4)
C            0.85702455701612        1.38921154666635       -0.59842828231679
C            1.59545314793574        0.16845919174512       -0.01738616299517
H            2.57638257992673        0.10181760982459       -0.50607694292668
C            0.78129479576978       -1.10946534095486       -0.32220334367923
H            1.20976832412735       -1.94084284889308        0.25899737019081
C           -0.67175727351948       -0.92007485025050        0.13488507147986
H           -1.27311925670566       -1.76591891620528       -0.23059528480665
C           -1.24736777370437        0.37087526386465       -0.47199800515981
H           -1.28580133853404        0.26381280765929       -1.57532985223695
O           -0.46764119588098        1.48848976318777       -0.12936707077306
O           -2.51181432377073        0.55605341258000        0.07317630120023
O           -0.70698248162639       -0.84488048965140        1.53752686925600
O            0.75129283587307       -1.40440076749068       -1.69763142754418
O            1.84832073270985        0.29380375236036        1.35032271285551
H            0.86221599997006        1.31880774000414       -1.69654714030811
H            1.35156346326501        2.30810151668196       -0.28111754328765
H           -2.77449093283365        1.47168648114725       -0.08280932017724
H           -1.55966887877091       -0.44922930737477        1.76947260875989
H            1.64091087577434       -1.63883421143212       -1.98527418352813
H            1.00537154363497        0.16901519480474        1.81657483485492
20
 energy: -36.135823484616 gnorm: 0.001649107925 xtb: 6.7.1 (41059b4)
C            0.85699638804446        1.38907061049100       -0.59857362992301
C            1.59529278681445        0.16851467950703       -0.01782561543339
H            2.57624814007499        0.10137977737526       -0.50644912954427
C            0.78114911876327       -1.10936329431597       -0.32165839107074
H            1.20986320647539       -1.94079377788687        0.25878407515022
C           -0.67177354250835       -0.92015462400742        0.13485017188771
H           -1.27306802043813       -1.76622584710931       -0.22963837500687
C           -1.24729321897998        0.37012440657756       -0.47262365389387
H           -1.28545905277314        0.26278807220815       -1.57562421554372
O           -0.46806268125826        1.48819833302596       -0.12999299758331
O           -2.51252548258969        0.55592673208817        0.07141260179581
O           -0.70764140480997       -0.84436684665920        1.53761906915624
O            0.75146412570208       -1.40483198600616       -1.69731189721649
O            1.84849255968695        0.29462800946065        1.34998632091269
H            0.86176252776567        1.31953468034144       -1.69648845459393
H            1.35072076600876        2.30807371667399       -0.28035861152512
H           -2.77136503829275        1.47323385762238       -0.08004709962542
H           -1.56090286232387       -0.44992537705754        1.76900513750664
H            1.64134643161580       -1.63809383356479       -1.98497426569649
H            1.00571065367914        0.16877025950918        1.81610016910489
20
 energy: -36.135832758357 gnorm: 0.001456774609 xtb: 6.7.1 (41059b4)
C            0.85619483638607        1.38857645215171       -0.59965499632228
C            1.59372859963335        0.16881340902378       -0.01951343800213
H            2.57511337519521        0.10034363816907       -0.50708740740339
C            0.78063810954815       -1.10924763223220       -0.32022161981390
H            1.21021135940738       -1.94049933095691        0.25821510379847
C           -0.67158337464522       -0.92048393086562        0.13471315484571
H           -1.27218560928448       -1.76823646089291       -0.22513216484080
C           -1.24728414811536        0.36652903012859       -0.47630515412270
H           -1.28437040556677        0.25731884205610       -1.57830876763871
O           -0.47053461215891        1.48623696142709       -0.13379087360650
O           -2.51534341784335        0.55519231283302        0.06313563241333
O           -0.70944065404626       -0.84064905152241        1.53774184070016
O            0.75242743533747       -1.40752665467380       -1.69639544249586
O            1.84754695379922        0.29772330389213        1.34876720212818
H            0.86081703921534        1.32268976636369       -1.69700355698564
H            1.34623414201754        2.30775859451016       -0.27664062725873
H           -2.75433820754443        1.48170714413294       -0.06322028983942
H           -1.56606423875626       -0.45270209736532        1.76642762508364
H            1.64383613253473       -1.63483955068431       -1.98384788999021
H            1.00535208554339        0.16778280277873        1.81431287820835
20
 energy: -36.135835307230 gnorm: 0.000337413546 xtb: 6.7.1 (41059b4)
C            0.85616101238489        1.38864185763028       -0.59973865035882
C            1.59401125820580        0.16880165297851       -0.01918794522571
H            2.57556424279726        0.10107346887370       -0.50648704984297
C            0.78086794350756       -1.10934528971896       -0.32075116222522
H            1.21015259789107       -1.94036183209622        0.25895359655302
C           -0.67178074133808       -0.92065449410540        0.13439153303267
H           -1.27235353020181       -1.76826273829292       -0.22663732252506
C           -1.24754318932449        0.36723053012570       -0.47583287772836
H           -1.28498881241091        0.25822327176901       -1.57828651896754
O           -0.47024433629194        1.48634643835578       -0.13335233691855
O           -2.51470645150458        0.55545706445861        0.06490650051811
O           -0.70910571466762       -0.84130760991707        1.53728023364767
O            0.75250091354774       -1.40731350315251       -1.69659218464983
O            1.84698794527537        0.29700035392254        1.34910854605639
H            0.86129058067586        1.32175821008312       -1.69732928988759
H            1.34708694758103        2.30772696649227       -0.27791446366270
H           -2.75607081302957        1.48050450020779       -0.06350333434862
H           -1.56513159005566       -0.45197895427208        1.76631071479641
H            1.64384032068481       -1.63543026071578       -1.98371497145832
H            1.00441681693007        0.16837791564715        1.81456819205259
20
 energy: -36.135836010026 gnorm: 0.000181918859 xtb: 6.7.1 (41059b4)
C            0.85596319723913        1.38858641844252       -0.60013987085771
C            1.59386263915982        0.16888976121563       -0.01908221831202
H            2.57556455362423        0.10142833610772       -0.50603586214986
C            0.78108836410383       -1.10952647690157       -0.32090490433532
H            1.21020516629233       -1.94022110802390        0.25965672801076
C           -0.67186575960979       -0.92090602121515        0.13390573428427
H           -1.27212108504575       -1.76851165820026       -0.22782320042950
C           -1.24771355097871        0.36729478357279       -0.47604212480982
H           -1.28539300921198        0.25856270222287       -1.57867657424288
O           -0.47030880188291        1.48616299157814       -0.13345645075127
O           -2.51462832201523        0.55550103543361        0.06508676146275
O           -0.70952951126527       -0.84193068666928        1.53676865729062
O            0.75312059770984       -1.40782483837906       -1.69653965755053
O            1.84630829662506        0.29721815743796        1.34926617268675
H            0.86107432204405        1.32106204902830       -1.69778333960600
H            1.34707343746924        2.30782411616145       -0.27902942927722
H           -2.75447805595981        1.48150432427125       -0.05992230245991
H           -1.56543289975484       -0.45206554554513        1.76563454994889
H            1.64467208473150       -1.63572858200813       -1.98323545875490
H            1.00349373738205        0.16916778974377        1.81454399871047
20
 energy: -36.135836423116 gnorm: 0.000130800610 xtb: 6.7.1 (41059b4)
C            0.85580095210292        1.38841581864960       -0.60059959268574
C            1.59384928784117        0.16904131810722       -0.01913676217992
H            2.57576549885601        0.10166953773086       -0.50564714674158
C            0.78125676132973       -1.10950409952714       -0.32090458387061
H            1.21016352624557       -1.93987584064359        0.26031392487249
C           -0.67199787721087       -0.92115541762212        0.13331866003755
H           -1.27192225376152       -1.76869032138132       -0.22917611644026
C           -1.24781227264441        0.36737033772385       -0.47609198876721
H           -1.28579448296076        0.25893586803103       -1.57879741834680
O           -0.47030341045917        1.48607417097729       -0.13335493425091
O           -2.51461398914989        0.55567303964087        0.06530671932553
O           -0.71026642087704       -0.84286587967519        1.53620930700381
O            0.75397964505752       -1.40836068106307       -1.69638297437516
O            1.84567135637604        0.29760456397842        1.34933214281411
H            0.86037391650651        1.32022625577949       -1.69821723123686
H            1.34702695999262        2.30787229220851       -0.28029336599188
H           -2.75260209701141        1.48251832927617       -0.05620510940063
H           -1.56597866984961       -0.45227135738796        1.76477318558995
H            1.64575087472870       -1.63612992805104       -1.98251608141304
H            1.00260809554469        0.16993954152165        1.81426057491474
20
 energy: -36.135836570745 gnorm: 0.000086522141 xtb: 6.7.1 (41059b4)
C            0.85575318610729        1.38834086476933       -0.60095692990133
C            1.59371023673091        0.16916320049961       -0.01907265617294
H            2.57574852316970        0.10176539234796       -0.50530574719988
C            0.78140194848060       -1.10955245427068       -0.32085860710600
H            1.21018413983488       -1.93980106705517        0.26058277843517
C           -0.67195701066824       -0.92120695640629        0.13295834561369
H           -1.27170887747472       -1.76864354560552       -0.22999003000118
C           -1.24785078696091        0.36743637572028       -0.47612617407821
H           -1.28615632114357        0.25921233974373       -1.57879910311101
O           -0.47023494025015        1.48607891083145       -0.13343912536494
O           -2.51456072627529        0.55586734570066        0.06556673100586
O           -0.71067998259003       -0.84350012968475        1.53586090959990
O            0.75458423759630       -1.40865889490357       -1.69628874077716
O            1.84517052917393        0.29806121151158        1.34942101207131
H            0.85998539797711        1.31960079511549       -1.69851643241025
H            1.34696981578401        2.30799966856702       -0.28118356139200
H           -2.75144859163544        1.48324268357181       -0.05392692573585
H           -1.56639676644266       -0.45274576769094        1.76425493058883
H            1.64640941121374       -1.63654334291260       -1.98214889858639
H            1.00203197802936        0.17037091842413        1.81415943337996
20
 energy: -36.135836630797 gnorm: 0.000051393678 xtb: 6.7.1 (41059b4)
C            0.85577652806766        1.38824664137859       -0.60121028259724
C            1.59377125947959        0.16926399312763       -0.01901521163659
H            2.57592212040115        0.10180116501279       -0.50504560189164
C            0.78143464851556       -1.10942675317716       -0.32081556513496
H            1.21016070909396       -1.93963754447504        0.26066327895084
C           -0.67198532857668       -0.92125546312169        0.13278710358188
H           -1.27168751591687       -1.76864931194421       -0.23036295709712
C           -1.24786140709441        0.36745835876383       -0.47614223933796
H           -1.28647448942220        0.25928511806047       -1.57877498504179
O           -0.47018513043468        1.48613513663859       -0.13363263549288
O           -2.51447206055354        0.55596621176253        0.06584058786623
O           -0.71089829956324       -0.84379726205045        1.53570945726278
O            0.75488305705736       -1.40859806385252       -1.69625176354407
O            1.84488360265699        0.29837356017718        1.34951489635686
H            0.85992288028803        1.31920282416896       -1.69873703616293
H            1.34698421481321        2.30800101718423       -0.28171271255693
H           -2.75087464662904        1.48360839933403       -0.05279279613098
H           -1.56672364657597       -0.45324211070559        1.76404473072057
H            1.64669006155347       -1.63674368695910       -1.98195391314399
H            1.00168884349646        0.17049531895046        1.81407885388748
