7
 energy: -1623.683363402553 gnorm: 0.048765128018 xtb: 6.7.1 (41059b4)
C            0.19805194348776        0.02183317740967        0.02371344311051
N           -1.34134026249438        0.01054417580467       -0.20840081639235
O           -1.80494854379982        0.96798079552894       -0.73977303412781
O           -1.89430957423942       -0.97229417413085        0.17389135967706
Cl           0.83765562637119       -1.35311874009960       -0.88725339489317
Cl           0.85310567477803        1.54171952638318       -0.54306924484065
Cl           0.44149433569564       -0.19821678308784        1.75999721767990
7
 energy: -1623.685886929258 gnorm: 0.018008991555 xtb: 6.7.1 (41059b4)
C            0.20028233596333        0.02584283511644        0.02285310522126
N           -1.37199301481751        0.00911518061256       -0.21112432004316
O           -1.85594961540370        0.97081862923848       -0.75062197268428
O           -1.92196094755401       -0.99153221634014        0.17608564498782
Cl           0.85890916561611       -1.34407879475184       -0.89293321316792
Cl           0.91533926965044        1.53210044798344       -0.52810212528546
Cl           0.46508200053293       -0.18381809167015        1.76294837425649
7
 energy: -1623.686370432868 gnorm: 0.014435544458 xtb: 6.7.1 (41059b4)
C            0.22271518628803        0.02126625869853        0.02750374994613
N           -1.37143678300348        0.00973284791860       -0.21430696027060
O           -1.85686149450393        0.97795503122690       -0.75211803228898
O           -1.92543078447367       -0.99257216587215        0.17851811129232
Cl           0.85852324782529       -1.35504483502809       -0.90144930427041
Cl           0.90345115253735        1.54271734668346       -0.53468149832937
Cl           0.45874868593517       -0.18560650345538        1.77563946622443
7
 energy: -1623.686536666140 gnorm: 0.011024734615 xtb: 6.7.1 (41059b4)
C            0.22753807648191        0.02095942961685        0.02878677500245
N           -1.38005304093284        0.01242343225393       -0.21273256275631
O           -1.86126213405190        0.97854527757335       -0.75432418988784
O           -1.93384065053896       -0.99098713984400        0.17362659574229
Cl           0.86598232563452       -1.35597679089589       -0.89446365027179
Cl           0.90242629179330        1.54359776317118       -0.53587136675618
Cl           0.46891834402547       -0.19011402199819        1.77408384503061
7
 energy: -1623.686629644159 gnorm: 0.004482236206 xtb: 6.7.1 (41059b4)
C            0.23701521867632        0.02057252461088        0.02907547764685
N           -1.39244062997233        0.00946006717943       -0.22169002305549
O           -1.86894759509297        0.97942891520659       -0.75082463444327
O           -1.94578090075985       -0.98554668401056        0.17502986597441
Cl           0.87786681161545       -1.35457615865381       -0.88672901169651
Cl           0.90536735040358        1.54343185048239       -0.53582234195564
Cl           0.47662896907209       -0.19432262256423        1.77006601094268
7
 energy: -1623.686660888973 gnorm: 0.002441787064 xtb: 6.7.1 (41059b4)
C            0.23987952285869        0.02057004457367        0.03037831275056
N           -1.39355434458849        0.01194263279430       -0.21433873070986
O           -1.86723328783803        0.97728154756666       -0.75327955001658
O           -1.94309940955655       -0.98899800320306        0.17052785016929
Cl           0.87228055421903       -1.35419126909054       -0.88996277930930
Cl           0.90622210972740        1.54257553032180       -0.53539991049532
Cl           0.47521407395078       -0.19073255550421        1.77118019612767
7
 energy: -1623.686667238129 gnorm: 0.000659448829 xtb: 6.7.1 (41059b4)
C            0.23906799985150        0.02048873914093        0.03057319688478
N           -1.39240779416518        0.01125861371263       -0.21581931166876
O           -1.86651473310902        0.97846920373712       -0.75298070105355
O           -1.94215380874466       -0.98935104898757        0.17151668257567
Cl           0.87167797243544       -1.35391829160335       -0.89016318173574
Cl           0.90533148518792        1.54211153632587       -0.53547098622239
Cl           0.47470809752334       -0.19061082452885        1.77144969696713
7
 energy: -1623.686668094249 gnorm: 0.000862706097 xtb: 6.7.1 (41059b4)
C            0.23901997788920        0.02081594083141        0.03018407992150
N           -1.39210251919163        0.01114187324026       -0.21616284261826
O           -1.86642958909173        0.97897739870490       -0.75264587645719
O           -1.94127814373379       -0.98975731622306        0.17205625107212
Cl           0.87129477201527       -1.35386088370870       -0.88961620040362
Cl           0.90529891068725        1.54187333156979       -0.53532812763433
Cl           0.47390580928406       -0.19074241558897        1.77061811118593
7
 energy: -1623.686668094249 gnorm: 0.000862706097 xtb: 6.7.1 (41059b4)
C            0.23901997788920        0.02081594083141        0.03018407992150
N           -1.39210251919163        0.01114187324026       -0.21616284261826
O           -1.86642958909173        0.97897739870490       -0.75264587645719
O           -1.94127814373379       -0.98975731622306        0.17205625107212
Cl           0.87129477201527       -1.35386088370870       -0.88961620040362
Cl           0.90529891068725        1.54187333156979       -0.53532812763433
Cl           0.47390580928406       -0.19074241558897        1.77061811118593
