
                                 *****************
                                 * O   R   C   A *
                                 *****************

                                            #,                                       
                                            ###                                      
                                            ####                                     
                                            #####                                    
                                            ######                                   
                                           ########,                                 
                                     ,,################,,,,,                         
                               ,,#################################,,                 
                          ,,##########################################,,             
                       ,#########################################, ''#####,          
                    ,#############################################,,   '####,        
                  ,##################################################,,,,####,       
                ,###########''''           ''''###############################       
              ,#####''   ,,,,##########,,,,          '''####'''          '####       
            ,##' ,,,,###########################,,,                        '##       
           ' ,,###''''                  '''############,,,                           
         ,,##''                                '''############,,,,        ,,,,,,###''
      ,#''                                            '''#######################'''  
     '                                                          ''''####''''         
             ,#######,   #######,   ,#######,      ##                                
            ,#'     '#,  ##    ##  ,#'     '#,    #''#        ,####,   ,####,        
            ##       ##  ##   ,#'  ##            #'  '#       #'       #'  '#        
            ##       ##  #######   ##           ,######,      #####,   #    #        
            '#,     ,#'  ##    ##  '#,     ,#' ,#      #,     #,   #   #,  ,#        
             '#######'   ##     ##  '#######'  #'      '#     '####' # '####'        



                #########################################################
                #                        -***-                          #
                #          Department of theory and spectroscopy        #
                #                                                       #
                #                      Frank Neese                      #
                #                                                       #
                #     Directorship, Architecture, Infrastructure        #
                #                    SHARK, DRIVERS                     #
                #        Core code/Algorithms in most modules           #
                #                                                       #
                #        Max Planck Institute fuer Kohlenforschung      #
                #                Kaiser Wilhelm Platz 1                 #
                #                 D-45470 Muelheim/Ruhr                 #
                #                      Germany                          #
                #                                                       #
                #                  All rights reserved                  #
                #                        -***-                          #
                #########################################################


                         Program Version 6.0.1  -  RELEASE   -


 With contributions from (in alphabetic order):
[Max-Planck-Institut fuer Kohlenforschung]                               
  Daniel Aravena         : Magnetic Suceptibility                        
  Michael Atanasov       : Ab Initio Ligand Field Theory (pilot matlab implementation)
  Alexander A. Auer      : GIAO ZORA, VPT2 properties, NMR spectrum      
  Ute Becker             : All parallelization in ORCA, NUMFREQ, NUMCALC 
  Giovanni Bistoni       : ED, misc. LED, open-shell LED, HFLD           
  Martin Brehm           : Molecular dynamics                            
  Dmytro Bykov           : pre 5.0 version of the SCF Hessian            
  Marcos Casanova-Páez   : Triplet and SCS-CIS(D). UHF-(DLPNO)-IP/EA/STEOM-CCSD. UHF-CVS-IP/STEOM-CCSD   
  Vijay G. Chilkuri      : MRCI spin determinant printing, contributions to CSF-ICE 
  Pauline Colinet        : FMM embedding                                 
  Dipayan Datta          : RHF DLPNO-CCSD density                        
  Achintya Kumar Dutta   : EOM-CC, STEOM-CC                              
  Nicolas Foglia         : Exact transition moments, OPA infrastructure, MCD improvements    
  Dmitry Ganyushin       : Spin-Orbit,Spin-Spin,Magnetic field MRCI      
  Miquel Garcia-Rates    : C-PCM and meta-GGA Hessian, CCSD/C-PCM, Gaussian charge scheme 
  Tiago L. C. Gouveia    : GS-ROHF, GS-ROCIS                             
  Yang Guo               : DLPNO-NEVPT2, F12-NEVPT2, CIM, IAO-localization        
  Andreas Hansen         : Spin unrestricted coupled pair/coupled cluster methods 
  Ingolf Harden          : AUTO-CI MPn and infrastructure                
  Benjamin Helmich-Paris : MC-RPA, TRAH-(SCF,CASSCF), AVAS, COSX integrals, SCF dyn. polar. 
  Lee Huntington         : MR-EOM, pCC                                   
  Robert Izsak           : Overlap fitted RIJCOSX, COSX-SCS-MP3, EOM     
  Riya Kayal             : Wick's Theorem for AUTO-CI, AUTO-CI UHF-CCSDT 
  Emily Kempfer          : AUTO-CI, RHF CISDT and CCSDT                  
  Christian Kollmar      : KDIIS, OOCD, Brueckner-CCSD(T), CCSD density, CASPT2, CASPT2-K, improved NEVPT2 
  Axel Koslowski         : Symmetry handling                             
  Simone Kossmann        : meta-GGA functionals, TD-DFT gradient, OOMP2, (MP2 Hessian; deprecated post 5.0) 
  Lucas Lang             : DCDCAS                                        
  Marvin Lechner         : AUTO-CI (C++ implementation), FIC-MRCC        
  Spencer Leger          : CASSCF response                               
  Dagmar Lenk            : GEPOL surface, SMD, ORCA-2-JSON               
  Dimitrios Liakos       : Extrapolation schemes; Compound Job, initial MDCI parallelization 
  Dimitrios Manganas     : Further ROCIS development; embedding schemes. LFT, Crystal Embedding 
  Dimitrios Pantazis     : SARC Basis sets                               
  Anastasios Papadopoulos: AUTO-CI, single reference methods and gradients 
  Taras Petrenko         : pre 6.0 DFT Hessian and TD-DFT gradient, (ASA, deprecated), ECA, 1-Electron XAS/XES, NRVS 
  Peter Pinski           : DLPNO-MP2, DLPNO-MP2 Gradient                 
  Christoph Reimann      : Effective Core Potentials                     
  Marius Retegan         : Local ZFS, SOC                                
  Christoph Riplinger    : Optimizer, TS searches, QM/MM, DLPNO-CCSD(T), (RO)-DLPNO pert. Triples 
  Michael Roemelt        : Original ROCIS implementation                 
  Masaaki Saitow         : Open-shell DLPNO-CCSD energy and density      
  Barbara Sandhoefer     : DKH picture change effects                    
  Kantharuban Sivalingam : CASSCF convergence/infrastructure, NEVPT2 and variants, FIC-MRCI 
  Bernardo de Souza      : ESD, SOC TD-DFT                               
  Georgi L. Stoychev     : AutoAux, RI-MP2 NMR, DLPNO-MP2 response, X2C  
  Van Anh Tran           : RI-MP2 g-tensors                              
  Willem Van den Heuvel  : Paramagnetic NMR                              
  Zikuan Wang            : NOTCH, Electric field optimization            
  Frank Wennmohs         : Technical directorship and infrastructure     
  Hang Xu                : AUTO-CI-Response properties                   
                                                                         
[FACCTs GmbH]                                                            
  Markus Bursch, Miquel Garcia-Rates, Christoph Riplinger, Bernardo de Souza, Georgi L. Stoychev 
                                                                 
  APM, Basis sets (HGBS, AHGBS, def-TZVP (Ac-Lr), def2-XVPD (La-Lu)), CI-OPT, improved COSX, DLPNO-Multilevel,           
  DOCKER, DRACO, updates on ESD, GOAT, IRC, LR-CPCM, MBIS, meta-GGA TD-DFT gradient, ML-optimized integration grids, 
  MM, NACMEs, nearIR, NEB, NEB-TS, NL-DFT gradient (VV10), 2- and 3-layer-ONIOM, interface openCOSMO-RS, QMMM,   
  Crystal-QMMM, SF, symmetry and pop. for TD-DFT, r2SCAN hybrids, SOLVATOR                                   
                                                                         
[Other institutions]                                                     
  V. Asgeirsson          : NEB                                           
  Christoph Bannwarth    : sTDA-DFT, sTD-DFT, PBEh-3c, B97-3c, D3        
  Sebastian Ehlert       : rSCAN, r2SCAN, r2SCAN-3c, D4, dhf basis sets  
  Marvin Friede          : D4 for Fr, Ra, Ac-Lr                          
  Lars Goerigk           : TD-DFT with DH, B97 family of functionals     
  Stefan Grimme          : VdW corrections, initial TS optimization, DFT functionals, gCP, sTDA/sTD-DF 
  Waldemar Hujo          : DFT-NL                                        
  H. Jonsson             : NEB                                           
  Holger Kruse           : gCP                                           
  Marcel Mueller         : wB97X-3c, vDZP basis set                      
  Hagen Neugebauer       : wr2SCAN                                       
  Tobias Risthaus        : range-separated hybrid DFT                    
  Lukas Wittmann         : regularized MP2, r2SCAN double-hybrids, wr2SCAN        
                                                                         
We gratefully acknowledge several colleagues who have allowed us to      
interface, adapt or use parts of their codes:                            
  Ed Valeev, F. Pavosevic, A. Kumar             : LibInt (2-el integral package), F12 methods 
  Garnet Chan, S. Sharma, J. Yang, R. Olivares  : DMRG                   
  Ulf Ekstrom                                   : XCFun DFT Library      
  Mihaly Kallay                                 : mrcc  (arbitrary order and MRCC methods)
  Frank Weinhold                                : gennbo (NPA and NBO analysis)           
  Simon Mueller                                 : openCOSMO-RS                            
  Christopher J. Cramer and Donald G. Truhlar   : smd solvation model                     
  S Lehtola, MJT Oliveira, MAL Marques          : LibXC Library                           
  Liviu Ungur et al                             : ANISO software                          


 Your calculation uses the libint2 library for the computation of 2-el integrals
 For citations please refer to: http://libint.valeyev.net

 Your ORCA version has been built with support for libXC version: 6.2.2
 For citations please refer to: https://libxc.gitlab.io

 This ORCA versions uses:
   CBLAS   interface :  Fast vector & matrix operations
   LAPACKE interface :  Fast linear algebra routines
   SCALAPACK package :  Parallel linear algebra routines
   Shared memory     :  Shared parallel matrices
   BLAS/LAPACK       :  OpenBLAS 0.3.27  USE64BITINT DYNAMIC_ARCH NO_AFFINITY Zen SINGLE_THREADED
        Core in use  :  Zen
   Copyright (c) 2011-2014, The OpenBLAS Project


Your calculation utilizes the geometrical counterpoise correction gCP
Please cite in your paper:
H.Kruse, S. Grimme J.Chem.Phys., 136, (2012), 154101 
   

Your calculation utilizes the DFT-NL dispersion correction.
Cite in your paper:
Vydrov, O. A.; Van Voorhis, T. J. Chem. Phys. 2010, 133, 244103
Hujo, W.; Grimme, S. J. Chem. Theory Comput. 2011, 7, 3866 
   

================================================================================

----- Orbital basis set information -----
Your calculation utilizes the basis: def2-TZVP
   F. Weigend and R. Ahlrichs, Phys. Chem. Chem. Phys. 7, 3297 (2005).

----- AuxJ basis set information -----
Your calculation utilizes the auxiliary basis: def2/J
   F. Weigend, Phys. Chem. Chem. Phys. 8, 1057 (2006).

================================================================================
                                        WARNINGS
                       Please study these warnings very carefully!
================================================================================

WARNING: Old DensityContainer found on disk!
         Will remove this file - 
         If you want to keep old densities, please start your calculation with a different basename. 


================================================================================
                                       INPUT FILE
================================================================================
NAME = sp.inp
|  1> ! wb97x-v def2-tzvp def2/J RIJCOSX DEFGRID2 scfconv7 GCP(DFT/TZ) printgap
|  2> %output
|  3>     printlevel normal
|  4> end
|  5> * xyz 0 1
|  6> C -1.7748485403009573 0.6851120427060067 -2.2287686428527346e-05
|  7> C -0.48012950711573255 -0.10910064190597495 -4.634363744046909e-05
|  8> O -0.45340723250078757 -1.3308037803757995 -8.768223906512199e-06
|  9> N 0.6504078269637802 0.660941142220163 -7.153495240335384e-05
| 10> C 1.9883488096960018 0.09577420382867484 -2.3232935354250505e-05
| 11> H -1.8415833499711771 1.3243399094412318 0.8864811011901494
| 12> H -1.840720390046 1.326164555607313 -0.885267271319541
| 13> H -2.610655157753163 -0.013126832934259279 -0.001101128031812479
| 14> H 0.5478019703379244 1.6621760806894221 -0.00010413398196118209
| 15> H 1.88546671104511 -0.9910054888106073 -0.0007304508001737972
| 16> H 2.549001057082854 0.39880278198971125 0.8919110055492925
| 17> H 2.549467319513394 0.3999602003568252 -0.8912612867336823
| 18> *
| 19> 
| 20>                          ****END OF INPUT****
================================================================================

                       ****************************
                       * Single Point Calculation *
                       ****************************

---------------------------------
CARTESIAN COORDINATES (ANGSTROEM)
---------------------------------
  C     -1.774849    0.685112   -0.000022
  C     -0.480130   -0.109101   -0.000046
  O     -0.453407   -1.330804   -0.000009
  N      0.650408    0.660941   -0.000072
  C      1.988349    0.095774   -0.000023
  H     -1.841583    1.324340    0.886481
  H     -1.840720    1.326165   -0.885267
  H     -2.610655   -0.013127   -0.001101
  H      0.547802    1.662176   -0.000104
  H      1.885467   -0.991005   -0.000730
  H      2.549001    0.398803    0.891911
  H      2.549467    0.399960   -0.891261

----------------------------
CARTESIAN COORDINATES (A.U.)
----------------------------
  NO LB      ZA    FRAG     MASS         X           Y           Z
   0 C     6.0000    0    12.011   -3.353978    1.294674   -0.000042
   1 C     6.0000    0    12.011   -0.907313   -0.206170   -0.000088
   2 O     8.0000    0    15.999   -0.856815   -2.514855   -0.000017
   3 N     7.0000    0    14.007    1.229093    1.248998   -0.000135
   4 C     6.0000    0    12.011    3.757435    0.180987   -0.000044
   5 H     1.0000    0     1.008   -3.480088    2.502640    1.675207
   6 H     1.0000    0     1.008   -3.478457    2.506088   -1.672913
   7 H     1.0000    0     1.008   -4.933423   -0.024806   -0.002081
   8 H     1.0000    0     1.008    1.035196    3.141058   -0.000197
   9 H     1.0000    0     1.008    3.563016   -1.872729   -0.001380
  10 H     1.0000    0     1.008    4.816914    0.753628    1.685468
  11 H     1.0000    0     1.008    4.817795    0.755815   -1.684240

--------------------------------
INTERNAL COORDINATES (ANGSTROEM)
--------------------------------
 C      0   0   0     0.000000000000     0.00000000     0.00000000
 C      1   0   0     1.518904593406     0.00000000     0.00000000
 O      2   1   0     1.221995351840   122.77901160     0.00000000
 N      2   1   3     1.367873902698   114.21410432   180.00193092
 C      4   2   1     1.452411699161   122.84013996   179.99653060
 H      1   2   3     1.094967606335   110.92942132   119.90833001
 H      1   2   3     1.094963974719   110.94016285   239.95405183
 H      1   2   3     1.089087412988   108.59838141   359.93713084
 H      4   2   1     1.006478695695   118.40870769     0.00000000
 H      5   4   2     1.091638826129   107.49204268     0.04200496
 H      5   4   2     1.096222581168   111.32103353   240.85976095
 H      5   4   2     1.096215476575   111.31668067   119.22464541

---------------------------
INTERNAL COORDINATES (A.U.)
---------------------------
 C      0   0   0     0.000000000000     0.00000000     0.00000000
 C      1   0   0     2.870313705092     0.00000000     0.00000000
 O      2   1   0     2.309236551903   122.77901160     0.00000000
 N      2   1   3     2.584907061837   114.21410432   180.00193092
 C      4   2   1     2.744660345117   122.84013996   179.99653060
 H      1   2   3     2.069188901488   110.92942132   119.90833001
 H      1   2   3     2.069182038730   110.94016285   239.95405183
 H      1   2   3     2.058076946448   108.59838141   359.93713084
 H      4   2   1     1.901969094490   118.40870769     0.00000000
 H      5   4   2     2.062898418540   107.49204268     0.04200496
 H      5   4   2     2.071560460228   111.32103353   240.85976095
 H      5   4   2     2.071547034492   111.31668067   119.22464541

---------------------
BASIS SET INFORMATION
---------------------
There are 4 groups of distinct atoms

 Group   1 Type C   : 11s6p2d1f contracted to 5s3p2d1f pattern {62111/411/11/1}
 Group   2 Type O   : 11s6p2d1f contracted to 5s3p2d1f pattern {62111/411/11/1}
 Group   3 Type N   : 11s6p2d1f contracted to 5s3p2d1f pattern {62111/411/11/1}
 Group   4 Type H   : 5s1p contracted to 3s1p pattern {311/1}

Atom   0C    basis set group =>   1
Atom   1C    basis set group =>   1
Atom   2O    basis set group =>   2
Atom   3N    basis set group =>   3
Atom   4C    basis set group =>   1
Atom   5H    basis set group =>   4
Atom   6H    basis set group =>   4
Atom   7H    basis set group =>   4
Atom   8H    basis set group =>   4
Atom   9H    basis set group =>   4
Atom  10H    basis set group =>   4
Atom  11H    basis set group =>   4
---------------------------------
AUXILIARY/J BASIS SET INFORMATION
---------------------------------
There are 4 groups of distinct atoms

 Group   1 Type C   : 12s5p4d2f1g contracted to 6s4p3d1f1g pattern {711111/2111/211/2/1}
 Group   2 Type O   : 12s5p4d2f1g contracted to 6s4p3d1f1g pattern {711111/2111/211/2/1}
 Group   3 Type N   : 12s5p4d2f1g contracted to 6s4p3d1f1g pattern {711111/2111/211/2/1}
 Group   4 Type H   : 5s2p1d contracted to 3s1p1d pattern {311/2/1}

Atom   0C    basis set group =>   1
Atom   1C    basis set group =>   1
Atom   2O    basis set group =>   2
Atom   3N    basis set group =>   3
Atom   4C    basis set group =>   1
Atom   5H    basis set group =>   4
Atom   6H    basis set group =>   4
Atom   7H    basis set group =>   4
Atom   8H    basis set group =>   4
Atom   9H    basis set group =>   4
Atom  10H    basis set group =>   4
Atom  11H    basis set group =>   4

Checking for AutoStart:
The File: sp.gbw exists
Trying to determine its content:
     ... Fine, the file contains calculation information
     ... Fine, the calculation information was read
     ... Fine, the file contains a basis set
     ... Fine, the basis set was read
     ... Fine, the file contains a geometry
     ... Fine, the geometry was read
     ... Fine, the file contains a set of orbitals
     ... Fine, the orbitals can be read
     => possible old guess file was deleted
     => GBW file was renamed to GES file
     => GES file is set as startup file
     => Guess is set to MORead
     ... now leaving AutoStart

------------------------------------------------------------------------------
                             ORCA STARTUP CALCULATIONS
                           -- RI-GTO INTEGRALS CHOSEN --
------------------------------------------------------------------------------
------------------------------------------------------------------------------
                   ___                                                        
                  /   \      - P O W E R E D   B Y -                         
                 /     \                                                     
                 |  |  |   _    _      __       _____    __    __             
                 |  |  |  | |  | |    /  \     |  _  \  |  |  /  |          
                  \  \/   | |  | |   /    \    | | | |  |  | /  /          
                 / \  \   | |__| |  /  /\  \   | |_| |  |  |/  /          
                |  |  |   |  __  | /  /__\  \  |    /   |      \           
                |  |  |   | |  | | |   __   |  |    \   |  |\   \          
                \     /   | |  | | |  |  |  |  | |\  \  |  | \   \       
                 \___/    |_|  |_| |__|  |__|  |_| \__\ |__|  \__/        
                                                                              
                      - O R C A' S   B I G   F R I E N D -                    
                                      &                                       
                       - I N T E G R A L  F E E D E R -                       
                                                                              
 v1 FN, 2020, v2 2021, v3 2022-2024                                           
------------------------------------------------------------------------------


----------------------
SHARK INTEGRAL PACKAGE
----------------------

Number of atoms                             ...     12
Number of basis functions                   ...    197
Number of shells                            ...     83
Maximum angular momentum                    ...      3
Integral batch strategy                     ... SHARK/LIBINT Hybrid
RI-J (if used) integral strategy            ... SPLIT-RIJ (Revised 2003 algorithm where possible)
Printlevel                                  ...      1
Contraction scheme used                     ... SEGMENTED contraction
Prescreening option                         ... SCHWARTZ
   Thresh                                   ... 3.000e-11
   Tcut                                     ... 1.000e-12
   Tpresel                                  ... 1.000e-12 
Coulomb Range Separation                    ... NOT USED
Exchange Range Separation                   ... Long Range
   Mu parameter                             ... 3.000e-01
   Scaling (regular/separated)              ... 1.670e-01 8.330e-01
Multipole approximations                    ... NOT USED
Finite Nucleus Model                        ... NOT USED
CABS basis                                  ... NOT available
Auxiliary Coulomb fitting basis             ... AVAILABLE
   # of basis functions in Aux-J            ...    322
   # of shells in Aux-J                     ...    110
   Maximum angular momentum in Aux-J        ...      4
Auxiliary J/K fitting basis                 ... NOT available
Auxiliary Correlation fitting basis         ... NOT available
Auxiliary 'external' fitting basis          ... NOT available

Checking pre-screening integrals            ... done (  0.0 sec) Dimension = 83
Check shell pair data                       ... done (  0.0 sec)
Shell pair information
Shell pair cut-off parameter TPreSel        ...   1.0e-12
Total number of shell pairs                 ...      3486
Shell pairs after pre-screening             ...      3343
Total number of primitive shell pairs       ...     10284
Primitive shell pairs kept                  ...      7859
          la=0 lb=0:   1010 shell pairs
          la=1 lb=0:    966 shell pairs
          la=1 lb=1:    249 shell pairs
          la=2 lb=0:    443 shell pairs
          la=2 lb=1:    219 shell pairs
          la=2 lb=2:     55 shell pairs
          la=3 lb=0:    226 shell pairs
          la=3 lb=1:    110 shell pairs
          la=3 lb=2:     50 shell pairs
          la=3 lb=3:     15 shell pairs

Calculating one electron integrals          ... done (  0.0 sec)
Calculating RI/J V-Matrix + Cholesky decomp.... done (  0.0 sec)
Calculating Nuclear repulsion               ... done (  0.0 sec) ENN=    179.747605535221 Eh

Diagonalization of the overlap matrix:
Smallest eigenvalue                        ... 3.756e-04
Time for diagonalization                   ...    0.003 sec
Threshold for overlap eigenvalues          ... 1.000e-07
Number of eigenvalues below threshold      ... 0
Time for construction of square roots      ...    0.001 sec
Total time needed                          ...    0.004 sec

-------------------
DFT GRID GENERATION
-------------------

General Integration Accuracy     IntAcc      ... 4.388
Radial Grid Type                 RadialGrid  ... OptM3 with GC (2021)
Angular Grid (max. ang.)         AngularGrid ... 4 (Lebedev-302)
Angular grid pruning method      GridPruning ... 4 (adaptive)
Weight generation scheme         WeightScheme... mBecke (2022)
Basis function cutoff            BFCut       ... 1.0000e-11
Integration weight cutoff        WCut        ... 1.0000e-14
Partially contracted basis set               ... off
Rotationally invariant grid construction     ... off
Angular grids for H and He will be reduced by one unit

Total number of grid points                  ...    52950
Total number of batches                      ...      833
Average number of points per batch           ...       63
Average number of grid points per atom       ...     4412

--------------------
COSX GRID GENERATION
--------------------

GRIDX 1
-------
General Integration Accuracy     IntAcc      ... 3.816
Radial Grid Type                 RadialGrid  ... OptM3 with GC (2021)
Angular Grid (max. ang.)         AngularGrid ... 1 (Lebedev-50)
Angular grid pruning method      GridPruning ... 4 (adaptive)
Weight generation scheme         WeightScheme... mBecke (2022)
Basis function cutoff            BFCut       ... 1.0000e-11
Integration weight cutoff        WCut        ... 1.0000e-14
Partially contracted basis set               ... on
Rotationally invariant grid construction     ... off
Angular grids for H and He will be reduced by one unit

Total number of grid points                  ...     6797
Total number of batches                      ...       60
Average number of points per batch           ...      113
Average number of grid points per atom       ...      566
UseSFitting                                  ... on

GRIDX 2
-------
General Integration Accuracy     IntAcc      ... 4.020
Radial Grid Type                 RadialGrid  ... OptM3 with GC (2021)
Angular Grid (max. ang.)         AngularGrid ... 2 (Lebedev-110)
Angular grid pruning method      GridPruning ... 4 (adaptive)
Weight generation scheme         WeightScheme... mBecke (2022)
Basis function cutoff            BFCut       ... 1.0000e-11
Integration weight cutoff        WCut        ... 1.0000e-14
Partially contracted basis set               ... on
Rotationally invariant grid construction     ... off
Angular grids for H and He will be reduced by one unit

Total number of grid points                  ...    14561
Total number of batches                      ...      119
Average number of points per batch           ...      122
Average number of grid points per atom       ...     1213
UseSFitting                                  ... on

GRIDX 3
-------
General Integration Accuracy     IntAcc      ... 4.338
Radial Grid Type                 RadialGrid  ... OptM3 with GC (2021)
Angular Grid (max. ang.)         AngularGrid ... 3 (Lebedev-194)
Angular grid pruning method      GridPruning ... 4 (adaptive)
Weight generation scheme         WeightScheme... mBecke (2022)
Basis function cutoff            BFCut       ... 1.0000e-11
Integration weight cutoff        WCut        ... 1.0000e-14
Partially contracted basis set               ... on
Rotationally invariant grid construction     ... off
Angular grids for H and He will be reduced by one unit

Total number of grid points                  ...    32016
Total number of batches                      ...      257
Average number of points per batch           ...      124
Average number of grid points per atom       ...     2668
UseSFitting                                  ... on
Initializing property integral containers    ... done (  0.0 sec)

SHARK setup successfully completed in   0.6 seconds

Maximum memory used throughout the entire STARTUP-calculation: 28.7 MB
-------------------------------------------------------------------------------
                                 ORCA GUESS
                   Start orbitals & Density for SCF / CASSCF
-------------------------------------------------------------------------------

------------
SCF SETTINGS
------------
Hamiltonian:
 Density Functional     Method          .... DFT(GTOs)
 Exchange Functional    Exchange        .... WB97X-V
 Correlation Functional Correlation     .... WB97X-V
 Gradients option       PostSCFGGA      .... off
 Hybrid DFT is turned on
   Fraction HF Exchange ScalHFX         ....  0.167000
   Scaling of DF-GGA-X  ScalDFX         ....  0.000000
   Scaling of DF-GGA-C  ScalDFC         ....  1.000000
   Scaling of DF-LDA-C  ScalLDAC        ....  1.000000
   Perturbative correction              ....  0.000000
 Long-range corrected/Screened/Range-Separated Hybrid DFT is turned on
   Amount of maximum screened exact exchange              ....  0.833000
   Range separation parameter mu (erf(mu*r12)/r12)        ....  0.300000
   NL short-range parameter             ....  6.000000
   NL long-range parameter              ....  0.010000
 RI-approximation to the Coulomb term is turned on
   Number of AuxJ basis functions       .... 322
   RIJ-COSX (HFX calculated with COS-X)).... on


General Settings:
 Integral files         IntName         .... sp
 Hartree-Fock type      HFTyp           .... RHF
 Total Charge           Charge          ....    0
 Multiplicity           Mult            ....    1
 Number of Electrons    NEL             ....   40
 Basis Dimension        Dim             ....  197
 Nuclear Repulsion      ENuc            ....    179.7476055352 Eh

Convergence Acceleration:
 AO-DIIS                CNVDIIS         .... on
   Start iteration      DIISMaxIt       ....    12
   Startup error        DIISStart       ....  0.200000
   # of expansion vecs  DIISMaxEq       ....     5
   Bias factor          DIISBfac        ....   1.050
   Max. coefficient     DIISMaxC        ....  10.000
 MO-DIIS                CNVKDIIS        .... off
 Trust-Rad. Augm. Hess. CNVTRAH         .... auto
   Auto Start mean grad. ratio tolernc. ....  1.125000
   Auto Start start iteration           ....     1
   Auto Start num. interpolation iter.  ....    10
   Max. Number of Micro iterations      ....    24
   Max. Number of Macro iterations      .... Maxiter - #DIIS iter
   Number of Davidson start vectors     ....     2
   Converg. threshold    (grad. norm)   ....   1.000e-04
   Grad. Scal. Fac. for Micro threshold ....   0.100
   Minimum threshold for Micro iter.    ....   1.000e-02
   NR start threshold (gradient norm)   ....   1.000e-04
   Initial trust radius                 ....   0.400
   Minimum AH scaling param. (alpha)    ....   1.000
   Maximum AH scaling param. (alpha)    .... 1000.000
   Quad. conv. algorithm                .... NR
   White noise on init. David. guess    .... on
   Maximum white noise                  ....   0.010
   Pseudo random numbers                .... off
   Inactive MOs                         .... canonical
   Orbital update algorithm             .... Taylor
   Preconditioner                       .... Diag
   Full preconditioner red. dimension   ....   250
 SOSCF                  CNVSOSCF        .... on
   Start iteration      SOSCFMaxIt      ....   150
   Startup grad/error   SOSCFStart      ....  0.003300
   Hessian update       SOSCFHessUp     .... L-BFGS
 Level Shifting         CNVShift        .... on
   Level shift para.    LevelShift      ....    0.2500
   Turn off err/grad.   ShiftErr        ....    0.0010
 Zerner damping         CNVZerner       .... off
 Static damping         CNVDamp         .... on
   Fraction old density DampFac         ....    0.7000
   Max. Damping (<1)    DampMax         ....    0.9800
   Min. Damping (>=0)   DampMin         ....    0.0000
   Turn off err/grad.   DampErr         ....    0.1000

SCF Procedure:
 Maximum # iterations   MaxIter         ....   125
 SCF integral mode      SCFMode         .... Direct
   Integral package                     .... SHARK and LIBINT hybrid scheme
 Reset frequency        DirectResetFreq ....    20
 Integral Threshold     Thresh          ....  3.000e-11 Eh
 Primitive CutOff       TCut            ....  1.000e-12 Eh

Convergence Tolerance:
 Convergence Check Mode ConvCheckMode   .... Total+1el-Energy
 Convergence forced     ConvForced      .... 0
 Energy Change          TolE            ....  1.000e-07 Eh
 1-El. energy change                    ....  1.000e-04 Eh
 Orbital Gradient       TolG            ....  1.000e-04
 Orbital Rotation angle TolX            ....  1.000e-04
 DIIS Error             TolErr          ....  1.000e-07

---------------------
INITIAL GUESS: MOREAD
---------------------
Guess MOs are being read from file: sp.ges
Input Geometry matches current geometry (good)
Atom 0: N(Shells)= 11 and 9 - projection required
Input basis set needs projection
NBasis(read)= 140
NBasis(calc)= 197
Basis set overlap was calculated
Using GuessMode=FMatrix for the initial guess
C*T matrix was formed
Effective Fockian was calculated
Effective Fockian was diagonalized
Initial density was built
                      ------------------
                      INITIAL GUESS DONE (   0.0 sec)
                      ------------------
             **** ENERGY FILE WAS UPDATED (sp.en.tmp) ****
Finished Guess after   0.0 sec
Maximum memory used throughout the entire GUESS-calculation: 16.1 MB

-------------------------------------------------------------------------------------------
                                      ORCA LEAN-SCF
                              memory conserving SCF solver
-------------------------------------------------------------------------------------------

----------------------------------------D-I-I-S--------------------------------------------
Iteration    Energy (Eh)           Delta-E    RMSDP     MaxDP     DIISErr   Damp  Time(sec)
-------------------------------------------------------------------------------------------
               ***  Starting incremental Fock matrix formation  ***
    1    -248.6897192007138528     0.00e+00  9.64e-04  2.92e-02  6.04e-02  0.700   4.0
    2    -248.6932706450115802    -3.55e-03  8.67e-04  2.85e-02  4.42e-02  0.700   2.0
                               ***Turning on AO-DIIS***
    3    -248.6959576137822978    -2.69e-03  7.41e-04  2.52e-02  3.18e-02  0.700   2.0
    4    -248.6979415468813386    -1.98e-03  1.89e-03  6.51e-02  2.24e-02  0.000   1.9
                              *** Initializing SOSCF ***
---------------------------------------S-O-S-C-F--------------------------------------
Iteration    Energy (Eh)           Delta-E    RMSDP     MaxDP     MaxGrad    Time(sec)
--------------------------------------------------------------------------------------
    5    -248.7030223833750142    -5.08e-03  1.06e-04  3.64e-03  1.74e-03     2.0
               *** Restarting incremental Fock matrix formation ***
    6    -248.7030484268258874    -2.60e-05  5.26e-05  1.52e-03  6.12e-04     3.9
    7    -248.7030549481703474    -6.52e-06  2.77e-05  6.68e-04  2.13e-04     3.1
    8    -248.7030560209185523    -1.07e-06  5.24e-06  1.90e-04  1.00e-04     3.1
    9    -248.7030561434428364    -1.23e-07  3.82e-06  1.23e-04  6.88e-05     2.8
   10    -248.7030561901983106    -4.68e-08  8.21e-07  2.78e-05  1.73e-05     2.7
                 **** Energy Check signals convergence ****

               *****************************************************
               *                     SUCCESS                       *
               *           SCF CONVERGED AFTER  10 CYCLES          *
               *****************************************************


------------------
NL GRID GENERATION
------------------

General Integration Accuracy     IntAcc      ... 4.004
Radial Grid Type                 RadialGrid  ... OptM3 with GC (2021)
Angular Grid (max. ang.)         AngularGrid ... 2 (Lebedev-110)
Angular grid pruning method      GridPruning ... 4 (adaptive)
Weight generation scheme         WeightScheme... mBecke (2022)
Basis function cutoff            BFCut       ... 1.0000e-10
Integration weight cutoff        WCut        ... 1.0000e-14
Partially contracted basis set               ... off
Rotationally invariant grid construction     ... off
Angular grids for H and He will be reduced by one unit

Total number of grid points                  ...    16253
Total number of batches                      ...      260
Average number of points per batch           ...       62
Average number of grid points per atom       ...     1354
Final grid set up in    0.1 sec

-------------------------------------------------------------------------------
                    post-SCF DFT-NL dispersion correction                      
-------------------------------------------------------------------------------

SCF Energy:     -248.703056190 
NL    Energy:      0.157052976 
SC+NL Energy:   -248.546003214 
NL done in  :              0.8 sec
-------------------------------------------------------------------------------
Recomputing exchange energy using gridx3       ... done (    7.311 sec)
Old exchange energy                            :    -10.722461402 Eh
New exchange energy                            :    -10.722462172 Eh
Exchange energy change after final integration :     -0.000000770 Eh
Total energy after final integration           :   -248.546003985 Eh
             **** ENERGY FILE WAS UPDATED (sp.en.tmp) ****

----------------
TOTAL SCF ENERGY
----------------

Total Energy       :       -248.54600398496308 Eh           -6763.28061 eV

Components:
Nuclear Repulsion  :        179.74760553522083 Eh            4891.18101 eV
Electronic Energy  :       -428.45066172541914 Eh          -11658.73522 eV
One Electron Energy:       -692.51874686016072 Eh          -18844.39313 eV
Two Electron Energy:        264.06808513474158 Eh            7185.65791 eV

Virial components:
Potential Energy   :       -496.10055909887109 Eh          -13499.58252 eV
Kinetic Energy     :        247.55455511390801 Eh            6736.30191 eV
Virial Ratio       :          2.00400497122987

DFT components:
N(Alpha)           :       20.000005415410 electrons
N(Beta)            :       20.000005415410 electrons
N(Total)           :       40.000010830819 electrons
E(X)               :      -22.154657384045 Eh       
E(C)               :       -1.648708753299 Eh       
NL Energy, E(C,NL) :        0.157052975728 Eh       
E(XC)              :      -23.646313161615 Eh       

---------------
SCF CONVERGENCE
---------------

  Last Energy change         ...    4.6755e-08  Tolerance :   1.0000e-07
  Last MAX-Density change    ...    2.7790e-05  Tolerance :   1.0000e-05
  Last RMS-Density change    ...    8.2089e-07  Tolerance :   1.0000e-06
  Last DIIS Error            ...    1.7351e-03  Tolerance :   1.0000e-07
  Last Orbital Gradient      ...    1.7302e-05  Tolerance :   1.0000e-04
  Last Orbital Rotation      ...    2.4003e-05  Tolerance :   1.0000e-04


----------------
ORBITAL ENERGIES
----------------

  NO   OCC          E(Eh)            E(eV) 
   0   2.0000     -19.171523      -521.6837 
   1   2.0000     -14.435032      -392.7972 
   2   2.0000     -10.372954      -282.2624 
   3   2.0000     -10.301676      -280.3229 
   4   2.0000     -10.276923      -279.6493 
   5   2.0000      -1.164416       -31.6854 
   6   2.0000      -1.052816       -28.6486 
   7   2.0000      -0.887052       -24.1379 
   8   2.0000      -0.816605       -22.2210 
   9   2.0000      -0.703765       -19.1504 
  10   2.0000      -0.621976       -16.9248 
  11   2.0000      -0.581595       -15.8260 
  12   2.0000      -0.579395       -15.7661 
  13   2.0000      -0.538686       -14.6584 
  14   2.0000      -0.517872       -14.0920 
  15   2.0000      -0.505969       -13.7681 
  16   2.0000      -0.494624       -13.4594 
  17   2.0000      -0.466958       -12.7066 
  18   2.0000      -0.360339        -9.8053 
  19   2.0000      -0.358611        -9.7583 
  20   0.0000       0.097083         2.6418 
  21   0.0000       0.113925         3.1001 
  22   0.0000       0.137438         3.7399 
  23   0.0000       0.152325         4.1450 
  24   0.0000       0.185173         5.0388 
  25   0.0000       0.194404         5.2900 
  26   0.0000       0.205822         5.6007 
  27   0.0000       0.209140         5.6910 
  28   0.0000       0.209403         5.6981 
  29   0.0000       0.227189         6.1821 
  30   0.0000       0.280866         7.6428 
*Only the first 10 virtual orbitals were printed.

                    ********************************
                    * MULLIKEN POPULATION ANALYSIS *
                    ********************************

-----------------------
MULLIKEN ATOMIC CHARGES
-----------------------
   0 C :   -0.371114
   1 C :    0.295959
   2 O :   -0.387399
   3 N :   -0.302523
   4 C :   -0.239898
   5 H :    0.125108
   6 H :    0.125054
   7 H :    0.140907
   8 H :    0.218944
   9 H :    0.163437
  10 H :    0.115762
  11 H :    0.115763
Sum of atomic charges:   -0.0000000

--------------------------------
MULLIKEN REDUCED ORBITAL CHARGES
--------------------------------
  0 C s       :     3.231293  s :     3.231293
      pz      :     1.048681  p :     3.090980
      px      :     0.984865
      py      :     1.057434
      dz2     :     0.005753  d :     0.045750
      dxz     :     0.005712
      dyz     :     0.012898
      dx2y2   :     0.009517
      dxy     :     0.011870
      f0      :     0.000207  f :     0.003091
      f+1     :     0.000066
      f-1     :     0.001049
      f+2     :     0.000000
      f-2     :     0.000221
      f+3     :     0.000740
      f-3     :     0.000808

  1 C s       :     3.076643  s :     3.076643
      pz      :     0.738350  p :     2.351956
      px      :     0.846356
      py      :     0.767251
      dz2     :     0.006708  d :     0.253994
      dxz     :     0.026117
      dyz     :     0.068362
      dx2y2   :     0.045317
      dxy     :     0.107489
      f0      :     0.002705  f :     0.021447
      f+1     :     0.000998
      f-1     :     0.001408
      f+2     :     0.002773
      f-2     :     0.002177
      f+3     :     0.008247
      f-3     :     0.003138

  2 O s       :     3.802952  s :     3.802952
      pz      :     1.434821  p :     4.550979
      px      :     1.787261
      py      :     1.328897
      dz2     :     0.002840  d :     0.031601
      dxz     :     0.000038
      dyz     :     0.011215
      dx2y2   :     0.009511
      dxy     :     0.007997
      f0      :     0.000190  f :     0.001868
      f+1     :     0.000022
      f-1     :     0.000189
      f+2     :     0.000447
      f-2     :     0.000011
      f+3     :     0.000543
      f-3     :     0.000466

  3 N s       :     3.412543  s :     3.412543
      pz      :     1.678501  p :     3.829642
      px      :     1.075748
      py      :     1.075393
      dz2     :     0.004284  d :     0.056164
      dxz     :     0.012762
      dyz     :     0.001921
      dx2y2   :     0.022136
      dxy     :     0.015061
      f0      :     0.000713  f :     0.004175
      f+1     :     0.000712
      f-1     :     0.000655
      f+2     :     0.000146
      f-2     :     0.000304
      f+3     :     0.000879
      f-3     :     0.000765

  4 C s       :     3.229802  s :     3.229802
      pz      :     1.044028  p :     2.932677
      px      :     0.813616
      py      :     1.075034
      dz2     :     0.006770  d :     0.071683
      dxz     :     0.031173
      dyz     :     0.004615
      dx2y2   :     0.018512
      dxy     :     0.010614
      f0      :     0.000816  f :     0.005735
      f+1     :     0.001059
      f-1     :     0.000368
      f+2     :     0.000535
      f-2     :     0.000713
      f+3     :     0.001081
      f-3     :     0.001163

  5 H s       :     0.853881  s :     0.853881
      pz      :     0.009662  p :     0.021011
      px      :     0.004240
      py      :     0.007108

  6 H s       :     0.853938  s :     0.853938
      pz      :     0.009647  p :     0.021009
      px      :     0.004238
      py      :     0.007124

  7 H s       :     0.837525  s :     0.837525
      pz      :     0.004239  p :     0.021568
      px      :     0.009563
      py      :     0.007765

  8 H s       :     0.742397  s :     0.742397
      pz      :     0.012807  p :     0.038659
      px      :     0.005809
      py      :     0.020043

  9 H s       :     0.814288  s :     0.814288
      pz      :     0.004127  p :     0.022275
      px      :     0.003967
      py      :     0.014181

 10 H s       :     0.863851  s :     0.863851
      pz      :     0.009874  p :     0.020387
      px      :     0.005917
      py      :     0.004596

 11 H s       :     0.863850  s :     0.863850
      pz      :     0.009865  p :     0.020386
      px      :     0.005921
      py      :     0.004600


------------------------
MULLIKEN OVERLAP CHARGES
------------------------
B(  0-C ,  1-C ) :   0.6299 B(  0-C ,  2-O ) :  -0.1921 B(  0-C ,  3-N ) :  -0.3119 
B(  0-C ,  5-H ) :   0.7482 B(  0-C ,  6-H ) :   0.7483 B(  0-C ,  7-H ) :   0.7930 
B(  1-C ,  2-O ) :   1.4641 B(  1-C ,  3-N ) :   0.7149 B(  1-C ,  4-C ) :  -0.0718 
B(  1-C ,  7-H ) :  -0.0683 B(  1-C ,  8-H ) :  -0.0675 B(  2-O ,  3-N ) :  -0.2663 
B(  3-N ,  4-C ) :   0.4932 B(  3-N ,  8-H ) :   0.7415 B(  3-N ,  9-H ) :  -0.0809 
B(  3-N , 10-H ) :  -0.0842 B(  3-N , 11-H ) :  -0.0841 B(  4-C ,  8-H ) :  -0.0727 
B(  4-C ,  9-H ) :   0.8237 B(  4-C , 10-H ) :   0.8281 B(  4-C , 11-H ) :   0.8280 
B(  5-H ,  6-H ) :  -0.0565 B( 10-H , 11-H ) :  -0.0734 


                     *******************************
                     * LOEWDIN POPULATION ANALYSIS *
                     *******************************

----------------------
LOEWDIN ATOMIC CHARGES
----------------------
   0 C :   -0.264692
   1 C :   -0.471197
   2 O :    0.050085
   3 N :    0.077331
   4 C :   -0.305456
   5 H :    0.127265
   6 H :    0.127227
   7 H :    0.133153
   8 H :    0.176353
   9 H :    0.131070
  10 H :    0.109429
  11 H :    0.109433

-------------------------------
LOEWDIN REDUCED ORBITAL CHARGES
-------------------------------
  0 C s       :     2.832214  s :     2.832214
      pz      :     1.068868  p :     3.186229
      px      :     1.045624
      py      :     1.071738
      dz2     :     0.034170  d :     0.223240
      dxz     :     0.021223
      dyz     :     0.058576
      dx2y2   :     0.044200
      dxy     :     0.065070
      f0      :     0.001521  f :     0.023010
      f+1     :     0.002971
      f-1     :     0.003907
      f+2     :     0.003327
      f-2     :     0.001576
      f+3     :     0.004880
      f-3     :     0.004828

  1 C s       :     2.753082  s :     2.753082
      pz      :     0.726522  p :     2.685672
      px      :     0.966345
      py      :     0.992804
      dz2     :     0.052974  d :     0.902020
      dxz     :     0.095492
      dyz     :     0.186498
      dx2y2   :     0.218822
      dxy     :     0.348235
      f0      :     0.008323  f :     0.130424
      f+1     :     0.005375
      f-1     :     0.010467
      f+2     :     0.019747
      f-2     :     0.013507
      f+3     :     0.052916
      f-3     :     0.020089

  2 O s       :     3.402068  s :     3.402068
      pz      :     1.351840  p :     4.475801
      px      :     1.643381
      py      :     1.480579
      dz2     :     0.007880  d :     0.066255
      dxz     :     0.000041
      dyz     :     0.014000
      dx2y2   :     0.025126
      dxy     :     0.019208
      f0      :     0.000416  f :     0.005791
      f+1     :     0.000113
      f-1     :     0.000920
      f+2     :     0.000770
      f-2     :     0.000025
      f+3     :     0.001781
      f-3     :     0.001765

  3 N s       :     2.931981  s :     2.931981
      pz      :     1.465625  p :     3.759704
      px      :     1.167013
      py      :     1.127066
      dz2     :     0.014213  d :     0.216664
      dxz     :     0.036777
      dyz     :     0.009373
      dx2y2   :     0.092590
      dxy     :     0.063713
      f0      :     0.001390  f :     0.014320
      f+1     :     0.001865
      f-1     :     0.001651
      f+2     :     0.000736
      f-2     :     0.001749
      f+3     :     0.004582
      f-3     :     0.002346

  4 C s       :     2.835525  s :     2.835525
      pz      :     1.087948  p :     3.104522
      px      :     0.926746
      py      :     1.089829
      dz2     :     0.039792  d :     0.325455
      dxz     :     0.131663
      dyz     :     0.016200
      dx2y2   :     0.081711
      dxy     :     0.056088
      f0      :     0.004917  f :     0.039953
      f+1     :     0.005195
      f-1     :     0.003347
      f+2     :     0.003211
      f-2     :     0.007450
      f+3     :     0.007611
      f-3     :     0.008222

  5 H s       :     0.811434  s :     0.811434
      pz      :     0.027859  p :     0.061301
      px      :     0.012846
      py      :     0.020596

  6 H s       :     0.811474  s :     0.811474
      pz      :     0.027819  p :     0.061299
      px      :     0.012842
      py      :     0.020638

  7 H s       :     0.805337  s :     0.805337
      pz      :     0.012879  p :     0.061511
      px      :     0.025579
      py      :     0.023053

  8 H s       :     0.716350  s :     0.716350
      pz      :     0.036137  p :     0.107296
      px      :     0.016744
      py      :     0.054416

  9 H s       :     0.804354  s :     0.804354
      pz      :     0.012998  p :     0.064576
      px      :     0.011202
      py      :     0.040376

 10 H s       :     0.830474  s :     0.830474
      pz      :     0.028989  p :     0.060097
      px      :     0.016189
      py      :     0.014919

 11 H s       :     0.830469  s :     0.830469
      pz      :     0.028966  p :     0.060098
      px      :     0.016200
      py      :     0.014932


---------------------------------
LOEWDIN BOND ORDERS (THRESH 0.050000)
---------------------------------
B(  0-C ,  1-C ) :   1.2195 B(  0-C ,  2-O ) :   0.1604 B(  0-C ,  3-N ) :   0.1513 
B(  0-C ,  5-H ) :   0.8975 B(  0-C ,  6-H ) :   0.8975 B(  0-C ,  7-H ) :   0.8985 
B(  1-C ,  2-O ) :   2.5911 B(  1-C ,  3-N ) :   1.5843 B(  1-C ,  4-C ) :   0.1802 
B(  1-C ,  5-H ) :   0.0841 B(  1-C ,  6-H ) :   0.0840 B(  1-C ,  7-H ) :   0.0836 
B(  1-C ,  8-H ) :   0.0961 B(  2-O ,  3-N ) :   0.2011 B(  3-N ,  4-C ) :   1.3284 
B(  3-N ,  8-H ) :   0.8776 B(  3-N ,  9-H ) :   0.0602 B(  3-N , 10-H ) :   0.0595 
B(  3-N , 11-H ) :   0.0595 B(  4-C ,  8-H ) :   0.0743 B(  4-C ,  9-H ) :   0.9056 
B(  4-C , 10-H ) :   0.9298 B(  4-C , 11-H ) :   0.9298 

------------------------------------------
LOEWDIN REDUCED ORBITAL POPULATIONS PER MO
-------------------------------------------
THRESHOLD FOR PRINTING IS 0.1%%
                      0         1         2         3         4         5   
                 -19.17152 -14.43503 -10.37295 -10.30168 -10.27692  -1.16442
                   2.00000   2.00000   2.00000   2.00000   2.00000   2.00000
                  --------  --------  --------  --------  --------  --------
 0 C  s               0.0       0.0       0.0       0.0      99.4       1.5
 0 C  px              0.0       0.0       0.1       0.0       0.0       1.6
 0 C  py              0.0       0.0       0.0       0.0       0.0       1.1
 0 C  dz2             0.0       0.0       0.0       0.0       0.0       0.1
 0 C  dxy             0.0       0.0       0.1       0.0       0.0       0.4
 1 C  s               0.0       0.0      98.9       0.0       0.0      21.5
 1 C  px              0.0       0.1       0.0       0.0       0.1       0.6
 1 C  py              0.1       0.0       0.0       0.0       0.0       7.1
 1 C  dz2             0.0       0.0       0.0       0.0       0.0       1.6
 1 C  dx2y2           0.1       0.0       0.0       0.0       0.0       1.8
 1 C  dxy             0.0       0.1       0.0       0.0       0.1       0.1
 1 C  f-1             0.0       0.0       0.0       0.0       0.0       0.2
 1 C  f-3             0.1       0.0       0.0       0.0       0.0       0.8
 2 O  s              99.6       0.0       0.0       0.0       0.0      39.5
 2 O  py              0.0       0.0       0.2       0.0       0.0       5.6
 2 O  dz2             0.0       0.0       0.1       0.0       0.0       0.1
 2 O  dx2y2           0.0       0.0       0.2       0.0       0.0       0.4
 3 N  s               0.0      99.4       0.0       0.0       0.0       7.1
 3 N  px              0.0       0.0       0.1       0.1       0.0       0.9
 3 N  py              0.0       0.0       0.0       0.0       0.0       1.7
 3 N  dz2             0.0       0.0       0.0       0.0       0.0       0.2
 3 N  dxy             0.0       0.0       0.1       0.0       0.0       0.2
 4 C  s               0.0       0.0       0.0      99.5       0.0       1.1
 4 C  px              0.0       0.0       0.0       0.0       0.0       1.6
 4 C  dz2             0.0       0.0       0.0       0.0       0.0       0.1
 4 C  dx2y2           0.0       0.0       0.0       0.0       0.0       0.2
 5 H  s               0.0       0.0       0.0       0.0       0.1       0.2
 6 H  s               0.0       0.0       0.0       0.0       0.1       0.2
 7 H  s               0.0       0.0       0.0       0.0       0.1       0.3
 8 H  s               0.0       0.0       0.0       0.0       0.0       1.1
 8 H  py              0.0       0.1       0.0       0.0       0.0       0.1
 9 H  s               0.0       0.0       0.0       0.1       0.0       0.4
10 H  s               0.0       0.0       0.0       0.1       0.0       0.1
11 H  s               0.0       0.0       0.0       0.1       0.0       0.1

                      6         7         8         9        10        11   
                  -1.05282  -0.88705  -0.81661  -0.70377  -0.62198  -0.58160
                   2.00000   2.00000   2.00000   2.00000   2.00000   2.00000
                  --------  --------  --------  --------  --------  --------
 0 C  s               0.3      25.9      11.6       0.6       1.5       0.1
 0 C  px              0.6       0.7       1.1       1.8      14.1       0.2
 0 C  py              0.2       0.0       0.0       0.2       4.9      16.1
 0 C  dz2             0.0       0.0       0.0       0.0       0.4       0.3
 0 C  dx2y2           0.3       0.1       0.2       0.3       0.2       0.0
 0 C  dxy             0.0       0.1       0.0       0.1       0.6       0.1
 1 C  s               0.8       5.2       0.4       5.2       3.2       1.4
 1 C  px              5.1       6.7       6.6       4.1       7.6       5.4
 1 C  py             14.5       8.3       0.3       2.1       1.5       2.4
 1 C  dz2             0.1       0.1       0.0       0.2       0.1       0.1
 1 C  dx2y2           2.0       0.3       0.4       1.4       0.5       3.4
 1 C  dxy             1.4       0.6       1.5       0.2       0.1       0.1
 1 C  f-1             0.2       0.1       0.0       0.0       0.0       0.0
 1 C  f+3             0.0       0.0       0.1       0.0       0.0       0.1
 2 O  s              10.7       2.1       0.0       4.1       0.6       6.0
 2 O  px              0.2       0.4       0.4       1.4       3.8       4.4
 2 O  py              0.6       0.7       0.0       3.8       1.6      18.0
 2 O  dx2y2           0.0       0.0       0.0       0.1       0.0       0.2
 2 O  dxy             0.0       0.0       0.1       0.1       0.2       0.1
 3 N  s              33.9       0.1       2.5       1.3       1.1       0.2
 3 N  px              0.2      11.0      11.0       7.2       5.5      11.6
 3 N  py              0.0       0.3       0.9      33.6       9.5       1.2
 3 N  dz2             0.2       0.0       0.0       0.0       0.0       0.0
 3 N  dx2y2           0.1       0.0       0.5       0.7       0.1       0.2
 3 N  dxy             0.0       0.2       0.6       0.3       0.1       0.0
 4 C  s               8.0       8.8      21.6       0.8       1.4       0.3
 4 C  px              4.1       0.1       1.9       0.2      17.5       7.4
 4 C  py              1.0       0.0       0.2       6.7       0.2       4.7
 4 C  dz2             0.4       0.0       0.1       0.0       0.5       0.0
 4 C  dx2y2           0.6       0.0       0.2       0.1       0.3       0.2
 4 C  dxy             0.7       0.0       0.1       1.1       0.1       0.3
 4 C  f+3             0.0       0.0       0.0       0.1       0.1       0.0
 4 C  f-3             0.1       0.0       0.0       0.0       0.0       0.0
 5 H  s               0.1       6.5       3.5       0.4       2.9       2.8
 5 H  pz              0.0       0.4       0.2       0.0       0.2       0.2
 5 H  px              0.0       0.0       0.0       0.0       0.1       0.0
 5 H  py              0.0       0.2       0.1       0.0       0.0       0.0
 6 H  s               0.1       6.5       3.5       0.4       2.9       2.9
 6 H  pz              0.0       0.4       0.2       0.0       0.2       0.2
 6 H  px              0.0       0.0       0.0       0.0       0.1       0.0
 6 H  py              0.0       0.2       0.1       0.0       0.0       0.0
 7 H  s               0.0       5.6       4.4       0.8       2.7       2.5
 7 H  px              0.0       0.4       0.2       0.0       0.0       0.2
 7 H  py              0.0       0.2       0.2       0.0       0.3       0.0
 8 H  s               7.8       0.0       1.7      15.4       2.5       0.9
 8 H  px              0.0       0.1       0.1       0.2       0.1       0.2
 8 H  py              1.3       0.0       0.3       0.8       0.1       0.0
 9 H  s               1.0       2.1       6.4       3.0       0.1       3.1
 9 H  px              0.0       0.0       0.0       0.0       0.2       0.1
 9 H  py              0.1       0.2       0.7       0.2       0.0       0.0
10 H  s               1.2       2.1       7.3       0.1       4.5       0.8
10 H  pz              0.0       0.1       0.5       0.0       0.3       0.0
10 H  px              0.1       0.1       0.1       0.0       0.0       0.0
11 H  s               1.2       2.1       7.3       0.1       4.5       0.8
11 H  pz              0.0       0.1       0.5       0.0       0.3       0.0
11 H  px              0.1       0.1       0.1       0.0       0.0       0.0

                     12        13        14        15        16        17   
                  -0.57940  -0.53869  -0.51787  -0.50597  -0.49462  -0.46696
                   2.00000   2.00000   2.00000   2.00000   2.00000   2.00000
                  --------  --------  --------  --------  --------  --------
 0 C  pz             15.5      24.9       0.0       0.0       0.0      12.9
 0 C  px              0.0       0.0       0.0      25.3       3.1       0.0
 0 C  py              0.0       0.0      18.4       4.5       4.2       0.0
 0 C  dz2             0.0       0.0       0.4       0.2       0.1       0.0
 0 C  dxz             0.2       0.0       0.0       0.0       0.0       0.8
 0 C  dyz             0.1       0.7       0.0       0.0       0.0       2.0
 0 C  dx2y2           0.0       0.0       0.4       0.1       0.4       0.0
 0 C  dxy             0.0       0.0       0.2       1.2       0.3       0.0
 0 C  f+2             0.0       0.0       0.0       0.0       0.0       0.1
 1 C  s               0.0       0.0       0.6       0.3       0.1       0.0
 1 C  pz             17.5       3.1       0.0       0.0       0.0      15.7
 1 C  px              0.0       0.0       3.0       5.3       2.4       0.0
 1 C  py              0.0       0.0       6.6       3.1       3.3       0.0
 1 C  dz2             0.0       0.0       0.3       0.0       0.0       0.0
 1 C  dxz             0.0       1.2       0.0       0.0       0.0       1.2
 1 C  dyz             0.1       0.0       0.0       0.0       0.0       2.5
 1 C  dx2y2           0.0       0.0       0.5       0.1       0.2       0.0
 1 C  dxy             0.0       0.0       0.3       0.5       0.3       0.0
 1 C  f0              0.3       0.0       0.0       0.0       0.0       0.1
 1 C  f+2             0.0       0.0       0.0       0.0       0.0       0.4
 1 C  f-2             0.0       0.1       0.0       0.0       0.0       0.1
 1 C  f+3             0.0       0.0       0.0       0.8       0.0       0.0
 2 O  s               0.0       0.0       3.4       1.7       2.2       0.0
 2 O  pz              7.7       1.9       0.0       0.0       0.0      32.0
 2 O  px              0.0       0.0       1.9       2.7       0.1       0.0
 2 O  py              0.0       0.0      23.8       8.3      11.3       0.0
 2 O  dyz             0.3       0.0       0.0       0.0       0.0       0.4
 2 O  dx2y2           0.0       0.0       0.3       0.0       0.0       0.0
 3 N  s               0.0       0.0       0.1       0.0       0.1       0.0
 3 N  pz             19.5       2.5       0.0       0.0       0.0       5.1
 3 N  px              0.0       0.0       0.1       6.8       1.5       0.0
 3 N  py              0.0       0.0       0.1       3.4       4.1       0.0
 3 N  dxz             0.0       0.9       0.0       0.0       0.0       0.8
 3 N  dyz             0.2       0.0       0.0       0.0       0.0       0.1
 3 N  dx2y2           0.0       0.0       0.0       1.8       1.2       0.0
 3 N  dxy             0.0       0.0       0.6       0.1       0.8       0.0
 3 N  f+3             0.0       0.0       0.1       0.0       0.0       0.0
 4 C  s               0.0       0.0       0.0       0.1       0.0       0.0
 4 C  pz             18.4      27.2       0.0       0.0       0.0       5.4
 4 C  px              0.0       0.0       3.1       5.2       4.8       0.0
 4 C  py              0.0       0.0      12.3       4.1      24.3       0.0
 4 C  dz2             0.0       0.0       0.2       0.0       0.5       0.0
 4 C  dxz             0.0       0.5       0.0       0.0       0.0       1.2
 4 C  dyz             0.3       0.3       0.0       0.0       0.0       0.0
 4 C  dx2y2           0.0       0.0       0.3       0.2       1.7       0.0
 4 C  dxy             0.0       0.0       0.1       0.1       0.3       0.0
 5 H  s               4.3       8.3       3.3       0.5       0.6       6.4
 5 H  pz              0.0       0.0       0.2       0.0       0.0       0.0
 5 H  px              0.0       0.0       0.0       0.4       0.0       0.0
 5 H  py              0.2       0.3       0.0       0.0       0.0       0.1
 6 H  s               4.2       8.2       3.3       0.6       0.6       6.4
 6 H  pz              0.0       0.0       0.2       0.0       0.0       0.0
 6 H  px              0.0       0.0       0.0       0.4       0.0       0.0
 6 H  py              0.2       0.3       0.0       0.0       0.0       0.1
 7 H  s               0.0       0.0       4.2      15.2       4.4       0.0
 7 H  pz              0.2       0.3       0.0       0.0       0.0       0.2
 7 H  px              0.0       0.0       0.2       0.1       0.1       0.0
 7 H  py              0.0       0.0       0.0       0.3       0.0       0.0
 8 H  s               0.0       0.0       0.0       3.1       2.8       0.0
 8 H  pz              0.3       0.0       0.0       0.0       0.0       0.1
 9 H  s               0.0       0.0       7.0       1.9      14.7       0.0
 9 H  pz              0.2       0.3       0.0       0.0       0.0       0.1
 9 H  py              0.0       0.0       0.2       0.0       0.4       0.0
10 H  s               4.8       9.0       1.8       0.2       3.6       2.8
10 H  pz              0.0       0.0       0.1       0.0       0.2       0.0
10 H  px              0.2       0.2       0.0       0.0       0.0       0.0
10 H  py              0.0       0.1       0.1       0.1       0.2       0.0
11 H  s               4.8       9.0       1.8       0.2       3.6       2.8
11 H  pz              0.0       0.0       0.1       0.0       0.2       0.0
11 H  px              0.2       0.2       0.0       0.0       0.0       0.0
11 H  py              0.0       0.1       0.1       0.1       0.2       0.0

                     18        19        20        21        22        23   
                  -0.36034  -0.35861   0.09708   0.11393   0.13744   0.15232
                   2.00000   2.00000   0.00000   0.00000   0.00000   0.00000
                  --------  --------  --------  --------  --------  --------
 0 C  s               0.6       0.0       4.4       0.0       3.5       3.5
 0 C  pz              0.0       0.2       0.0       1.0       0.0       0.0
 0 C  px              3.8       0.0       0.4       0.0       1.2       3.6
 0 C  py              4.1       0.0       1.5       0.0       0.8       1.1
 0 C  dz2             0.0       0.0       0.2       0.0       0.0       1.2
 0 C  dxz             0.0       0.1       0.0       2.9       0.0       0.0
 0 C  dyz             0.0       0.0       0.0       6.4       0.0       0.0
 0 C  dx2y2           0.2       0.0       0.2       0.0       0.0       0.0
 0 C  dxy             0.0       0.0       0.2       0.0       0.1       1.2
 0 C  f0              0.0       0.0       0.0       0.1       0.0       0.0
 0 C  f+2             0.0       0.0       0.0       0.2       0.0       0.0
 0 C  f-2             0.0       0.0       0.0       0.1       0.0       0.0
 1 C  s               0.2       0.0       1.6       0.0       0.1       3.6
 1 C  pz              0.0       0.0       0.0      36.0       0.0       0.0
 1 C  px              1.4       0.0       0.1       0.0       0.4       0.8
 1 C  py              0.3       0.0       0.6       0.0       0.2       0.3
 1 C  dz2             0.0       0.0       1.3       0.0       0.1       1.7
 1 C  dxz             0.0       2.4       0.0       1.7       0.0       0.0
 1 C  dyz             0.0       6.7       0.0       1.8       0.0       0.0
 1 C  dx2y2           0.1       0.0       0.3       0.0       0.3       0.1
 1 C  dxy            12.0       0.0       0.0       0.0       0.0       0.7
 1 C  f0              0.0       0.0       0.0       0.9       0.0       0.0
 1 C  f+2             0.0       0.6       0.0       0.4       0.0       0.0
 1 C  f-2             0.0       0.4       0.0       0.1       0.0       0.0
 1 C  f+3             1.5       0.0       0.0       0.0       0.0       0.1
 2 O  s               0.0       0.0       0.3       0.0       0.0       0.3
 2 O  pz              0.0      26.0       0.0      18.5       0.0       0.0
 2 O  px             66.8       0.0       0.1       0.0       0.9       0.3
 2 O  py              0.1       0.0       0.2       0.0       0.0       0.1
 2 O  dyz             0.0       0.0       0.0       2.6       0.0       0.0
 2 O  dxy             0.2       0.0       0.0       0.0       0.0       0.1
 2 O  f+2             0.0       0.0       0.0       0.1       0.0       0.0
 3 N  s               0.7       0.0       3.2       0.0       0.2       1.8
 3 N  pz              0.0      46.2       0.0       6.7       0.0       0.0
 3 N  px              2.3       0.0       0.0       0.0       0.2       0.4
 3 N  py              1.5       0.0       3.6       0.0       0.1       3.9
 3 N  dz2             0.1       0.0       0.0       0.0       0.4       1.3
 3 N  dxz             0.0       0.1       0.0       2.1       0.0       0.0
 3 N  dyz             0.0       0.2       0.0       1.0       0.0       0.0
 3 N  dx2y2           0.0       0.0       0.3       0.0       0.4       0.1
 3 N  dxy             0.0       0.0       0.0       0.0       0.2       0.2
 3 N  f0              0.0       0.0       0.0       0.1       0.0       0.0
 3 N  f-2             0.0       0.0       0.0       0.1       0.0       0.0
 4 C  s               0.0       0.0       1.6       0.0       8.8       1.6
 4 C  pz              0.0       3.4       0.0       0.2       0.0       0.0
 4 C  px              0.4       0.0       1.4       0.0       5.1       0.5
 4 C  py              0.8       0.0       1.8       0.0       0.1       5.6
 4 C  dz2             0.0       0.0       0.5       0.0       0.1       0.0
 4 C  dxz             0.0       4.8       0.0       1.8       0.0       0.0
 4 C  dyz             0.0       0.2       0.0       0.0       0.0       0.0
 4 C  dx2y2           0.2       0.0       0.1       0.0       0.0       0.0
 4 C  dxy             0.0       0.0       1.1       0.0       0.0       1.4
 4 C  f0              0.0       0.2       0.0       0.0       0.0       0.0
 4 C  f+1             0.0       0.0       0.0       0.0       0.1       0.0
 4 C  f-2             0.0       0.3       0.0       0.1       0.0       0.0
 4 C  f-3             0.0       0.0       0.0       0.0       0.1       0.1
 5 H  s               0.6       0.0      11.0       5.4       6.1       9.6
 5 H  pz              0.0       0.0       0.9       0.2       0.6       1.1
 5 H  py              0.0       0.0       0.3       0.4       0.3       0.1
 6 H  s               0.6       0.0      11.0       5.4       6.1       9.5
 6 H  pz              0.0       0.0       0.9       0.2       0.5       1.1
 6 H  py              0.0       0.0       0.3       0.4       0.3       0.1
 7 H  s               0.2       0.0       3.5       0.0       6.1       4.0
 7 H  px              0.1       0.0       0.1       0.0       0.4       0.2
 7 H  py              0.0       0.0       0.5       0.0       0.4       0.1
 8 H  s               0.3       0.0      32.7       0.0       0.0      25.0
 8 H  pz              0.0       1.4       0.0       0.5       0.0       0.0
 8 H  px              0.1       0.0       0.0       0.0       0.1       0.2
 8 H  py              0.0       0.0       3.2       0.0       0.0       3.4
 9 H  s               0.3       0.0       0.5       0.0       7.0       3.7
 9 H  px              0.1       0.0       0.1       0.0       0.0       0.0
 9 H  py              0.1       0.0       0.1       0.0       1.0       0.6
10 H  s               0.0       3.2       4.2       0.9      21.0       2.2
10 H  pz              0.0       0.0       0.4       0.0       1.8       0.2
10 H  px              0.0       0.0       0.0       0.1       0.6       0.1
10 H  py              0.0       0.0       0.1       0.0       0.1       0.0
11 H  s               0.0       3.2       4.2       0.9      21.0       2.2
11 H  pz              0.0       0.0       0.4       0.0       1.8       0.2
11 H  px              0.0       0.0       0.0       0.1       0.6       0.1
11 H  py              0.0       0.0       0.1       0.0       0.1       0.0

                     24        25        26        27        28        29   
                   0.18517   0.19440   0.20582   0.20914   0.20940   0.22719
                   0.00000   0.00000   0.00000   0.00000   0.00000   0.00000
                  --------  --------  --------  --------  --------  --------
 0 C  s               0.0       0.4       0.1       0.3       0.0       0.8
 0 C  pz              6.3       0.0       0.0       0.0       8.3       0.0
 0 C  px              0.0       7.2       3.3       2.5       0.0      27.7
 0 C  py              0.0       7.2       1.6       2.9       0.0      21.3
 0 C  dz2             0.0       5.8       0.2       0.0       0.0       4.2
 0 C  dxz             0.7       0.0       0.0       0.0       0.9       0.0
 0 C  dyz             1.7       0.0       0.0       0.0       1.0       0.0
 0 C  dx2y2           0.0       0.1       0.1       1.2       0.0       2.1
 0 C  dxy             0.0       2.2       2.7       1.1       0.0       6.4
 1 C  s               0.0       0.4       2.3       6.0       0.0       6.4
 1 C  pz              1.3       0.0       0.0       0.0       7.8       0.0
 1 C  px              0.0       0.2       0.4       2.4       0.0       2.3
 1 C  py              0.0       0.7       2.6       0.9       0.0       3.1
 1 C  dz2             0.0       0.3       0.2       3.0       0.0       0.9
 1 C  dxz             0.1       0.0       0.0       0.0       0.7       0.0
 1 C  dx2y2           0.0       1.7       0.3       0.6       0.0       0.2
 1 C  dxy             0.0       0.3       0.2       0.0       0.0       0.0
 1 C  f0              0.1       0.0       0.0       0.0       0.4       0.0
 1 C  f+3             0.0       0.1       0.0       0.0       0.0       0.0
 1 C  f-3             0.0       0.0       0.0       0.2       0.0       0.0
 2 O  s               0.0       0.1       0.4       0.6       0.0       1.9
 2 O  pz              0.4       0.0       0.0       0.0       2.8       0.0
 2 O  px              0.0       0.1       1.1       0.9       0.0       0.3
 2 O  py              0.0       1.0       0.7       0.1       0.0       1.7
 2 O  dyz             0.0       0.0       0.0       0.0       0.4       0.0
 2 O  dxy             0.0       0.0       0.0       0.0       0.0       0.2
 3 N  s               0.0       0.1       0.0       2.6       0.0       0.1
 3 N  pz              1.8       0.0       0.0       0.0       3.8       0.0
 3 N  px              0.0       0.3       0.9       2.1       0.0       0.2
 3 N  py              0.0       0.1       0.8       1.7       0.0       0.1
 3 N  dz2             0.0       0.2       0.4       0.0       0.0       0.1
 3 N  dxz             1.0       0.0       0.0       0.0       0.0       0.0
 3 N  dyz             0.4       0.0       0.0       0.0       1.0       0.0
 3 N  dx2y2           0.0       0.3       0.4       0.4       0.0       0.2
 3 N  dxy             0.0       0.0       2.1       0.0       0.0       0.1
 4 C  s               0.0       0.1       0.2       1.4       0.0       0.2
 4 C  pz             11.8       0.0       0.0       0.0       5.2       0.0
 4 C  px              0.0       1.0       3.6      41.1       0.0       1.6
 4 C  py              0.0       0.7       7.2       5.8       0.0       3.3
 4 C  dz2             0.0       0.0       7.5       3.9       0.0       0.5
 4 C  dxz             2.7       0.0       0.0       0.0       0.3       0.0
 4 C  dyz             1.4       0.0       0.0       0.0       3.5       0.0
 4 C  dx2y2           0.0       0.4       3.4       7.4       0.0       0.0
 4 C  dxy             0.0       0.1       0.1       2.7       0.0       0.0
 5 H  s              12.1       4.9       0.1       0.5      15.8       1.1
 5 H  pz              0.4       0.8       0.0       0.1       0.5       0.1
 5 H  px              0.0       0.3       0.2       0.1       0.0       0.6
 5 H  py              0.7       0.1       0.0       0.1       0.9       0.1
 6 H  s              12.2       4.9       0.1       0.8      15.4       1.1
 6 H  pz              0.4       0.8       0.0       0.1       0.5       0.1
 6 H  px              0.0       0.3       0.2       0.1       0.0       0.6
 6 H  py              0.7       0.1       0.0       0.1       0.9       0.1
 7 H  s               0.0      47.8       2.0       0.6       0.0       0.8
 7 H  pz              0.5       0.0       0.0       0.0       0.6       0.0
 7 H  px              0.0       3.5       0.1       0.0       0.0       0.1
 7 H  py              0.0       1.2       0.2       0.3       0.0       0.7
 8 H  s               0.0       0.0       1.9       1.7       0.0       0.0
 8 H  pz              0.1       0.0       0.0       0.0       0.3       0.0
 8 H  px              0.0       0.1       0.5       0.0       0.0       0.0
 9 H  s               0.0       2.5      34.7       0.5       0.0       3.8
 9 H  pz              0.6       0.0       0.0       0.0       0.6       0.0
 9 H  px              0.0       0.0       0.1       0.4       0.0       0.0
 9 H  py              0.0       0.3       3.7       0.1       0.0       0.4
10 H  s              19.3       0.3       5.1       0.1      12.8       1.8
10 H  pz              0.7       0.0       0.9       0.1       0.4       0.3
10 H  px              1.0       0.0       0.0       0.7       0.5       0.0
10 H  py              0.3       0.1       0.4       0.3       0.3       0.0
11 H  s              19.3       0.3       5.3       0.1      12.6       1.7
11 H  pz              0.7       0.0       0.9       0.2       0.4       0.3
11 H  px              1.0       0.0       0.0       0.7       0.6       0.0
11 H  py              0.3       0.1       0.4       0.3       0.3       0.0

                     30        31        32        33        34        35   
                   0.28087   0.28183   0.28765   0.30485   0.31164   0.36471
                   0.00000   0.00000   0.00000   0.00000   0.00000   0.00000
                  --------  --------  --------  --------  --------  --------
 0 C  s               0.0       0.2       0.9       0.9       0.0       5.9
 0 C  pz              1.5       0.0       0.0       0.0      60.5       0.0
 0 C  px              0.0       2.0       7.6       1.1       0.0      11.1
 0 C  py              0.0      16.7       4.1       5.1       0.0       4.0
 0 C  dz2             0.0       4.3       0.0       1.4       0.0       2.3
 0 C  dxz             0.7       0.0       0.0       0.0       3.6       0.0
 0 C  dyz             1.0       0.0       0.0       0.0       8.3       0.0
 0 C  dx2y2           0.0       0.3       1.0       5.7       0.0       1.5
 0 C  dxy             0.0       0.1       5.4       0.3       0.0       0.8
 1 C  s               0.0       1.4      16.9       0.2       0.0       8.4
 1 C  pz             31.3       0.0       0.0       0.0       2.9       0.0
 1 C  px              0.0       0.8       1.0       4.7       0.0       2.4
 1 C  py              0.0       0.8       2.6      42.9       0.0       1.1
 1 C  dz2             0.0       0.2       8.6       0.3       0.0       6.1
 1 C  dxz             0.0       0.0       0.0       0.0       1.4       0.0
 1 C  dyz             0.2       0.0       0.0       0.0       0.0       0.0
 1 C  dx2y2           0.0       0.1       0.9       2.2       0.0       3.3
 1 C  dxy             0.0       0.0       0.5       0.0       0.0       0.1
 1 C  f-1             0.0       0.0       0.0       0.3       0.0       0.1
 1 C  f-2             0.0       0.0       0.0       0.0       0.1       0.0
 1 C  f+3             0.0       0.0       0.1       0.1       0.0       0.0
 1 C  f-3             0.0       0.0       0.1       0.1       0.0       0.4
 2 O  s               0.0       0.4       0.9       4.1       0.0       0.0
 2 O  pz              4.5       0.0       0.0       0.0       0.1       0.0
 2 O  px              0.0       0.2       0.5       1.2       0.0       0.7
 2 O  py              0.0       0.7       0.9       4.9       0.0       0.3
 2 O  dz2             0.0       0.0       0.1       0.0       0.0       0.5
 2 O  dxz             0.1       0.0       0.0       0.0       0.3       0.0
 2 O  dyz             0.3       0.0       0.0       0.0       0.1       0.0
 2 O  dx2y2           0.0       0.0       0.4       0.0       0.0       0.0
 3 N  s               0.0       0.3       0.4       0.8       0.0       2.3
 3 N  pz              0.9       0.0       0.0       0.0       0.6       0.0
 3 N  px              0.0       0.7       2.9       0.5       0.0       4.3
 3 N  py              0.0       0.1       0.3       1.9       0.0       1.6
 3 N  dz2             0.0       0.0       0.1       0.3       0.0       0.3
 3 N  dxz             0.4       0.0       0.0       0.0       0.1       0.0
[...]
 3 N  dyz             0.0       0.4       0.0       0.0       0.1       0.0
 3 N  dx2y2          63.5       0.0       4.7       0.8       0.0       0.0
 3 N  dxy             0.1       0.0       5.6      11.4       0.0       0.1
 3 N  f0              0.0       1.3       0.0       0.0       0.0       0.0
 3 N  f+1             0.4       0.0       0.1       0.1       0.0       0.0
 3 N  f-1             1.0       0.0       1.0       1.6       0.0       0.0
 3 N  f+2             0.0       3.3       0.0       0.0       0.4       0.0
 3 N  f-2             0.0       2.0       0.0       0.0       0.6       0.0
 3 N  f+3             0.7       0.0       5.5       0.4       0.0       0.4
 3 N  f-3             1.8       0.0      27.4      16.2       0.0       1.1
 4 C  s               0.6       0.0       1.0       0.4       0.0       0.0
 4 C  px              0.4       0.0       0.9       0.4       0.0       0.0
 4 C  py              0.5       0.0       0.1       0.0       0.0       0.0
 4 C  dz2             0.2       0.0       0.8       0.2       0.0       0.0
 4 C  dx2y2           0.1       0.0       1.3       0.6       0.0       0.1
 4 C  dxy             0.0       0.0       1.4       0.1       0.0       0.0
 4 C  f+1             1.0       0.0       0.1       0.3       0.0       0.0
 4 C  f-1             0.2       0.0       0.1       0.0       0.0       0.0
 4 C  f-2             0.0       0.1       0.0       0.0       0.0       0.0
 4 C  f+3             0.0       0.0       0.2       0.2       0.0       0.1
 4 C  f-3             1.3       0.0       0.9       0.0       0.0       0.0
 8 H  s               0.3       0.0       7.5       4.1       0.0       0.0
 8 H  py              0.6       0.0       0.6       0.6       0.0       0.0
 9 H  s               0.2       0.0       0.0       0.0       0.0       0.0

                    186       187       188       189       190       191   
                   6.51550   6.65653   6.82227   6.94129   7.18523   7.20187
                   0.00000   0.00000   0.00000   0.00000   0.00000   0.00000
                  --------  --------  --------  --------  --------  --------
 0 C  s               0.0       0.3       0.3       0.0       0.0       0.1
 0 C  pz              0.1       0.0       0.0       0.0       0.0       0.0
 0 C  px              0.0       0.0       0.1       0.0       0.1       0.1
 0 C  py              0.0       0.3       0.0       0.0       0.0       0.0
 0 C  dx2y2           0.0       0.1       0.6       0.0       0.1       0.0
 0 C  dxy             0.0       0.1       0.2       0.0       0.1       0.0
 0 C  f+3             0.0       0.2       0.6       0.0       0.0       0.0
 1 C  s               0.0       0.5       0.1       0.0       0.2       3.5
 1 C  pz              0.0       0.0       0.0       1.4       0.0       0.0
 1 C  px              0.0       0.2       0.1       0.0       1.5       0.2
 1 C  py              0.0       0.4       0.1       0.0       0.0       1.9
 1 C  dz2             0.0       0.3       0.0       0.0       0.0       0.2
 1 C  dxz             0.6       0.0       0.0       0.0       0.0       0.0
 1 C  dyz             0.0       0.0       0.0       2.5       0.0       0.0
 1 C  dx2y2           0.0       1.3       1.0       0.0       0.0       0.3
 1 C  dxy             0.0       0.5       3.6       0.0       4.3       0.1
 1 C  f0              0.0       0.0       0.0       0.1       0.0       0.0
 1 C  f+1             0.0       0.1       0.2       0.0       0.1       0.0
 1 C  f-1             0.0       0.0       0.1       0.0       0.0       0.4
 1 C  f+2             0.0       0.0       0.0       0.2       0.0       0.0
 1 C  f-2             0.1       0.0       0.0       0.0       0.0       0.0
 1 C  f+3             0.0       1.3      15.5       0.0       1.3       0.1
 1 C  f-3             0.0       0.0       0.1       0.0       0.0       2.1
 2 O  s               0.0       0.1       0.2       0.0       0.1       1.8
 2 O  pz              0.0       0.0       0.0       1.9       0.0       0.0
 2 O  px              0.0       0.2       1.6       0.0       3.6       0.1
 2 O  py              0.0       0.0       0.1       0.0       0.0       2.8
 2 O  dz2             0.0      57.4       7.3       0.0       1.1      16.9
 2 O  dxz            94.9       0.0       0.0       0.1       0.0       0.0
 2 O  dyz             0.3       0.0       0.0      73.2       0.0       0.0
 2 O  dx2y2           0.0      25.3       0.2       0.0       0.5      54.2
 2 O  dxy             0.0       1.6      31.9       0.0      58.6       0.5
 2 O  f0              0.0       0.0       0.0       7.4       0.0       0.0
 2 O  f+1             0.0       0.3       1.1       0.0       1.4       0.0
 2 O  f-1             0.0       3.5       0.2       0.0       0.2       5.7
 2 O  f+2             0.1       0.0       0.0      12.8       0.0       0.0
 2 O  f-2             2.9       0.0       0.0       0.0       0.0       0.0
 2 O  f+3             0.0       3.0      21.7       0.0      24.0       0.7
 2 O  f-3             0.0       0.3       1.9       0.0       0.0       7.3
 3 N  s               0.0       0.4       0.6       0.0       0.6       0.0
 3 N  px              0.0       0.3       0.3       0.0       0.1       0.0
 3 N  py              0.0       0.5       0.7       0.0       0.0       0.1
 3 N  dxz             0.1       0.0       0.0       0.2       0.0       0.0
 3 N  dyz             0.3       0.0       0.0       0.1       0.0       0.0
 3 N  dx2y2           0.0       0.5       1.3       0.0       0.7       0.0
 3 N  dxy             0.0       0.0       0.6       0.0       0.1       0.1
 3 N  f+3             0.0       0.3       6.6       0.0       0.3       0.1
 3 N  f-3             0.0       0.1       0.1       0.0       0.5       0.1
 4 C  s               0.0       0.2       0.0       0.0       0.0       0.0
 4 C  dxy             0.0       0.0       0.1       0.0       0.0       0.0
 7 H  s               0.0       0.0       0.1       0.0       0.0       0.0
 8 H  s               0.0       0.1       0.2       0.0       0.0       0.1

                    192       193       194       195       196   
                  22.41440  22.47244  23.36329  32.42038  43.94603
                   0.00000   0.00000   0.00000   0.00000   0.00000
                  --------  --------  --------  --------  --------
 0 C  s              96.6       2.0       0.0       0.0       0.0
 1 C  s               0.0       0.1      96.1       0.0       0.0
 1 C  px              0.1       0.0       0.2       0.0       0.0
 1 C  py              0.0       0.0       0.1       0.0       0.0
 1 C  dz2             0.0       0.0       0.1       0.0       0.0
 2 O  s               0.0       0.0       0.9       0.0      99.9
 2 O  py              0.0       0.0       0.6       0.0       0.0
 3 N  s               0.1       0.2       0.5      99.6       0.0
 3 N  px              0.0       0.3       0.4       0.0       0.0
 3 N  py              0.0       0.0       0.2       0.1       0.0
 3 N  dxy             0.0       0.1       0.2       0.0       0.0
 4 C  s               2.0      96.1       0.1       0.1       0.0
 5 H  s               0.2       0.0       0.0       0.0       0.0
 6 H  s               0.2       0.0       0.0       0.0       0.0
 7 H  s               0.2       0.0       0.0       0.0       0.0
 9 H  s               0.0       0.2       0.0       0.0       0.0
 9 H  py              0.0       0.1       0.0       0.0       0.0
10 H  s               0.0       0.2       0.0       0.0       0.0
11 H  s               0.0       0.2       0.0       0.0       0.0


                      *****************************
                      * MAYER POPULATION ANALYSIS *
                      *****************************

  NA   - Mulliken gross atomic population
  ZA   - Total nuclear charge
  QA   - Mulliken gross atomic charge
  VA   - Mayer's total valence
  BVA  - Mayer's bonded valence
  FA   - Mayer's free valence

  ATOM       NA         ZA         QA         VA         BVA        FA
  0 C      6.3711     6.0000    -0.3711     3.7962     3.7962     0.0000
  1 C      5.7040     6.0000     0.2960     4.2338     4.2338     0.0000
  2 O      8.3874     8.0000    -0.3874     2.1386     2.1386     0.0000
  3 N      7.3025     7.0000    -0.3025     3.0205     3.0205    -0.0000
  4 C      6.2399     6.0000    -0.2399     3.8408     3.8408    -0.0000
  5 H      0.8749     1.0000     0.1251     0.9731     0.9731     0.0000
  6 H      0.8749     1.0000     0.1251     0.9731     0.9731     0.0000
  7 H      0.8591     1.0000     0.1409     0.9982     0.9982     0.0000
  8 H      0.7811     1.0000     0.2189     0.9512     0.9512    -0.0000
  9 H      0.8366     1.0000     0.1634     0.9943     0.9943    -0.0000
 10 H      0.8842     1.0000     0.1158     0.9678     0.9678    -0.0000
 11 H      0.8842     1.0000     0.1158     0.9678     0.9678    -0.0000

  Mayer bond orders larger than 0.100000
B(  0-C ,  1-C ) :   0.9570 B(  0-C ,  5-H ) :   0.9598 B(  0-C ,  6-H ) :   0.9599 
B(  0-C ,  7-H ) :   0.9840 B(  1-C ,  2-O ) :   2.0576 B(  1-C ,  3-N ) :   1.2112 
B(  3-N ,  4-C ) :   0.9047 B(  3-N ,  8-H ) :   0.9271 B(  4-C ,  9-H ) :   0.9662 
B(  4-C , 10-H ) :   0.9774 B(  4-C , 11-H ) :   0.9774 

-------
TIMINGS
-------

Total SCF time: 0 days 0 hours 0 min 35 sec 

Total time                  ....      35.703 sec
Sum of individual times     ....      34.865 sec  ( 97.7%)

SCF preparation             ....       0.047 sec  (  0.1%)
Fock matrix formation       ....      34.608 sec  ( 96.9%)
  Startup                   ....       0.002 sec  (  0.0% of F)
  Split-RI-J                ....       1.203 sec  (  3.5% of F)
  Chain of spheres X        ....      30.118 sec  ( 87.0% of F)
  XC integration            ....       4.082 sec  ( 11.8% of F)
    Basis function eval.    ....       1.107 sec  ( 27.1% of XC)
    Density eval.           ....       0.795 sec  ( 19.5% of XC)
    XC-Functional eval.     ....       1.106 sec  ( 27.1% of XC)
    XC-Potential eval.      ....       0.997 sec  ( 24.4% of XC)
Diagonalization             ....       0.000 sec  (  0.0%)
Density matrix formation    ....       0.010 sec  (  0.0%)
Total Energy calculation    ....       0.002 sec  (  0.0%)
Population analysis         ....       0.076 sec  (  0.2%)
Orbital Transformation      ....       0.009 sec  (  0.0%)
Orbital Orthonormalization  ....       0.000 sec  (  0.0%)
DIIS solution               ....       0.032 sec  (  0.1%)
  MO trafo                  ....       0.000 sec  (  0.0 % of DIIS)
  Orb grad                  ....       0.000 sec  (  0.0 % of DIIS)
  Energy W gradient         ....       0.000 sec  (  0.0 % of DIIS)
  DIIS error                ....       0.004 sec  ( 11.6 % of DIIS)
  DIIS work                 ....       0.023 sec  ( 72.6 % of DIIS)
  Form Q                    ....       0.000 sec  (  0.0 % of DIIS)
  Form QpQm                 ....       0.000 sec  (  0.0 % of DIIS)
  Exp/Cayley                ....       0.000 sec  (  0.0 % of DIIS)
  Orb update                ....       0.000 sec  (  0.0 % of DIIS)
  Wake-sleep                ....       0.000 sec  (  1.0 % of DIIS)
SOSCF solution              ....       0.018 sec  (  0.1%)
  MO trafo                  ....       0.009 sec  ( 51.6 % of SOSCF)
  Orb grad                  ....       0.000 sec  (  1.0 % of SOSCF)
  Rot update                ....       0.001 sec  (  4.2 % of SOSCF)
  Step                      ....       0.008 sec  ( 43.0 % of SOSCF)
Grid generation             ....       0.063 sec  (  0.2%)
Finished LeanSCF after  35.7 sec

Maximum memory used throughout the entire LEANSCF-calculation: 22.3 MB
------------------   -----------------
gCP correction             0.007823698
------------------   -----------------

-------------------------   --------------------
FINAL SINGLE POINT ENERGY      -248.538180287063
-------------------------   --------------------


------------------------------------------------------------------------------
                              ORCA PROPERTY CALCULATIONS
------------------------------------------------------------------------------

GBWName                                 ... sp.gbw
Number of atoms                         ...     12
Number of basis functions               ...    197
Max core memory                         ...   1024 MB

Electric properties:
Dipole moment                           ... YES
Quadrupole moment                       ...  NO
Static polarizability (Dipole/Dipole)   ...  NO
Static polarizability (Dipole/Quad.)    ...  NO
Static polarizability (Quad./Quad.)     ...  NO
Static polarizability (Velocity)        ...  NO

Atomic electric properties:
Dipole moment                           ...  NO
Quadrupole moment                       ...  NO
Static polarizability                   ...  NO

Choice of electric origin               ... Center of mass
Position of electric origin             ...    -0.002523     0.004531    -0.000060

General magnetic properties:
Magnetizability                         ...  NO

EPR properties:
g-Tensor (aka g-matrix)                 ...  NO
Zero-Field splitting spin-orbit         ...  NO
Zero-field splitting spin-spin          ...  NO
Hyperfine couplings                     ...  NO (   0 nuclei)
Quadrupole couplings                    ...  NO (   0 nuclei)
Contact density                         ...  NO (   0 nuclei)

NMR properties:
Chemical shifts                         ...  NO (   0 nuclei)
Spin-rotation constants                 ...  NO (   0 nuclei)
Spin-spin couplings                     ...  NO (   0 nuclei,    0 pairs)

Choice of magnetic origin               ... GIAO
Position of magnetic origin             ...     0.000000     0.000000     0.000000

Properties with geometric perturbations:
SCF Hessian                             ...  NO
IR spectrum                             ...  NO
VCD spectrum                            ...  NO
X-ray spectroscopy properties:
SCF XES/XAS/RIXS spectra                ...  NO


-------------
DIPOLE MOMENT
-------------

Method             : SCF
Type of density    : Electron Density
Multiplicity       :   1
Irrep              :   0
Energy             :  -248.5460039849630789 Eh
Relativity type    : 
Basis              : AO
                                X                 Y                 Z
Electronic contribution:     -0.844848323      -2.328622316      -0.000143894
Nuclear contribution   :      1.167864016       3.821545541       0.000140714
                        -----------------------------------------
Total Dipole Moment    :      0.323015694       1.492923225      -0.000003180
                        -----------------------------------------
Magnitude (a.u.)       :      1.527468132
Magnitude (Debye)      :      3.882515442



--------------------
Rotational spectrum 
--------------------
 
Rotational constants in cm-1:             0.329472             0.128507             0.095794 
Rotational constants in MHz :          9877.315475          3852.539965          2871.846788 

Dipole components along the rotational axes: 
x,y,z [a.u.] :     0.326544     1.492155     0.000027 
x,y,z [Debye]:     0.830010     3.792758     0.000067 

 

Dipole moment calculation done in   0.0 sec 

Maximum memory used throughout the entire PROP-calculation: 13.4 MB

--------------------------------
SUGGESTED CITATIONS FOR THIS RUN
--------------------------------

Below you find a list of papers that are relevant to this ORCA run
We neither can nor want to force you to cite these papers, but we appreciate if you do
You receive ORCA, which is the product of decades of hard work by many enthusiastic individuals, for free
The only thing we kindly ask in return is that you cite our papers,
We deeply appreciate it, if you show your appreciation for ORCA by not just citing the generic ORCA reference.

Please note that relegating all ORCA citations to the supporting information does *not* help us.
SI sections are not indexed - citations you put there will not count into any citation statistics
But we need these citations in order to attract the funding resources that allow us to do what we are doing

Therefore, if you are a happy ORCA user, please consider citing a few of the papers listed below in the main body of your paper

In addition to the list printed below, the program has created the file sp.bibtex that contains the list in bibtex format
You can import this file easily into all common literature databanks and citation aid programs


List of essential papers. We consider these as the minimum necessary citations

  1. Neese,F.
     Software update: the ORCA program system, version 5.0
     WIRES Comput. Molec. Sci., 2022 12(1)e1606
     doi.org/10.1002/wcms.1606

List of papers to cite with high priority. The work reported in these papers was absolutely
necessary for this run to complete.
Our perspective: the developers of density functionals and basis sets usually get cited in chemistry papers
Good! But without the algorithms to do something with them, the functionals or basis sets would not do anything.
Hence, in our opinion, the algorithm design and method developments papers are equally worthy of getting cited

  1. Neese,F.
     An improvement of the resolution of the identity approximation for the formation of the Coulomb matrix
     J. Comp. Chem., 2003 24(14)1740-1747
     doi.org/10.1002/jcc.10318
  2. Neese,F.; Wennmohs,F.; Hansen,A.; Becker,U.
     Efficient, approximate and parallel Hartree-Fock and hybrid DFT calculations. A 'chain-of-spheres' algorithm for the Hartree-Fock exchange
     Chem. Phys., 2009 356(1-3)98-109
     doi.org/10.1016/j.chemphys.2008.10.036
  3. Helmich-Paris,B.; de Souza,B.; Neese,F.; Izsák,R.
     An improved chain of spheres for exchange algorithm
     J. Chem. Phys., 2021 155 104109
     doi.org/doi: 10.1063/5.0058766.
  4. Neese,F.
     The SHARK Integral Generation and Digestion System
     J. Comp. Chem., 2022  1-16
     doi.org/10.1002/jcc.26942

List of suggested additional citations. These are papers that are important in the 'surrounding' of 
of this run, or papers that preceded the highly important papers. If you like your results we are grateful for a citation.

  1. Izsak,R.; Neese,F.
     An overlap fitted chain of spheres exchange method
     J. Chem. Phys., 2011 135 144105
     doi.org/10.1063/1.3646921
  2. Izsak,R.; Hansen,A.; Neese,F.
     The resolution of identity and chain of spheres approximations for the LPNO-CCSD singles Fock term
     Molec. Phys., 2012 110 2413-2417
     doi.org/10.1080/00268976.2012.687466
  3. Neese,F.
     The ORCA program system
     WIRES Comput. Molec. Sci., 2012 2(1)73-78
     doi.org/10.1002/wcms.81
  4. Izsak,R.; Neese,F.; Klopper,W.
     Robust fitting techniques in the chain of spheres approximation to the Fock exchange: The role of the complementary space
     J. Chem. Phys., 2013 139 
     doi.org/10.1063/1.4819264
  5. Neese,F.
     Software update: the ORCA program system, version 4.0
     WIRES Comput. Molec. Sci., 2018 8(1)1-6
     doi.org/10.1002/wcms.1327
  6. Neese,F.; Wennmohs,F.; Becker,U.; Riplinger,C.
     The ORCA quantum chemistry program package
     J. Chem. Phys., 2020 152 Art. No. L224108
     doi.org/10.1063/5.0004608

List of optional additional citations

  1. Neese,F.
     Approximate second-order SCF convergence for spin unrestricted wavefunctions
     Chem. Phys. Lett., 2000 325(1-3)93-98
     doi.org/10.1016/s0009-2614(00)00662-x

Timings for individual modules:

Sum of individual times          ...       36.468 sec (=   0.608 min)
Startup calculation              ...        0.655 sec (=   0.011 min)   1.8 %
SCF iterations                   ...       35.776 sec (=   0.596 min)  98.1 %
Property calculations            ...        0.037 sec (=   0.001 min)   0.1 %
                             ****ORCA TERMINATED NORMALLY****
TOTAL RUN TIME: 0 days 0 hours 0 minutes 36 seconds 516 msec
