
                                 *****************
                                 * O   R   C   A *
                                 *****************

                                            #,                                       
                                            ###                                      
                                            ####                                     
                                            #####                                    
                                            ######                                   
                                           ########,                                 
                                     ,,################,,,,,                         
                               ,,#################################,,                 
                          ,,##########################################,,             
                       ,#########################################, ''#####,          
                    ,#############################################,,   '####,        
                  ,##################################################,,,,####,       
                ,###########''''           ''''###############################       
              ,#####''   ,,,,##########,,,,          '''####'''          '####       
            ,##' ,,,,###########################,,,                        '##       
           ' ,,###''''                  '''############,,,                           
         ,,##''                                '''############,,,,        ,,,,,,###''
      ,#''                                            '''#######################'''  
     '                                                          ''''####''''         
             ,#######,   #######,   ,#######,      ##                                
            ,#'     '#,  ##    ##  ,#'     '#,    #''#        ,####,   ,####,        
            ##       ##  ##   ,#'  ##            #'  '#       #'       #'  '#        
            ##       ##  #######   ##           ,######,      #####,   #    #        
            '#,     ,#'  ##    ##  '#,     ,#' ,#      #,     #,   #   #,  ,#        
             '#######'   ##     ##  '#######'  #'      '#     '####' # '####'        



                #########################################################
                #                        -***-                          #
                #          Department of theory and spectroscopy        #
                #                                                       #
                #                      Frank Neese                      #
                #                                                       #
                #     Directorship, Architecture, Infrastructure        #
                #                    SHARK, DRIVERS                     #
                #        Core code/Algorithms in most modules           #
                #                                                       #
                #        Max Planck Institute fuer Kohlenforschung      #
                #                Kaiser Wilhelm Platz 1                 #
                #                 D-45470 Muelheim/Ruhr                 #
                #                      Germany                          #
                #                                                       #
                #                  All rights reserved                  #
                #                        -***-                          #
                #########################################################


                         Program Version 6.0.1  -  RELEASE   -


 With contributions from (in alphabetic order):
[Max-Planck-Institut fuer Kohlenforschung]                               
  Daniel Aravena         : Magnetic Suceptibility                        
  Michael Atanasov       : Ab Initio Ligand Field Theory (pilot matlab implementation)
  Alexander A. Auer      : GIAO ZORA, VPT2 properties, NMR spectrum      
  Ute Becker             : All parallelization in ORCA, NUMFREQ, NUMCALC 
  Giovanni Bistoni       : ED, misc. LED, open-shell LED, HFLD           
  Martin Brehm           : Molecular dynamics                            
  Dmytro Bykov           : pre 5.0 version of the SCF Hessian            
  Marcos Casanova-Páez   : Triplet and SCS-CIS(D). UHF-(DLPNO)-IP/EA/STEOM-CCSD. UHF-CVS-IP/STEOM-CCSD   
  Vijay G. Chilkuri      : MRCI spin determinant printing, contributions to CSF-ICE 
  Pauline Colinet        : FMM embedding                                 
  Dipayan Datta          : RHF DLPNO-CCSD density                        
  Achintya Kumar Dutta   : EOM-CC, STEOM-CC                              
  Nicolas Foglia         : Exact transition moments, OPA infrastructure, MCD improvements    
  Dmitry Ganyushin       : Spin-Orbit,Spin-Spin,Magnetic field MRCI      
  Miquel Garcia-Rates    : C-PCM and meta-GGA Hessian, CCSD/C-PCM, Gaussian charge scheme 
  Tiago L. C. Gouveia    : GS-ROHF, GS-ROCIS                             
  Yang Guo               : DLPNO-NEVPT2, F12-NEVPT2, CIM, IAO-localization        
  Andreas Hansen         : Spin unrestricted coupled pair/coupled cluster methods 
  Ingolf Harden          : AUTO-CI MPn and infrastructure                
  Benjamin Helmich-Paris : MC-RPA, TRAH-(SCF,CASSCF), AVAS, COSX integrals, SCF dyn. polar. 
  Lee Huntington         : MR-EOM, pCC                                   
  Robert Izsak           : Overlap fitted RIJCOSX, COSX-SCS-MP3, EOM     
  Riya Kayal             : Wick's Theorem for AUTO-CI, AUTO-CI UHF-CCSDT 
  Emily Kempfer          : AUTO-CI, RHF CISDT and CCSDT                  
  Christian Kollmar      : KDIIS, OOCD, Brueckner-CCSD(T), CCSD density, CASPT2, CASPT2-K, improved NEVPT2 
  Axel Koslowski         : Symmetry handling                             
  Simone Kossmann        : meta-GGA functionals, TD-DFT gradient, OOMP2, (MP2 Hessian; deprecated post 5.0) 
  Lucas Lang             : DCDCAS                                        
  Marvin Lechner         : AUTO-CI (C++ implementation), FIC-MRCC        
  Spencer Leger          : CASSCF response                               
  Dagmar Lenk            : GEPOL surface, SMD, ORCA-2-JSON               
  Dimitrios Liakos       : Extrapolation schemes; Compound Job, initial MDCI parallelization 
  Dimitrios Manganas     : Further ROCIS development; embedding schemes. LFT, Crystal Embedding 
  Dimitrios Pantazis     : SARC Basis sets                               
  Anastasios Papadopoulos: AUTO-CI, single reference methods and gradients 
  Taras Petrenko         : pre 6.0 DFT Hessian and TD-DFT gradient, (ASA, deprecated), ECA, 1-Electron XAS/XES, NRVS 
  Peter Pinski           : DLPNO-MP2, DLPNO-MP2 Gradient                 
  Christoph Reimann      : Effective Core Potentials                     
  Marius Retegan         : Local ZFS, SOC                                
  Christoph Riplinger    : Optimizer, TS searches, QM/MM, DLPNO-CCSD(T), (RO)-DLPNO pert. Triples 
  Michael Roemelt        : Original ROCIS implementation                 
  Masaaki Saitow         : Open-shell DLPNO-CCSD energy and density      
  Barbara Sandhoefer     : DKH picture change effects                    
  Kantharuban Sivalingam : CASSCF convergence/infrastructure, NEVPT2 and variants, FIC-MRCI 
  Bernardo de Souza      : ESD, SOC TD-DFT                               
  Georgi L. Stoychev     : AutoAux, RI-MP2 NMR, DLPNO-MP2 response, X2C  
  Van Anh Tran           : RI-MP2 g-tensors                              
  Willem Van den Heuvel  : Paramagnetic NMR                              
  Zikuan Wang            : NOTCH, Electric field optimization            
  Frank Wennmohs         : Technical directorship and infrastructure     
  Hang Xu                : AUTO-CI-Response properties                   
                                                                         
[FACCTs GmbH]                                                            
  Markus Bursch, Miquel Garcia-Rates, Christoph Riplinger, Bernardo de Souza, Georgi L. Stoychev 
                                                                 
  APM, Basis sets (HGBS, AHGBS, def-TZVP (Ac-Lr), def2-XVPD (La-Lu)), CI-OPT, improved COSX, DLPNO-Multilevel,           
  DOCKER, DRACO, updates on ESD, GOAT, IRC, LR-CPCM, MBIS, meta-GGA TD-DFT gradient, ML-optimized integration grids, 
  MM, NACMEs, nearIR, NEB, NEB-TS, NL-DFT gradient (VV10), 2- and 3-layer-ONIOM, interface openCOSMO-RS, QMMM,   
  Crystal-QMMM, SF, symmetry and pop. for TD-DFT, r2SCAN hybrids, SOLVATOR                                   
                                                                         
[Other institutions]                                                     
  V. Asgeirsson          : NEB                                           
  Christoph Bannwarth    : sTDA-DFT, sTD-DFT, PBEh-3c, B97-3c, D3        
  Sebastian Ehlert       : rSCAN, r2SCAN, r2SCAN-3c, D4, dhf basis sets  
  Marvin Friede          : D4 for Fr, Ra, Ac-Lr                          
  Lars Goerigk           : TD-DFT with DH, B97 family of functionals     
  Stefan Grimme          : VdW corrections, initial TS optimization, DFT functionals, gCP, sTDA/sTD-DF 
  Waldemar Hujo          : DFT-NL                                        
  H. Jonsson             : NEB                                           
  Holger Kruse           : gCP                                           
  Marcel Mueller         : wB97X-3c, vDZP basis set                      
  Hagen Neugebauer       : wr2SCAN                                       
  Tobias Risthaus        : range-separated hybrid DFT                    
  Lukas Wittmann         : regularized MP2, r2SCAN double-hybrids, wr2SCAN        
                                                                         
We gratefully acknowledge several colleagues who have allowed us to      
interface, adapt or use parts of their codes:                            
  Ed Valeev, F. Pavosevic, A. Kumar             : LibInt (2-el integral package), F12 methods 
  Garnet Chan, S. Sharma, J. Yang, R. Olivares  : DMRG                   
  Ulf Ekstrom                                   : XCFun DFT Library      
  Mihaly Kallay                                 : mrcc  (arbitrary order and MRCC methods)
  Frank Weinhold                                : gennbo (NPA and NBO analysis)           
  Simon Mueller                                 : openCOSMO-RS                            
  Christopher J. Cramer and Donald G. Truhlar   : smd solvation model                     
  S Lehtola, MJT Oliveira, MAL Marques          : LibXC Library                           
  Liviu Ungur et al                             : ANISO software                          


 Your calculation uses the libint2 library for the computation of 2-el integrals
 For citations please refer to: http://libint.valeyev.net

 Your ORCA version has been built with support for libXC version: 6.2.2
 For citations please refer to: https://libxc.gitlab.io

 This ORCA versions uses:
   CBLAS   interface :  Fast vector & matrix operations
   LAPACKE interface :  Fast linear algebra routines
   SCALAPACK package :  Parallel linear algebra routines
   Shared memory     :  Shared parallel matrices
   BLAS/LAPACK       :  OpenBLAS 0.3.27  USE64BITINT DYNAMIC_ARCH NO_AFFINITY Zen SINGLE_THREADED
        Core in use  :  Zen
   Copyright (c) 2011-2014, The OpenBLAS Project


Your calculation utilizes the geometrical counterpoise correction gCP
Please cite in your paper:
H.Kruse, S. Grimme J.Chem.Phys., 136, (2012), 154101 
   

Your calculation utilizes the atom-pairwise dispersion correction
based on EEQ partial charges (D4)


================================================================================

----- Orbital basis set information -----
Your calculation utilizes the basis: def2-mTZVPP
   Stefan Grimme, Andreas Hansen, Sebastian Ehlert, and Jan-Michael Mewes 
   J. Chem. Phys. 154, 064103 (2021). DOI: 10.1063/5.0040021

----- AuxJ basis set information -----
Your calculation utilizes the auxiliary basis: def2/J
   F. Weigend, Phys. Chem. Chem. Phys. 8, 1057 (2006).

================================================================================
                                        WARNINGS
                       Please study these warnings very carefully!
================================================================================

WARNING: Old DensityContainer found on disk!
         Will remove this file - 
         If you want to keep old densities, please start your calculation with a different basename. 



WARNING: SCAN, rSCAN, or r2SCAN functional requested.
  ===> : libXC variant has now been activated.



================================================================================
                                       INPUT FILE
================================================================================
NAME = sp.inp
|  1> ! r2scan-3c def2/J RI DEFGRID2 scfconv6 printgap
|  2> %output
|  3>     printlevel normal
|  4> end
|  5> * xyz 0 1
|  6> C 0.203624104 -0.0002431404 -0.0064788289
|  7> N -1.3372001229 0.0026155259 -0.2114671469
|  8> O -1.8470656064 1.0769860808 -0.2582049022
|  9> O -1.8510546431 -1.069879948 -0.2578683688
| 10> Cl 0.8613529779 -1.4599259847 -0.7219895856
| 11> Cl 0.8669154112 1.4576519211 -0.7200115239
| 12> Cl 0.3999502939 -0.0018837901 1.7606380878
| 13> *
| 14> 
| 15>                          ****END OF INPUT****
================================================================================

                       ****************************
                       * Single Point Calculation *
                       ****************************

---------------------------------
CARTESIAN COORDINATES (ANGSTROEM)
---------------------------------
  C      0.203624   -0.000243   -0.006479
  N     -1.337200    0.002616   -0.211467
  O     -1.847066    1.076986   -0.258205
  O     -1.851055   -1.069880   -0.257868
  Cl     0.861353   -1.459926   -0.721990
  Cl     0.866915    1.457652   -0.720012
  Cl     0.399950   -0.001884    1.760638

----------------------------
CARTESIAN COORDINATES (A.U.)
----------------------------
  NO LB      ZA    FRAG     MASS         X           Y           Z
   0 C     6.0000    0    12.011    0.384794   -0.000459   -0.012243
   1 N     7.0000    0    14.007   -2.526942    0.004943   -0.399615
   2 O     8.0000    0    15.999   -3.490448    2.035209   -0.487937
   3 O     8.0000    0    15.999   -3.497986   -2.021780   -0.487301
   4 Cl   17.0000    0    35.453    1.627721   -2.758860   -1.364363
   5 Cl   17.0000    0    35.453    1.638233    2.754563   -1.360625
   6 Cl   17.0000    0    35.453    0.755797   -0.003560    3.327124

--------------------------------
INTERNAL COORDINATES (ANGSTROEM)
--------------------------------
 C      0   0   0     0.000000000000     0.00000000     0.00000000
 N      1   0   0     1.554402676494     0.00000000     0.00000000
 O      2   1   0     1.190134159778   115.56322448     0.00000000
 O      2   1   3     1.190145404083   115.56091407   182.27772515
 Cl     1   2   3     1.753635344209   108.63346962   207.50573714
 Cl     1   2   3     1.753437274438   108.64975839   330.30406624
 Cl     1   2   3     1.777990118606   103.91763923    88.91242143

---------------------------
INTERNAL COORDINATES (A.U.)
---------------------------
 C      0   0   0     0.000000000000     0.00000000     0.00000000
 N      1   0   0     2.937395360408     0.00000000     0.00000000
 O      2   1   0     2.249027624606   115.56322448     0.00000000
 O      2   1   3     2.249048873262   115.56091407   182.27772515
 Cl     1   2   3     3.313890539320   108.63346962   207.50573714
 Cl     1   2   3     3.313516241696   108.64975839   330.30406624
 Cl     1   2   3     3.359914392983   103.91763923    88.91242143

---------------------
BASIS SET INFORMATION
---------------------
There are 4 groups of distinct atoms

 Group   1 Type C   : 11s6p1d contracted to 5s3p1d pattern {62111/411/1}
 Group   2 Type N   : 11s6p2d contracted to 5s3p2d pattern {62111/411/11}
 Group   3 Type O   : 11s6p2d contracted to 5s3p2d pattern {62111/411/11}
 Group   4 Type Cl  : 14s9p2d contracted to 5s4p2d pattern {73211/6111/11}

Atom   0C    basis set group =>   1
Atom   1N    basis set group =>   2
Atom   2O    basis set group =>   3
Atom   3O    basis set group =>   3
Atom   4Cl   basis set group =>   4
Atom   5Cl   basis set group =>   4
Atom   6Cl   basis set group =>   4
---------------------------------
AUXILIARY/J BASIS SET INFORMATION
---------------------------------
There are 4 groups of distinct atoms

 Group   1 Type C   : 12s5p4d2f1g contracted to 6s4p3d1f1g pattern {711111/2111/211/2/1}
 Group   2 Type N   : 12s5p4d2f1g contracted to 6s4p3d1f1g pattern {711111/2111/211/2/1}
 Group   3 Type O   : 12s5p4d2f1g contracted to 6s4p3d1f1g pattern {711111/2111/211/2/1}
 Group   4 Type Cl  : 14s5p5d2f1g contracted to 8s4p3d1f1g pattern {71111111/2111/311/2/1}

Atom   0C    basis set group =>   1
Atom   1N    basis set group =>   2
Atom   2O    basis set group =>   3
Atom   3O    basis set group =>   3
Atom   4Cl   basis set group =>   4
Atom   5Cl   basis set group =>   4
Atom   6Cl   basis set group =>   4

Checking for AutoStart:
The File: sp.gbw exists
Trying to determine its content:
     ... Fine, the file contains calculation information
     ... Fine, the calculation information was read
     ... Fine, the file contains a basis set
     ... Fine, the basis set was read
     ... Fine, the file contains a geometry
     ... Fine, the geometry was read
     ... Fine, the file contains a set of orbitals
     ... Fine, the orbitals can be read
     => possible old guess file was deleted
     => GBW file was renamed to GES file
     => GES file is set as startup file
     => Guess is set to MORead
     ... now leaving AutoStart

------------------------------------------------------------------------------
                             ORCA STARTUP CALCULATIONS
                           -- RI-GTO INTEGRALS CHOSEN --
------------------------------------------------------------------------------
------------------------------------------------------------------------------
                   ___                                                        
                  /   \      - P O W E R E D   B Y -                         
                 /     \                                                     
                 |  |  |   _    _      __       _____    __    __             
                 |  |  |  | |  | |    /  \     |  _  \  |  |  /  |          
                  \  \/   | |  | |   /    \    | | | |  |  | /  /          
                 / \  \   | |__| |  /  /\  \   | |_| |  |  |/  /          
                |  |  |   |  __  | /  /__\  \  |    /   |      \           
                |  |  |   | |  | | |   __   |  |    \   |  |\   \          
                \     /   | |  | | |  |  |  |  | |\  \  |  | \   \       
                 \___/    |_|  |_| |__|  |__|  |_| \__\ |__|  \__/        
                                                                              
                      - O R C A' S   B I G   F R I E N D -                    
                                      &                                       
                       - I N T E G R A L  F E E D E R -                       
                                                                              
 v1 FN, 2020, v2 2021, v3 2022-2024                                           
------------------------------------------------------------------------------


----------------------
SHARK INTEGRAL PACKAGE
----------------------

Number of atoms                             ...      7
Number of basis functions                   ...    172
Number of shells                            ...     72
Maximum angular momentum                    ...      2
Integral batch strategy                     ... SHARK/LIBINT Hybrid
RI-J (if used) integral strategy            ... SPLIT-RIJ (Revised 2003 algorithm where possible)
Printlevel                                  ...      1
Contraction scheme used                     ... SEGMENTED contraction
Prescreening option                         ... SCHWARTZ
   Thresh                                   ... 1.000e-10
   Tcut                                     ... 1.000e-11
   Tpresel                                  ... 1.000e-11 
Coulomb Range Separation                    ... NOT USED
Exchange Range Separation                   ... NOT USED
Multipole approximations                    ... NOT USED
Finite Nucleus Model                        ... NOT USED
CABS basis                                  ... NOT available
Auxiliary Coulomb fitting basis             ... AVAILABLE
   # of basis functions in Aux-J            ...    349
   # of shells in Aux-J                     ...    111
   Maximum angular momentum in Aux-J        ...      4
Auxiliary J/K fitting basis                 ... NOT available
Auxiliary Correlation fitting basis         ... NOT available
Auxiliary 'external' fitting basis          ... NOT available

Checking pre-screening integrals            ... done (  0.0 sec) Dimension = 72
Check shell pair data                       ... done (  0.0 sec)
Shell pair information
Shell pair cut-off parameter TPreSel        ...   1.0e-11
Total number of shell pairs                 ...      2628
Shell pairs after pre-screening             ...      2383
Total number of primitive shell pairs       ...     11533
Primitive shell pairs kept                  ...      7170
          la=0 lb=0:    506 shell pairs
          la=1 lb=0:    750 shell pairs
          la=1 lb=1:    291 shell pairs
          la=2 lb=0:    437 shell pairs
          la=2 lb=1:    308 shell pairs
          la=2 lb=2:     91 shell pairs

Calculating one electron integrals          ... done (  0.0 sec)
Calculating RI/J V-Matrix + Cholesky decomp.... done (  0.0 sec)
Calculating Nuclear repulsion               ... done (  0.0 sec) ENN=    556.854911754661 Eh

Diagonalization of the overlap matrix:
Smallest eigenvalue                        ... 3.318e-04
Time for diagonalization                   ...    0.002 sec
Threshold for overlap eigenvalues          ... 1.000e-07
Number of eigenvalues below threshold      ... 0
Time for construction of square roots      ...    0.001 sec
Total time needed                          ...    0.003 sec

-------------------
DFT GRID GENERATION
-------------------

General Integration Accuracy     IntAcc      ... 4.388
Radial Grid Type                 RadialGrid  ... OptM3 with GC (2021)
Angular Grid (max. ang.)         AngularGrid ... 4 (Lebedev-302)
Angular grid pruning method      GridPruning ... 4 (adaptive)
Weight generation scheme         WeightScheme... mBecke (2022)
Basis function cutoff            BFCut       ... 1.0000e-10
Integration weight cutoff        WCut        ... 1.0000e-14
Partially contracted basis set               ... off
Rotationally invariant grid construction     ... off
Angular grids for H and He will be reduced by one unit
Diffuse basis detected: some atoms will have their outermost
                        angular grid increased by 1.

Total number of grid points                  ...    46944
Total number of batches                      ...      737
Average number of points per batch           ...       63
Average number of grid points per atom       ...     6706
Initializing property integral containers    ... done (  0.0 sec)

SHARK setup successfully completed in   0.3 seconds

Maximum memory used throughout the entire STARTUP-calculation: 23.9 MB
-------------------------------------------------------------------------------
                                 ORCA GUESS
                   Start orbitals & Density for SCF / CASSCF
-------------------------------------------------------------------------------

------------
SCF SETTINGS
------------
Hamiltonian:
 Density Functional     Method          .... DFT(GTOs)
  Functional kind                       .... Exchange
  Functional name                       .... Re-regularized SCAN exchange by Furness et al
  Functional family                     .... MGGA
  Functional refs                              
    [ 0] J. W. Furness, A. D. Kaplan, J. Ning, J. P. Perdew, and J. Sun.,  J. Phys. Chem. Lett. 11, 8208-8215 (2020), doi: 10.1021/acs.jpclett.0c02405
    [ 1] J. W. Furness, A. D. Kaplan, J. Ning, J. P. Perdew, and J. Sun.,  J. Phys. Chem. Lett. 11, 9248-9248 (2020), doi: 10.1021/acs.jpclett.0c03077
  Functional external parameters        .... 6
    Parameter  0 _c1        =  6.670000e-01 : c1 parameter        
    Parameter  1 _c2        =  8.000000e-01 : c2 parameter        
    Parameter  2 _d         =  1.240000e+00 : d parameter         
    Parameter  3 _k1        =  6.500000e-02 : k1 parameter        
    Parameter  4 _eta       =  1.000000e-03 : eta parameter       
    Parameter  5 _dp2       =  3.610000e-01 : dp2 parameter       
  Functional kind                       .... Correlation
  Functional name                       .... Re-regularized SCAN correlation by Furness et al
  Functional family                     .... MGGA
  Functional refs                              
    [ 0] J. W. Furness, A. D. Kaplan, J. Ning, J. P. Perdew, and J. Sun.,  J. Phys. Chem. Lett. 11, 8208-8215 (2020), doi: 10.1021/acs.jpclett.0c02405
    [ 1] J. W. Furness, A. D. Kaplan, J. Ning, J. P. Perdew, and J. Sun.,  J. Phys. Chem. Lett. 11, 9248-9248 (2020), doi: 10.1021/acs.jpclett.0c03077
  Functional external parameters        .... 1
    Parameter  0 _eta       =  1.000000e-03 : Regularization parameter
 Gradients option       PostSCFGGA      .... off
 RI-approximation to the Coulomb term is turned on
   Number of AuxJ basis functions       .... 349


General Settings:
 Integral files         IntName         .... sp
 Hartree-Fock type      HFTyp           .... RHF
 Total Charge           Charge          ....    0
 Multiplicity           Mult            ....    1
 Number of Electrons    NEL             ....   80
 Basis Dimension        Dim             ....  172
 Nuclear Repulsion      ENuc            ....    556.8549117547 Eh

Convergence Acceleration:
 AO-DIIS                CNVDIIS         .... on
   Start iteration      DIISMaxIt       ....    12
   Startup error        DIISStart       ....  0.200000
   # of expansion vecs  DIISMaxEq       ....     5
   Bias factor          DIISBfac        ....   1.050
   Max. coefficient     DIISMaxC        ....  10.000
 MO-DIIS                CNVKDIIS        .... off
 Trust-Rad. Augm. Hess. CNVTRAH         .... auto
   Auto Start mean grad. ratio tolernc. ....  1.125000
   Auto Start start iteration           ....     1
   Auto Start num. interpolation iter.  ....    10
   Max. Number of Micro iterations      ....    24
   Max. Number of Macro iterations      .... Maxiter - #DIIS iter
   Number of Davidson start vectors     ....     2
   Converg. threshold    (grad. norm)   ....   3.330e-04
   Grad. Scal. Fac. for Micro threshold ....   0.100
   Minimum threshold for Micro iter.    ....   1.000e-02
   NR start threshold (gradient norm)   ....   1.000e-04
   Initial trust radius                 ....   0.400
   Minimum AH scaling param. (alpha)    ....   1.000
   Maximum AH scaling param. (alpha)    .... 1000.000
   Quad. conv. algorithm                .... NR
   White noise on init. David. guess    .... on
   Maximum white noise                  ....   0.010
   Pseudo random numbers                .... off
   Inactive MOs                         .... canonical
   Orbital update algorithm             .... Taylor
   Preconditioner                       .... Diag
   Full preconditioner red. dimension   ....   250
   COSX micro iterations for RIJONX calc.... off
 SOSCF                  CNVSOSCF        .... on
   Start iteration      SOSCFMaxIt      ....   150
   Startup grad/error   SOSCFStart      ....  0.003300
   Hessian update       SOSCFHessUp     .... L-BFGS
 Level Shifting         CNVShift        .... on
   Level shift para.    LevelShift      ....    0.2500
   Turn off err/grad.   ShiftErr        ....    0.0010
 Zerner damping         CNVZerner       .... off
 Static damping         CNVDamp         .... on
   Fraction old density DampFac         ....    0.7000
   Max. Damping (<1)    DampMax         ....    0.9800
   Min. Damping (>=0)   DampMin         ....    0.0000
   Turn off err/grad.   DampErr         ....    0.1000

SCF Procedure:
 Maximum # iterations   MaxIter         ....   125
 SCF integral mode      SCFMode         .... Direct
   Integral package                     .... SHARK and LIBINT hybrid scheme
 Reset frequency        DirectResetFreq ....    20
 Integral Threshold     Thresh          ....  1.000e-10 Eh
 Primitive CutOff       TCut            ....  1.000e-11 Eh

Convergence Tolerance:
 Convergence Check Mode ConvCheckMode   .... Total+1el-Energy
 Convergence forced     ConvForced      .... 0
 Energy Change          TolE            ....  1.000e-06 Eh
 1-El. energy change                    ....  1.000e-03 Eh
 Orbital Gradient       TolG            ....  3.330e-04
 Orbital Rotation angle TolX            ....  3.330e-04
 DIIS Error             TolErr          ....  1.000e-06

---------------------
INITIAL GUESS: MOREAD
---------------------
Guess MOs are being read from file: sp.ges
Input Geometry matches current geometry (good)
Atom 0: N(Shells)= 9 and 6 - projection required
Input basis set needs projection
NBasis(read)= 110
NBasis(calc)= 172
Basis set overlap was calculated
Using GuessMode=FMatrix for the initial guess
C*T matrix was formed
Effective Fockian was calculated
Effective Fockian was diagonalized
Initial density was built
                      ------------------
                      INITIAL GUESS DONE (   0.0 sec)
                      ------------------
             **** ENERGY FILE WAS UPDATED (sp.en.tmp) ****
Finished Guess after   0.0 sec
Maximum memory used throughout the entire GUESS-calculation: 12.3 MB

-------------------------------------------------------------------------------------------
                                      ORCA LEAN-SCF
                              memory conserving SCF solver
-------------------------------------------------------------------------------------------

----------------------------------------D-I-I-S--------------------------------------------
Iteration    Energy (Eh)           Delta-E    RMSDP     MaxDP     DIISErr   Damp  Time(sec)
-------------------------------------------------------------------------------------------
               ***  Starting incremental Fock matrix formation  ***
    1    -1623.5046371641917631     0.00e+00  5.42e-03  2.73e-01  6.37e-01  0.700   0.6
    2    -1623.5611877390772406    -5.66e-02  4.50e-03  2.06e-01  4.47e-01  0.700   0.6
    3    -1623.6011021459910353    -3.99e-02  3.31e-03  1.45e-01  3.13e-01  0.700   0.6
    4    -1623.6290961970632907    -2.80e-02  2.37e-03  1.02e-01  2.20e-01  0.700   0.6
                               ***Turning on AO-DIIS***
    5    -1623.6487187358331994    -1.96e-02  1.71e-03  7.22e-02  1.54e-01  0.700   0.6
    6    -1623.6624677668439745    -1.37e-02  1.21e-03  5.07e-02  1.08e-01  0.700   0.5
    7    -1623.6721026041684581    -9.63e-03  8.49e-04  3.54e-02  7.53e-02  0.700   0.5
    8    -1623.6788521517285062    -6.75e-03  1.99e-03  8.26e-02  5.27e-02  0.000   0.5
                              *** Initializing SOSCF ***
---------------------------------------S-O-S-C-F--------------------------------------
Iteration    Energy (Eh)           Delta-E    RMSDP     MaxDP     MaxGrad    Time(sec)
--------------------------------------------------------------------------------------
    9    -1623.6946154316358388    -1.58e-02  1.04e-05  2.55e-04  1.98e-04     0.6
               *** Restarting incremental Fock matrix formation ***
   10    -1623.6946154754220970    -4.38e-08  1.16e-05  3.06e-04  1.25e-04     0.6
   11    -1623.6946147289302189     7.46e-07  8.68e-06  1.94e-04  3.36e-04     0.5
                 **** Energy Check signals convergence ****

               *****************************************************
               *                     SUCCESS                       *
               *           SCF CONVERGED AFTER  11 CYCLES          *
               *****************************************************

             **** ENERGY FILE WAS UPDATED (sp.en.tmp) ****

----------------
TOTAL SCF ENERGY
----------------

Total Energy       :      -1623.69461472893022 Eh          -44182.97669 eV

Components:
Nuclear Repulsion  :        556.85491175466063 Eh           15152.79250 eV
Electronic Energy  :      -2180.54952648359085 Eh          -59335.76919 eV
One Electron Energy:      -3346.17910099393657 Eh          -91054.16244 eV
Two Electron Energy:       1165.62957451034549 Eh           31718.39325 eV

Virial components:
Potential Energy   :      -3243.59102663316480 Eh          -88262.59902 eV
Kinetic Energy     :       1619.89641190423481 Eh           44079.62233 eV
Virial Ratio       :          2.00234471957391

DFT components:
N(Alpha)           :       40.000006849949 electrons
N(Beta)            :       40.000006849949 electrons
N(Total)           :       80.000013699899 electrons
E(X)               :     -110.997584125766 Eh       
E(C)               :       -3.002721976047 Eh       
E(XC)              :     -114.000306101813 Eh       

---------------
SCF CONVERGENCE
---------------

  Last Energy change         ...   -7.4649e-07  Tolerance :   1.0000e-06
  Last MAX-Density change    ...    1.9376e-04  Tolerance :   1.0000e-05
  Last RMS-Density change    ...    8.6830e-06  Tolerance :   1.0000e-06
  Last DIIS Error            ...    1.9760e-04  Tolerance :   1.0000e-06
  Last Orbital Gradient      ...    3.3618e-04  Tolerance :   3.3300e-04
  Last Orbital Rotation      ...    2.2481e-04  Tolerance :   3.3300e-04


----------------
ORBITAL ENERGIES
----------------

  NO   OCC          E(Eh)            E(eV) 
   0   2.0000    -101.267426     -2755.6267 
   1   2.0000    -101.266039     -2755.5890 
   2   2.0000    -101.266006     -2755.5881 
   3   2.0000     -19.026696      -517.7427 
   4   2.0000     -19.026631      -517.7410 
   5   2.0000     -14.432056      -392.7162 
   6   2.0000     -10.279755      -279.7264 
   7   2.0000      -9.422898      -256.4101 
   8   2.0000      -9.421769      -256.3794 
   9   2.0000      -9.421734      -256.3784 
  10   2.0000      -7.170244      -195.1123 
  11   2.0000      -7.169142      -195.0823 
  12   2.0000      -7.169106      -195.0813 
  13   2.0000      -7.158569      -194.7946 
  14   2.0000      -7.158288      -194.7869 
  15   2.0000      -7.157367      -194.7619 
  16   2.0000      -7.157332      -194.7609 
  17   2.0000      -7.157114      -194.7550 
  18   2.0000      -7.157077      -194.7540 
  19   2.0000      -1.260164       -34.2908 
  20   2.0000      -1.088404       -29.6170 
  21   2.0000      -0.950555       -25.8659 
  22   2.0000      -0.835406       -22.7326 
  23   2.0000      -0.835033       -22.7224 
  24   2.0000      -0.738336       -20.0912 
  25   2.0000      -0.589978       -16.0541 
  26   2.0000      -0.560643       -15.2559 
  27   2.0000      -0.555531       -15.1168 
  28   2.0000      -0.524974       -14.2853 
  29   2.0000      -0.482020       -13.1164 
  30   2.0000      -0.474884       -12.9223 
  31   2.0000      -0.369217       -10.0469 
  32   2.0000      -0.360659        -9.8140 
  33   2.0000      -0.350953        -9.5499 
  34   2.0000      -0.337455        -9.1826 
  35   2.0000      -0.329526        -8.9669 
  36   2.0000      -0.324690        -8.8353 
  37   2.0000      -0.307079        -8.3560 
  38   2.0000      -0.304326        -8.2811 
  39   2.0000      -0.287260        -7.8167 
  40   0.0000      -0.135387        -3.6841 
  41   0.0000      -0.087030        -2.3682 
  42   0.0000      -0.035175        -0.9572 
  43   0.0000      -0.023871        -0.6496 
  44   0.0000       0.010411         0.2833 
  45   0.0000       0.109019         2.9666 
  46   0.0000       0.174084         4.7371 
  47   0.0000       0.182053         4.9539 
  48   0.0000       0.194948         5.3048 
  49   0.0000       0.218331         5.9411 
  50   0.0000       0.230523         6.2728 
*Only the first 10 virtual orbitals were printed.

                    ********************************
                    * MULLIKEN POPULATION ANALYSIS *
                    ********************************

-----------------------
MULLIKEN ATOMIC CHARGES
-----------------------
   0 C :    0.064257
   1 N :    0.197032
   2 O :   -0.129086
   3 O :   -0.129103
   4 Cl:    0.007222
   5 Cl:    0.007393
   6 Cl:   -0.017716
Sum of atomic charges:    0.0000000

--------------------------------
MULLIKEN REDUCED ORBITAL CHARGES
--------------------------------
  0 C s       :     3.198509  s :     3.198509
      pz      :     0.859464  p :     2.659263
      px      :     0.940891
      py      :     0.858908
      dz2     :     0.019266  d :     0.077971
      dxz     :     0.010540
      dyz     :     0.016190
      dx2y2   :     0.020516
      dxy     :     0.011458

  1 N s       :     3.228457  s :     3.228457
      pz      :     1.093737  p :     2.980852
      px      :     1.020660
      py      :     0.866455
      dz2     :     0.026914  d :     0.593658
      dxz     :     0.016217
      dyz     :     0.159856
      dx2y2   :     0.233100
      dxy     :     0.157571

  2 O s       :     3.877704  s :     3.877704
      pz      :     1.361909  p :     4.210606
      px      :     1.618628
      py      :     1.230069
      dz2     :     0.003361  d :     0.040776
      dxz     :     0.002293
      dyz     :     0.019080
      dx2y2   :     0.000256
      dxy     :     0.015786

  3 O s       :     3.877741  s :     3.877741
      pz      :     1.361931  p :     4.210602
      px      :     1.616956
      py      :     1.231716
      dz2     :     0.003359  d :     0.040760
      dxz     :     0.002328
      dyz     :     0.019021
      dx2y2   :     0.000316
      dxy     :     0.015737

  4 Cls       :     5.954046  s :     5.954046
      pz      :     3.788195  p :    10.989506
      px      :     3.812286
      py      :     3.389025
      dz2     :     0.008402  d :     0.049226
      dxz     :     0.003778
      dyz     :     0.011797
      dx2y2   :     0.012227
      dxy     :     0.013022

  5 Cls       :     5.954012  s :     5.954012
      pz      :     3.788850  p :    10.989351
      px      :     3.810382
      py      :     3.390118
      dz2     :     0.008400  d :     0.049244
      dxz     :     0.003803
      dyz     :     0.011761
      dx2y2   :     0.012192
      dxy     :     0.013089

  6 Cls       :     5.962195  s :     5.962195
      pz      :     3.172240  p :    11.009036
      px      :     3.905841
      py      :     3.930954
      dz2     :     0.021204  d :     0.046485
      dxz     :     0.010147
      dyz     :     0.011878
      dx2y2   :     0.001795
      dxy     :     0.001461


------------------------
MULLIKEN OVERLAP CHARGES
------------------------
B(  0-C ,  1-N ) :   0.4083 B(  0-C ,  2-O ) :  -0.0914 B(  0-C ,  3-O ) :  -0.0913 
B(  0-C ,  4-Cl) :   0.7222 B(  0-C ,  5-Cl) :   0.7225 B(  0-C ,  6-Cl) :   0.6319 
B(  1-N ,  2-O ) :   1.1485 B(  1-N ,  3-O ) :   1.1485 B(  1-N ,  4-Cl) :  -0.0840 
B(  1-N ,  5-Cl) :  -0.0840 B(  1-N ,  6-Cl) :  -0.0686 B(  2-O ,  3-O ) :  -0.1257 
B(  2-O ,  5-Cl) :  -0.0791 B(  3-O ,  4-Cl) :  -0.0791 B(  4-Cl,  5-Cl) :  -0.1645 
B(  4-Cl,  6-Cl) :  -0.1643 B(  5-Cl,  6-Cl) :  -0.1643 


                     *******************************
                     * LOEWDIN POPULATION ANALYSIS *
                     *******************************

----------------------
LOEWDIN ATOMIC CHARGES
----------------------
   0 C :   -0.180583
   1 N :   -0.576226
   2 O :    0.027324
   3 O :    0.027331
   4 Cl:    0.242408
   5 Cl:    0.242574
   6 Cl:    0.217173

-------------------------------
LOEWDIN REDUCED ORBITAL CHARGES
-------------------------------
  0 C s       :     2.955776  s :     2.955776
      pz      :     1.039315  p :     3.064493
      px      :     0.969503
      py      :     1.055676
      dz2     :     0.041921  d :     0.160314
      dxz     :     0.018591
      dyz     :     0.032097
      dx2y2   :     0.042928
      dxy     :     0.024776

  1 N s       :     2.962902  s :     2.962902
      pz      :     1.027411  p :     3.314437
      px      :     1.138145
      py      :     1.148881
      dz2     :     0.114375  d :     1.298887
      dxz     :     0.084062
      dyz     :     0.281370
      dx2y2   :     0.442702
      dxy     :     0.376378

  2 O s       :     3.452509  s :     3.452509
      pz      :     1.294754  p :     4.245526
      px      :     1.589190
      py      :     1.361583
      dz2     :     0.032207  d :     0.274641
      dxz     :     0.018349
      dyz     :     0.053695
      dx2y2   :     0.082029
      dxy     :     0.088361

  3 O s       :     3.452511  s :     3.452511
      pz      :     1.294792  p :     4.245514
      px      :     1.588059
      py      :     1.362662
      dz2     :     0.032206  d :     0.274645
      dxz     :     0.018538
      dyz     :     0.053533
      dx2y2   :     0.081950
      dxy     :     0.088418

  4 Cls       :     5.672763  s :     5.672763
      pz      :     3.783029  p :    10.975649
      px      :     3.762678
      py      :     3.429941
      dz2     :     0.016767  d :     0.109180
      dxz     :     0.007377
      dyz     :     0.029693
      dx2y2   :     0.029195
      dxy     :     0.026149

  5 Cls       :     5.672660  s :     5.672660
      pz      :     3.783595  p :    10.975543
      px      :     3.760987
      py      :     3.430961
      dz2     :     0.016772  d :     0.109222
      dxz     :     0.007438
      dyz     :     0.029583
      dx2y2   :     0.029088
      dxy     :     0.026342

  6 Cls       :     5.686663  s :     5.686663
      pz      :     3.226968  p :    10.992988
      px      :     3.859890
      py      :     3.906130
      dz2     :     0.057207  d :     0.103175
      dxz     :     0.019545
      dyz     :     0.021144
      dx2y2   :     0.003150
      dxy     :     0.002130


---------------------------------
LOEWDIN BOND ORDERS (THRESH 0.050000)
---------------------------------
B(  0-C ,  1-N ) :   0.9033 B(  0-C ,  2-O ) :   0.1792 B(  0-C ,  3-O ) :   0.1792 
B(  0-C ,  4-Cl) :   1.3538 B(  0-C ,  5-Cl) :   1.3541 B(  0-C ,  6-Cl) :   1.3034 
B(  1-N ,  2-O ) :   2.7094 B(  1-N ,  3-O ) :   2.7094 B(  1-N ,  4-Cl) :   0.1606 
B(  1-N ,  5-Cl) :   0.1606 B(  1-N ,  6-Cl) :   0.2155 B(  2-O ,  3-O ) :   0.5901 
B(  2-O ,  5-Cl) :   0.1004 B(  3-O ,  4-Cl) :   0.1004 B(  4-Cl,  5-Cl) :   0.1561 
B(  4-Cl,  6-Cl) :   0.1608 B(  5-Cl,  6-Cl) :   0.1608 

------------------------------------------
LOEWDIN REDUCED ORBITAL POPULATIONS PER MO
-------------------------------------------
THRESHOLD FOR PRINTING IS 0.1%%
                      0         1         2         3         4         5   
                 -101.26743 -101.26604 -101.26601 -19.02670 -19.02663 -14.43206
                   2.00000   2.00000   2.00000   2.00000   2.00000   2.00000
                  --------  --------  --------  --------  --------  --------
 1 N  s               0.0       0.0       0.0       0.0       0.0      99.4
 2 O  s               0.0       0.0       0.0      99.8       0.0       0.0
 3 O  s               0.0       0.0       0.0       0.0      99.8       0.0
 4 Cl s               0.0       0.0     100.0       0.0       0.0       0.0
 5 Cl s               0.0     100.0       0.0       0.0       0.0       0.0
 6 Cl s             100.0       0.0       0.0       0.0       0.0       0.0

                      6         7         8         9        10        11   
                 -10.27976  -9.42290  -9.42177  -9.42173  -7.17024  -7.16914
                   2.00000   2.00000   2.00000   2.00000   2.00000   2.00000
                  --------  --------  --------  --------  --------  --------
 0 C  s              99.4       0.0       0.0       0.0       0.0       0.0
 0 C  pz              0.0       0.1       0.0       0.0       0.0       0.0
 0 C  py              0.0       0.0       0.1       0.1       0.0       0.0
 1 N  dx2y2           0.2       0.0       0.0       0.0       0.0       0.0
 4 Cl s               0.0       0.0       0.0      99.8       0.0       0.0
 5 Cl s               0.0       0.0      99.8       0.0       0.0       0.0
 5 Cl pz              0.0       0.0       0.0       0.0       0.0      17.0
 5 Cl px              0.0       0.0       0.0       0.0       0.0      14.2
 5 Cl py              0.0       0.0       0.0       0.0       0.0      68.8
 6 Cl s               0.0      99.8       0.0       0.0       0.0       0.0
 6 Cl pz              0.0       0.0       0.0       0.0      98.8       0.0
 6 Cl px              0.0       0.0       0.0       0.0       1.2       0.0

                     12        13        14        15        16        17   
                  -7.16911  -7.15857  -7.15829  -7.15737  -7.15733  -7.15711
                   2.00000   2.00000   2.00000   2.00000   2.00000   2.00000
                  --------  --------  --------  --------  --------  --------
 4 Cl pz             17.0       0.0       0.0       0.0      65.5       0.0
 4 Cl px             14.0       0.0       0.0       0.0      32.4       0.0
 4 Cl py             69.0       0.0       0.0       0.0       2.1       0.0
 5 Cl pz              0.0       0.0       0.0      65.5       0.0      17.5
 5 Cl px              0.0       0.0       0.0      32.4       0.0      53.4
 5 Cl py              0.0       0.0       0.0       2.1       0.0      29.1
 6 Cl pz              0.0       1.2       0.0       0.0       0.0       0.0
 6 Cl px              0.0      98.8       0.0       0.0       0.0       0.0
 6 Cl py              0.0       0.0     100.0       0.0       0.0       0.0

                     18        19        20        21        22        23   
                  -7.15708  -1.26016  -1.08840  -0.95056  -0.83541  -0.83503
                   2.00000   2.00000   2.00000   2.00000   2.00000   2.00000
                  --------  --------  --------  --------  --------  --------
 0 C  s               0.0       2.1       0.0      30.2       0.0       0.0
 0 C  pz              0.0       0.1       0.0       0.0      22.1       0.0
 0 C  px              0.0       3.2       0.0       1.6       1.0       0.0
 0 C  py              0.0       0.0       0.8       0.0       0.0      23.2
 0 C  dz2             0.0       0.0       0.0       0.0       0.6       0.0
 0 C  dyz             0.0       0.0       0.0       0.0       0.0       0.4
 0 C  dx2y2           0.0       0.1       0.0       0.1       0.1       0.0
 0 C  dxy             0.0       0.0       0.0       0.0       0.0       0.4
 1 N  s               0.0      33.4       0.0       0.5       0.0       0.0
 1 N  pz              0.0       0.0       0.0       0.2       0.7       0.0
 1 N  px              0.0       2.5       0.0       8.2       0.0       0.0
 1 N  py              0.0       0.0      38.0       0.0       0.0       0.2
 1 N  dz2             0.0       1.3       0.0       0.1       0.4       0.0
 1 N  dxz             0.0       0.0       0.0       0.1       0.7       0.0
 1 N  dx2y2           0.0       1.1       0.0       2.3       0.0       0.0
 1 N  dxy             0.0       0.0       3.4       0.0       0.0       1.2
 2 O  s               0.0      17.6      24.4       0.7       0.0       0.2
 2 O  px              0.0       0.9       1.3       0.5       0.0       0.1
 2 O  py              0.0       6.7       2.2       0.1       0.0       0.0
 2 O  dz2             0.0       0.6       0.1       0.0       0.0       0.1
 2 O  dx2y2           0.0       1.2       0.6       0.4       0.0       0.1
 2 O  dxy             0.0       0.7       0.1       0.2       0.0       0.0
 3 O  s               0.0      17.6      24.4       0.7       0.0       0.2
 3 O  px              0.0       1.0       1.3       0.5       0.0       0.1
 3 O  py              0.0       6.7       2.1       0.1       0.0       0.0
 3 O  dz2             0.0       0.6       0.1       0.0       0.0       0.1
 3 O  dx2y2           0.0       1.2       0.6       0.4       0.0       0.1
 3 O  dxy             0.0       0.7       0.1       0.2       0.0       0.0
 4 Cl s               0.0       0.1       0.0      14.1      10.3      37.9
 4 Cl pz             17.5       0.0       0.0       0.5       0.1       0.1
 4 Cl px             53.7       0.1       0.1       0.3       0.0       0.1
 4 Cl py             28.9       0.1       0.0       2.1       0.1       0.3
 4 Cl dyz             0.0       0.0       0.0       0.3       0.0       0.0
 4 Cl dx2y2           0.0       0.0       0.0       0.2       0.0       0.0
 4 Cl dxy             0.0       0.0       0.0       0.2       0.0       0.0
 5 Cl s               0.0       0.1       0.0      14.1      13.7      34.5
 5 Cl pz              0.0       0.0       0.0       0.5       0.1       0.1
 5 Cl px              0.0       0.1       0.1       0.3       0.0       0.1
 5 Cl py              0.0       0.1       0.0       2.1       0.1       0.3
 5 Cl dyz             0.0       0.0       0.0       0.3       0.0       0.0
 5 Cl dx2y2           0.0       0.0       0.0       0.2       0.0       0.0
 5 Cl dxy             0.0       0.0       0.0       0.2       0.0       0.0
 6 Cl s               0.0       0.1       0.0      13.3      48.7       0.1
 6 Cl pz              0.0       0.2       0.0       2.8       0.5       0.0
 6 Cl py              0.0       0.0       0.0       0.0       0.0       0.1
 6 Cl dz2             0.0       0.0       0.0       0.7       0.1       0.0

                     24        25        26        27        28        29   
                  -0.73834  -0.58998  -0.56064  -0.55553  -0.52497  -0.48202
                   2.00000   2.00000   2.00000   2.00000   2.00000   2.00000
                  --------  --------  --------  --------  --------  --------
 0 C  s               3.4       7.6       0.1       3.2       0.0       0.0
 0 C  pz              0.5       0.1       4.1       0.4       0.0       0.0
 0 C  px             14.4       1.7       0.4      12.0       0.0       0.0
 0 C  py              0.0       0.0       0.0       0.0       4.3      21.1
 0 C  dz2             0.2       0.0       0.0       0.0       0.0       0.0
 0 C  dxz             0.0       0.0       0.1       0.0       0.0       0.0
 0 C  dx2y2           0.5       0.0       0.0       0.1       0.0       0.0
 0 C  dxy             0.0       0.0       0.0       0.0       0.0       0.2
 1 N  s               6.3       6.0       0.0       0.9       0.0       0.0
 1 N  pz              0.3       0.1      44.2       0.0       0.0       0.0
 1 N  px             24.3       0.7       0.3      13.5       0.0       0.0
 1 N  py              0.0       0.0       0.0       0.0      13.9       3.7
 1 N  dz2             0.2       2.4       0.0       0.2       0.0       0.0
 1 N  dx2y2           1.4       0.5       0.0       4.1       0.0       0.0
 1 N  dxy             0.0       0.0       0.0       0.0       6.9       0.4
 2 O  s               5.3       9.6       0.0       4.1       9.0       1.1
 2 O  pz              0.1       0.0      16.5       0.1       0.1       0.0
 2 O  px              3.6       1.3       0.1       0.8       9.1       0.8
 2 O  py              0.4      10.6       0.0      11.4      14.1       4.6
 2 O  dz2             0.2       0.1       0.0       0.0       0.1       0.0
 2 O  dxz             0.0       0.0       0.5       0.0       0.0       0.0
 2 O  dyz             0.0       0.0       2.0       0.0       0.0       0.0
 2 O  dx2y2           0.2       0.2       0.0       0.5       0.1       0.1
 2 O  dxy             1.9       0.1       0.0       0.1       0.2       0.1
 3 O  s               5.3       9.6       0.0       4.1       9.0       1.1
 3 O  pz              0.1       0.0      16.5       0.1       0.1       0.0
 3 O  px              3.6       1.3       0.1       0.8       9.1       0.8
 3 O  py              0.4      10.5       0.0      11.4      14.0       4.6
 3 O  dz2             0.2       0.1       0.0       0.0       0.1       0.0
 3 O  dxz             0.0       0.0       0.5       0.0       0.0       0.0
 3 O  dyz             0.0       0.0       2.0       0.0       0.0       0.0
 3 O  dx2y2           0.2       0.2       0.0       0.5       0.1       0.1
 3 O  dxy             1.9       0.1       0.0       0.1       0.2       0.1
 4 Cl s               6.7       5.2       1.0       2.5       1.0       3.8
 4 Cl pz              0.0       1.4       0.0       1.6       0.9       7.8
 4 Cl px              0.6       0.8       0.5       0.1       0.7       5.4
 4 Cl py              0.2       4.5       1.6       5.7       1.6      10.2
 4 Cl dxz             0.0       0.0       0.0       0.0       0.0       0.1
 4 Cl dyz             0.0       0.3       0.0       0.3       0.1       0.3
 4 Cl dx2y2           0.0       0.2       0.0       0.5       0.0       0.0
 4 Cl dxy             0.2       0.1       0.1       0.0       0.1       0.2
 5 Cl s               6.7       5.2       1.0       2.5       1.0       3.9
 5 Cl pz              0.0       1.4       0.0       1.6       0.9       7.7
 5 Cl px              0.6       0.8       0.5       0.1       0.8       5.4
 5 Cl py              0.2       4.5       1.6       5.7       1.6      10.2
 5 Cl dxz             0.0       0.0       0.0       0.0       0.0       0.1
 5 Cl dyz             0.0       0.3       0.0       0.3       0.1       0.3
 5 Cl dx2y2           0.0       0.2       0.0       0.5       0.0       0.0
 5 Cl dxy             0.2       0.1       0.1       0.0       0.1       0.2
 6 Cl s               8.5       4.6       2.1       2.8       0.0       0.0
 6 Cl pz              0.6       6.6       2.5       6.1       0.0       0.0
 6 Cl px              0.4       0.0       1.2       0.5       0.0       0.0
 6 Cl py              0.0       0.0       0.0       0.0       0.6       5.0
 6 Cl dz2             0.1       0.7       0.0       0.5       0.0       0.0
 6 Cl dxz             0.2       0.0       0.2       0.1       0.0       0.0
 6 Cl dyz             0.0       0.0       0.0       0.0       0.1       0.6

                     30        31        32        33        34        35   
                  -0.47488  -0.36922  -0.36066  -0.35095  -0.33745  -0.32953
                   2.00000   2.00000   2.00000   2.00000   2.00000   2.00000
                  --------  --------  --------  --------  --------  --------
 0 C  s               0.0       0.6       0.0       0.0       0.0       0.0
 0 C  pz             21.4       0.5       0.0       1.2       0.0       0.0
 0 C  px              0.4       5.8       0.0       0.8       0.0       0.0
 0 C  py              0.0       0.0       0.7       0.0       2.2       0.1
 0 C  dz2             0.1       0.4       0.0       0.3       0.0       0.0
 0 C  dxz             0.2       0.1       0.0       0.1       0.0       0.0
 0 C  dyz             0.0       0.0       0.7       0.0       0.3       0.1
 0 C  dx2y2           0.0       0.2       0.0       0.8       0.0       0.0
 0 C  dxy             0.0       0.0       0.1       0.0       0.5       0.0
 1 N  s               0.0       0.8       0.0       0.2       0.0       0.0
 1 N  pz              5.2       0.1       0.0       0.0       0.0       0.0
 1 N  px              0.0       1.8       0.0       1.2       0.0       0.0
 1 N  py              0.0       0.0       0.3       0.0       0.8       0.1
 1 N  dz2             0.1       0.1       0.0       0.4       0.0       0.0
 1 N  dxz             2.1       0.3       0.0       0.2       0.0       0.0
 1 N  dyz             0.0       0.0       3.6       0.0       0.0      10.3
 1 N  dx2y2           0.0       4.2       0.0       0.0       0.0       0.0
 1 N  dxy             0.0       0.0       1.3       0.0       2.7       0.1
 2 O  s               0.0       0.0       0.0       0.1       0.1       0.0
 2 O  pz              4.2       0.4       5.4       0.2       0.0      37.2
 2 O  px              0.1       8.5       1.3       0.1       6.9       0.1
 2 O  py              0.0       0.7       0.8       0.3       3.9       0.6
 2 O  dxz             0.0       0.0       0.1       0.0       0.0       0.0
 2 O  dyz             0.2       0.0       0.1       0.0       0.0       0.3
 2 O  dx2y2           0.0       0.1       0.0       0.1       0.0       0.0
 2 O  dxy             0.0       0.1       0.0       0.3       0.3       0.0
 3 O  s               0.0       0.0       0.0       0.1       0.1       0.0
 3 O  pz              4.2       0.4       5.4       0.2       0.0      37.2
 3 O  px              0.1       8.5       1.3       0.1       6.9       0.1
 3 O  py              0.0       0.8       0.8       0.3       4.0       0.6
 3 O  dxz             0.0       0.0       0.1       0.0       0.0       0.0
 3 O  dyz             0.2       0.0       0.1       0.0       0.0       0.3
 3 O  dx2y2           0.0       0.1       0.0       0.1       0.0       0.0
 3 O  dxy             0.0       0.1       0.0       0.3       0.3       0.0
 4 Cl s               1.0       0.0       0.0       0.0       0.1       0.0
 4 Cl pz              0.7       7.4       9.2      14.7       0.1       1.8
 4 Cl px              0.6       7.7      12.9      22.6       9.8       1.4
 4 Cl py             10.1       0.0       1.6       6.2      16.9       0.2
 4 Cl dz2             0.3       0.0       0.1       0.0       0.0       0.0
 4 Cl dx2y2           0.3       0.0       0.0       0.0       0.0       0.0
 4 Cl dxy             0.1       0.1       0.0       0.1       0.0       0.0
 5 Cl s               1.0       0.0       0.0       0.0       0.1       0.0
 5 Cl pz              0.7       7.4       9.2      14.7       0.1       1.9
 5 Cl px              0.6       7.7      12.9      22.6       9.7       1.4
 5 Cl py             10.0       0.0       1.6       6.3      17.0       0.2
 5 Cl dz2             0.3       0.0       0.1       0.0       0.0       0.0
 5 Cl dx2y2           0.3       0.0       0.0       0.0       0.0       0.0
 5 Cl dxy             0.1       0.1       0.0       0.1       0.0       0.0
 6 Cl s               4.3       0.0       0.0       0.0       0.0       0.0
 6 Cl pz             30.3       0.5       0.0       2.3       0.0       0.0
 6 Cl px              0.2      34.0       0.0       2.9       0.0       0.0
 6 Cl py              0.0       0.0      29.9       0.0      17.1       5.5
 6 Cl dz2             0.6       0.0       0.0       0.0       0.0       0.0
 6 Cl dxz             0.0       0.2       0.0       0.0       0.0       0.0
 6 Cl dyz             0.0       0.0       0.1       0.0       0.0       0.0

                     36        37        38        39        40        41   
                  -0.32469  -0.30708  -0.30433  -0.28726  -0.13539  -0.08703
                   2.00000   2.00000   2.00000   2.00000   0.00000   0.00000
                  --------  --------  --------  --------  --------  --------
 0 C  s               0.0       0.0       1.1       0.0       0.1      18.1
 0 C  pz              0.9       0.0       0.4       0.0       2.4       0.9
 0 C  px              0.0       0.0       7.3       0.0       0.1       7.1
 0 C  dz2             0.4       0.0       0.1       0.0       0.4       0.1
 0 C  dxz             0.2       0.0       0.1       0.0       0.5       0.1
 0 C  dx2y2           0.0       0.0       0.2       0.0       0.0       0.2
 1 N  s               0.0       0.0       0.7       0.0       0.0       0.2
 1 N  pz              0.5       0.0       0.1       0.0      28.2       0.3
 1 N  px              0.1       0.0       4.1       0.0       0.3       0.5
 1 N  py              0.0       0.0       0.0       0.3       0.0       0.0
 1 N  dz2             0.2       0.0       0.3       0.0       0.0       0.8
 1 N  dxz             0.6       0.0       0.0       0.0       4.9       0.1
 1 N  dx2y2           0.0       0.0       8.1       0.0       0.1       0.3
 1 N  dxy             0.0       0.1       0.0       2.7       0.0       0.0
 2 O  s               0.0       0.0       0.4       0.1       0.0       0.1
 2 O  pz              0.4       0.0       0.1       0.1      22.2       0.2
 2 O  px              0.0       0.8      24.2      18.9       0.2       0.4
 2 O  py              0.0       0.4       0.4      10.7       0.0       0.0
 2 O  dz2             0.0       0.0       0.1       0.0       0.0       0.0
 2 O  dxz             0.1       0.0       0.0       0.0       1.0       0.0
 2 O  dyz             0.0       0.0       0.0       0.0       2.6       0.0
 2 O  dx2y2           0.0       0.0       0.0       0.5       0.0       0.0
 2 O  dxy             0.0       0.0       0.2       0.0       0.0       0.0
 3 O  s               0.0       0.0       0.4       0.1       0.0       0.1
 3 O  pz              0.4       0.0       0.1       0.1      22.2       0.2
 3 O  px              0.0       0.8      24.2      18.8       0.2       0.4
 3 O  py              0.0       0.4       0.5      10.8       0.0       0.0
 3 O  dz2             0.0       0.0       0.1       0.0       0.0       0.0
 3 O  dxz             0.1       0.0       0.0       0.0       1.0       0.0
 3 O  dyz             0.0       0.0       0.0       0.0       2.6       0.0
 3 O  dx2y2           0.0       0.0       0.0       0.5       0.0       0.0
 3 O  dxy             0.0       0.0       0.2       0.0       0.0       0.0
 4 Cl s               0.0       0.0       0.0       0.0       0.1       0.9
 4 Cl pz             17.2      24.7       0.8       0.2       0.1       3.2
 4 Cl px              6.3       0.0       4.1      13.9       0.3       0.6
 4 Cl py              0.0       5.3       0.9       3.8       0.7       9.4
 4 Cl dz2             0.1       0.1       0.0       0.0       0.0       0.3
 4 Cl dxz             0.0       0.0       0.0       0.0       0.0       0.2
 4 Cl dyz             0.0       0.0       0.0       0.0       0.0       4.4
 4 Cl dx2y2           0.0       0.0       0.0       0.2       0.1       2.3
 4 Cl dxy             0.0       0.0       0.2       0.0       0.2       0.6
 5 Cl s               0.0       0.0       0.0       0.0       0.1       0.9
 5 Cl pz             17.1      24.7       0.8       0.2       0.1       3.2
 5 Cl px              6.2       0.0       4.1      13.8       0.3       0.6
 5 Cl py              0.0       5.3       0.9       3.9       0.7       9.4
 5 Cl dz2             0.1       0.1       0.0       0.0       0.0       0.3
 5 Cl dxz             0.0       0.0       0.0       0.0       0.0       0.3
 5 Cl dyz             0.0       0.0       0.0       0.0       0.0       4.4
 5 Cl dx2y2           0.0       0.0       0.0       0.2       0.1       2.3
 5 Cl dxy             0.0       0.0       0.2       0.0       0.2       0.7
 6 Cl s               0.1       0.0       0.0       0.0       0.5       1.1
 6 Cl pz              7.7       0.0       1.3       0.0       4.9      15.2
 6 Cl px             41.0       0.0      12.7       0.0       1.2       0.1
 6 Cl py              0.0      37.1       0.0       0.0       0.0       0.0
 6 Cl dz2             0.0       0.0       0.0       0.0       0.7       9.0
 6 Cl dxz             0.0       0.0       0.2       0.0       0.5       0.1
 6 Cl dyz             0.0       0.1       0.0       0.0       0.0       0.0

                     42        43        44        45        46        47   
                  -0.03518  -0.02387   0.01041   0.10902   0.17408   0.18205
                   0.00000   0.00000   0.00000   0.00000   0.00000   0.00000
                  --------  --------  --------  --------  --------  --------
 0 C  s               0.0       0.1       4.0      38.9       4.2       0.8
 0 C  pz              0.0      30.9       1.0       0.4      13.2      22.0
 0 C  px              0.0       1.7      23.1       0.7      17.1       9.6
 0 C  py             33.3       0.0       0.0       0.0       0.0       0.0
 0 C  dz2             0.0       1.0       0.7       0.0       0.3       0.3
 0 C  dxz             0.0       0.0       0.2       0.0       0.1       0.0
 0 C  dyz             1.1       0.0       0.0       0.0       0.0       0.0
 0 C  dx2y2           0.0       0.3       2.6       0.0       0.0       0.2
 0 C  dxy             1.0       0.0       0.0       0.0       0.0       0.0
 1 N  s               0.0       0.0      11.0       8.4       1.9       2.0
 1 N  pz              0.0       6.4       0.2       0.5       4.0       6.9
 1 N  px              0.0       0.2      14.3       3.6       3.2       4.3
 1 N  py              0.6       0.0       0.0       0.0       0.0       0.0
 1 N  dz2             0.0       0.2       5.4       7.5       5.8       1.0
 1 N  dxz             0.0       0.6       0.3       0.5       0.3       0.3
 1 N  dyz             0.5       0.0       0.0       0.0       0.0       0.0
 1 N  dx2y2           0.0       0.1       0.2       0.3       0.3       0.1
 1 N  dxy             1.6       0.0       0.0       0.0       0.0       0.0
 2 O  s               0.1       0.0       1.2       2.7       1.3       1.5
 2 O  pz              0.2       2.5       0.0       0.0       0.8       1.6
 2 O  px              0.7       0.1       2.9       0.2       1.8       1.2
 2 O  py              0.1       0.0       0.8       1.3       1.8       0.6
 2 O  dz2             0.0       0.0       0.0       1.8       0.7       0.8
 2 O  dxz             0.2       0.1       0.1       0.0       0.3       0.6
 2 O  dyz             0.0       0.6       0.1       0.1       0.0       0.2
 2 O  dx2y2           0.2       0.1       0.1       0.1       0.5       0.0
 2 O  dxy             0.2       0.0       0.6       1.8       0.1       0.1
 3 O  s               0.1       0.0       1.2       2.7       1.3       1.5
 3 O  pz              0.2       2.5       0.0       0.0       0.8       1.6
 3 O  px              0.7       0.1       2.9       0.2       1.8       1.2
 3 O  py              0.1       0.0       0.8       1.3       1.8       0.6
 3 O  dz2             0.0       0.0       0.0       1.8       0.7       0.8
 3 O  dxz             0.2       0.1       0.1       0.0       0.3       0.6
 3 O  dyz             0.0       0.6       0.1       0.1       0.0       0.2
 3 O  dx2y2           0.2       0.1       0.1       0.1       0.5       0.0
 3 O  dxy             0.2       0.0       0.6       1.8       0.1       0.1
 4 Cl s               2.3       0.9       0.0       4.9       0.8       2.0
 4 Cl pz              4.0       0.0       0.1       0.4       1.3       2.1
 4 Cl px              3.7       0.6       2.2       0.2       3.6       1.3
 4 Cl py              7.4       5.9       0.1       0.6       0.1       0.2
 4 Cl dz2             0.0       2.2       0.1       0.2       0.3       0.1
 4 Cl dxz             2.2       0.2       1.5       0.0       0.1       3.5
 4 Cl dyz             3.4       0.0       0.8       1.0       1.3       3.4
 4 Cl dx2y2           0.3       2.7       0.7       0.2       0.2       0.1
 4 Cl dxy             2.9       1.6       3.9       0.0       1.9       0.5
 5 Cl s               2.3       0.9       0.0       4.9       0.8       2.0
 5 Cl pz              4.0       0.0       0.1       0.4       1.3       2.1
 5 Cl px              3.7       0.6       2.2       0.2       3.6       1.3
 5 Cl py              7.4       5.9       0.1       0.6       0.1       0.2
 5 Cl dz2             0.0       2.2       0.1       0.2       0.3       0.1
 5 Cl dxz             2.2       0.2       1.5       0.0       0.1       3.5
 5 Cl dyz             3.4       0.0       0.8       1.0       1.3       3.4
 5 Cl dx2y2           0.3       2.7       0.8       0.2       0.2       0.1
 5 Cl dxy             3.0       1.7       3.9       0.0       1.9       0.5
 6 Cl s               0.0       2.1       0.1       5.5       3.8       1.8
 6 Cl pz              0.0      12.7       0.0       1.7       2.0       2.3
 6 Cl px              0.0       0.3       1.0       0.2       2.0       2.9
 6 Cl py              1.7       0.0       0.0       0.0       0.0       0.0
 6 Cl dz2             0.0       7.0       0.0       0.5       4.7       5.2
 6 Cl dxz             0.0       0.9       4.9       0.2       3.1       0.6
 6 Cl dyz             4.0       0.0       0.0       0.0       0.0       0.0
 6 Cl dx2y2           0.0       0.1       0.6       0.0       0.0       0.0
 6 Cl dxy             0.5       0.0       0.0       0.0       0.0       0.0

                     48        49        50        51        52        53   
                   0.19495   0.21833   0.23052   0.24103   0.26041   0.26367
                   0.00000   0.00000   0.00000   0.00000   0.00000   0.00000
                  --------  --------  --------  --------  --------  --------
 0 C  s               0.0       3.5       0.0       0.3       0.1       0.0
 0 C  pz              0.0       0.1       0.0       0.2       0.7       0.0
 0 C  px              0.0       9.5       0.0       2.2       0.1       0.0
 0 C  py             32.7       0.0       0.3       0.0       0.0       1.6
 0 C  dz2             0.0       0.0       0.0       0.7       1.1       0.0
 0 C  dxz             0.0       0.0       0.0       0.9       0.0       0.0
 0 C  dyz             0.8       0.0       1.0       0.0       0.0       2.1
 0 C  dx2y2           0.0       0.0       0.0       0.2       0.3       0.0
 0 C  dxy             0.0       0.0       1.8       0.0       0.0       0.3
 1 N  s               0.0      10.7       0.0       3.4       3.7       0.0
 1 N  pz              0.0       0.2       0.0       5.1       0.1       0.0
 1 N  px              0.0       4.3       0.0      10.7       2.5       0.0
 1 N  py              3.2       0.0      13.7       0.0       0.0       0.7
 1 N  dz2             0.0       0.1       0.0       1.4       2.2       0.0
 1 N  dxz             0.0       0.0       0.0       0.4       0.6       0.0
 1 N  dyz             0.2       0.0       0.0       0.0       0.0       2.7
 1 N  dx2y2           0.0       0.4       0.0       1.4       1.1       0.0
 1 N  dxy             0.3       0.0       3.1       0.0       0.0       0.1
 2 O  s               1.1       1.1       3.3       0.5       1.4       0.2
 2 O  pz              0.1       0.6       0.2       0.4       0.0       0.5
 2 O  px              0.4       2.0       2.0       1.9       0.6       0.1
 2 O  py              3.2       0.4       4.7       5.6       3.6       0.1
 2 O  dz2             0.5       0.0       0.5       1.2       2.0       0.1
 2 O  dxz             0.2       0.8       0.0       0.0       0.2       1.2
 2 O  dyz             0.1       0.3       0.0       0.1       0.0       0.1
 2 O  dx2y2           0.0       0.3       0.8       6.2       1.6       0.1
 2 O  dxy             0.7       1.2       0.5       1.1       0.1       0.2
 3 O  s               1.1       1.1       3.3       0.5       1.4       0.2
 3 O  pz              0.1       0.6       0.2       0.4       0.0       0.5
 3 O  px              0.4       2.0       2.0       1.9       0.6       0.1
 3 O  py              3.2       0.3       4.7       5.6       3.6       0.1
 3 O  dz2             0.5       0.0       0.5       1.2       2.0       0.2
 3 O  dxz             0.2       0.8       0.0       0.0       0.2       1.3
 3 O  dyz             0.1       0.3       0.0       0.1       0.0       0.1
 3 O  dx2y2           0.0       0.3       0.8       6.2       1.6       0.1
 3 O  dxy             0.7       1.2       0.5       1.2       0.1       0.2
 4 Cl s               3.1       0.1       0.0       0.0       0.8       2.6
 4 Cl pz              0.4       0.2       0.2       1.3       3.1       1.6
 4 Cl px              0.1       0.5       0.2       0.1       1.3       6.0
 4 Cl py              3.9       0.5       0.0       0.0       3.0      18.5
 4 Cl dz2             4.1       6.3       9.9       3.5       0.4       1.7
 4 Cl dxz             0.0       1.4       0.1       0.3       6.5       1.5
 4 Cl dyz             1.0       4.2       2.2       1.3       1.2       0.0
 4 Cl dx2y2           2.4       4.2       2.5       2.1       0.7       0.4
 4 Cl dxy             2.3       1.6       1.4       2.0       0.9       1.6
 5 Cl s               3.1       0.1       0.0       0.0       0.8       2.6
 5 Cl pz              0.4       0.2       0.2       1.3       3.2       1.6
 5 Cl px              0.1       0.5       0.2       0.1       1.3       6.0
 5 Cl py              3.9       0.5       0.0       0.0       3.1      18.4
 5 Cl dz2             4.1       6.3       9.8       3.5       0.4       1.7
 5 Cl dxz             0.0       1.4       0.1       0.3       6.5       1.5
 5 Cl dyz             1.0       4.2       2.2       1.3       1.2       0.0
 5 Cl dx2y2           2.3       4.2       2.5       2.1       0.7       0.4
 5 Cl dxy             2.3       1.7       1.3       2.0       0.9       1.6
 6 Cl s               0.0       1.6       0.0       0.2       2.6       0.0
 6 Cl pz              0.0       3.4       0.0       3.3      22.4       0.0
 6 Cl px              0.0       0.1       0.0       2.8       2.5       0.0
 6 Cl py              3.6       0.0       0.9       0.0       0.0       1.9
 6 Cl dz2             0.0       0.3       0.0       0.1       0.8       0.0
 6 Cl dxz             0.0       1.0       0.0       7.0       0.5       0.0
 6 Cl dyz            11.5       0.0      11.7       0.0       0.0      10.1
 6 Cl dx2y2           0.0      13.5       0.0       4.3       3.4       0.0
 6 Cl dxy             0.9       0.0      10.9       0.0       0.0       7.6

                     54        55        56        57        58        59   
                   0.26596   0.30149   0.30436   0.31216   0.31554   0.32933
                   0.00000   0.00000   0.00000   0.00000   0.00000   0.00000
                  --------  --------  --------  --------  --------  --------
 0 C  s               0.1       0.0       0.3       0.0       0.1       0.6
 0 C  pz              1.8       0.0       0.2       0.0       0.6       0.1
 0 C  px              0.2       0.0       3.6       0.0       1.3       3.1
 0 C  py              0.0       1.0       0.0       0.1       0.0       0.0
 0 C  dz2             0.0       0.0       0.2       0.0       0.2       0.0
 0 C  dxz             1.3       0.0       0.4       0.0       0.7       0.0
 0 C  dyz             0.0       0.0       0.0       0.1       0.0       0.0
 0 C  dx2y2           0.4       0.0       0.3       0.0       0.1       0.1
 0 C  dxy             0.0       1.9       0.0       0.1       0.0       0.0
 1 N  s               1.0       0.0       0.2       0.0       0.4       2.0
 1 N  pz              5.5       0.0       2.3       0.0       4.3       1.6
 1 N  px              8.4       0.0       1.2       0.0       0.0       2.0
 1 N  py              0.0       0.4       0.0       4.4       0.0       0.0
 1 N  dz2             0.5       0.0       3.5       0.0       0.1       2.1
 1 N  dxz             2.2       0.0       0.0       0.0       4.9       0.2
 1 N  dyz             0.0       1.0       0.0       2.0       0.0       0.0
 1 N  dx2y2           0.7       0.0       0.4       0.0       0.0       0.2
 1 N  dxy             0.0       2.2       0.0       0.4       0.0       0.0
 2 O  s               0.1       0.1       0.3       1.8       0.0       0.6
 2 O  pz              1.1       0.2       0.1       4.5       2.7       1.1
 2 O  px              1.1       0.9       0.4       1.9       0.5       2.9
 2 O  py              2.6       2.6       2.0       3.7       0.5       0.7
 2 O  dz2             0.1       0.7       0.6       0.1       0.0       2.8
 2 O  dxz             0.6       0.4       0.1       2.4       1.1       0.0
 2 O  dyz             0.3       0.0       0.1       1.4       0.2       0.0
 2 O  dx2y2           2.2       1.6       0.3       0.1       0.0       0.6
 2 O  dxy             1.6       0.1       0.7       1.3       0.2       0.1
 3 O  s               0.1       0.1       0.3       1.8       0.0       0.6
 3 O  pz              1.1       0.2       0.1       4.5       2.8       1.1
 3 O  px              1.1       0.9       0.4       1.9       0.6       2.9
 3 O  py              2.6       2.6       1.9       3.7       0.5       0.7
 3 O  dz2             0.1       0.7       0.6       0.1       0.0       2.8
 3 O  dxz             0.6       0.4       0.1       2.4       1.1       0.0
 3 O  dyz             0.3       0.0       0.1       1.4       0.2       0.0
 3 O  dx2y2           2.2       1.6       0.3       0.1       0.0       0.6
 3 O  dxy             1.6       0.1       0.7       1.3       0.2       0.1
 4 Cl s               0.3       0.2       0.0       0.1       0.0       0.0
 4 Cl pz              0.2       1.4       5.9       3.4       0.5       3.5
 4 Cl px              0.2       8.8       5.3       1.5       8.2       4.4
 4 Cl py              0.2       5.1       0.9       0.4       1.1       7.9
 4 Cl dz2             2.9       0.1       0.5       0.0       2.2       3.9
 4 Cl dxz             3.4       0.2       0.0       8.6       2.7       0.1
 4 Cl dyz             3.5       2.2       2.0       3.6       2.4       0.1
 4 Cl dx2y2           6.6      12.8       0.5       0.5       2.4       1.2
 4 Cl dxy             5.9       4.1       3.0       0.4       1.2       1.2
 5 Cl s               0.3       0.2       0.0       0.1       0.0       0.0
 5 Cl pz              0.2       1.4       5.7       3.5       0.5       3.5
 5 Cl px              0.2       8.6       5.5       1.5       8.1       4.5
 5 Cl py              0.1       5.2       0.9       0.4       1.1       7.9
 5 Cl dz2             2.9       0.1       0.5       0.0       2.2       3.9
 5 Cl dxz             3.4       0.2       0.0       8.6       2.7       0.1
 5 Cl dyz             3.6       2.3       1.9       3.7       2.4       0.1
 5 Cl dx2y2           6.7      12.8       0.6       0.5       2.5       1.2
 5 Cl dxy             5.9       3.9       3.1       0.5       1.2       1.2
 6 Cl s               0.6       0.0       0.0       0.0       0.0       0.1
 6 Cl pz              1.3       0.0       1.6       0.0       7.0       6.3
 6 Cl px              2.1       0.0       9.9       0.0      16.1       8.8
 6 Cl py              0.0       0.7       0.0      14.2       0.0       0.0
 6 Cl dz2             0.1       0.0       2.1       0.0       4.0       1.1
 6 Cl dxz             7.1       0.0      15.6       0.0       6.4       2.6
 6 Cl dyz             0.0       2.2       0.0       2.0       0.0       0.0
 6 Cl dx2y2           0.8       0.0      13.0       0.0       1.6       6.7
 6 Cl dxy             0.0       7.5       0.0       5.5       0.0       0.0

                     60        61        62        63        64        65   
                   0.33482   0.35432   0.35623   0.35907   0.36244   0.38118
                   0.00000   0.00000   0.00000   0.00000   0.00000   0.00000
                  --------  --------  --------  --------  --------  --------
 0 C  s               0.0       0.1       0.0       0.2       0.2       0.0
 0 C  pz              0.0       0.6       0.0       0.0       1.6       0.0
 0 C  px              0.0       1.4       0.0       2.3       1.9       0.0
 0 C  py              0.2       0.0       0.1       0.0       0.0       0.3
 0 C  dxy             0.0       0.0       0.0       0.0       0.0       0.1
 1 N  s               0.0       0.0       0.0       0.8       0.5       0.0
 1 N  pz              0.0       9.6       0.0       2.2       0.1       0.0
 1 N  px              0.0       0.4       0.0       4.1       1.1       0.0
[...]
 6 Cl py              0.0       0.0       0.0       0.0       0.9       0.0
 6 Cl dz2             0.0       0.0       0.5       0.0       0.0       0.2
 6 Cl dxz             0.0       0.0       0.2       0.0       0.0       0.0

                    156       157       158       159       160       161   
                   3.27963   3.33602   3.36187   3.56209   3.57735   3.57941
                   0.00000   0.00000   0.00000   0.00000   0.00000   0.00000
                  --------  --------  --------  --------  --------  --------
 0 C  s               0.1       0.0       3.3       0.0       0.0       0.5
 0 C  pz              0.0       0.0       0.9       0.0       0.0       0.4
 0 C  px              0.1       0.0       5.6       0.0       0.0       3.7
 0 C  py              0.0       1.9       0.0       0.0       0.0       0.0
 0 C  dz2             0.0       0.0       3.8       0.0       0.0       1.2
 0 C  dxz             0.0       0.0       0.6       0.0       0.0       0.5
 0 C  dyz             0.0       0.2       0.0       0.0       0.0       0.0
 0 C  dx2y2           0.1       0.0       7.5       0.0       0.0       5.6
 0 C  dxy             0.0       2.2       0.0       0.0       0.3       0.0
 1 N  s               0.1       0.0      10.2       0.0       0.0       0.2
 1 N  pz              5.3       0.0       0.0       0.0       0.0       0.8
 1 N  px              0.1       0.0      10.5       0.0       0.0      20.0
 1 N  py              0.0       1.6       0.0       0.0       5.7       0.0
 1 N  dz2             0.4       0.0      14.4       0.0       0.0       0.3
 1 N  dxz            19.1       0.0       0.1       0.0       0.0       1.7
 1 N  dyz             0.0       0.2       0.0      39.4       0.3       0.0
 1 N  dx2y2           0.1       0.0       4.1       0.0       0.0      11.2
 1 N  dxy             0.0      15.7       0.0       0.6       8.3       0.0
 2 O  s               0.4       5.6      11.9       0.1      38.5      16.1
 2 O  pz              8.9       0.1       0.1       3.2       0.0       0.2
 2 O  px              0.4      10.7       0.1       0.0       1.2       2.6
 2 O  py              0.0       3.0       0.4       0.0       0.3       0.9
 2 O  dz2             0.4       4.4       3.7       0.1       0.2       0.5
 2 O  dxz             1.2       0.3       0.4       6.8       0.0       0.0
 2 O  dyz            25.2       0.1       0.1      19.2       0.1       0.0
 2 O  dx2y2           0.0       6.3       0.1       0.1       2.0       3.5
 2 O  dxy             0.1       8.3       0.2       0.2       0.8       0.0
 3 O  s               0.4       5.6      12.0       0.1      37.5      17.1
 3 O  pz              8.9       0.1       0.1       3.2       0.0       0.2
 3 O  px              0.4      10.7       0.1       0.0       1.1       2.7
 3 O  py              0.0       3.0       0.4       0.0       0.3       0.9
 3 O  dz2             0.4       4.4       3.7       0.1       0.2       0.5
 3 O  dxz             1.3       0.3       0.4       6.9       0.0       0.0
 3 O  dyz            25.2       0.1       0.1      19.1       0.1       0.0
 3 O  dx2y2           0.0       6.4       0.1       0.1       1.9       3.6
 3 O  dxy             0.1       8.2       0.2       0.2       0.8       0.0
 4 Cl s               0.1       0.0       0.1       0.0       0.0       0.3
 4 Cl px              0.2       0.0       0.7       0.0       0.1       0.2
 4 Cl py              0.2       0.1       0.3       0.0       0.0       0.6
 5 Cl s               0.1       0.0       0.1       0.0       0.0       0.3
 5 Cl px              0.2       0.0       0.7       0.0       0.1       0.2
 5 Cl py              0.2       0.1       0.3       0.0       0.0       0.6
 6 Cl s               0.0       0.0       0.5       0.0       0.0       0.4
 6 Cl pz              0.0       0.0       1.6       0.0       0.0       1.0
 6 Cl px              0.0       0.0       0.1       0.0       0.0       1.1
 6 Cl dz2             0.0       0.0       0.2       0.0       0.0       0.0

                    162       163       164       165       166       167   
                   3.76210   4.77658   4.87453  21.69988  25.30792  25.38426
                   0.00000   0.00000   0.00000   0.00000   0.00000   0.00000
                  --------  --------  --------  --------  --------  --------
 0 C  s               0.1       0.0       0.1      99.5       0.9       0.0
 0 C  px              0.3       0.0       0.0       0.0       0.0       0.0
 0 C  py              0.0       0.0       0.0       0.0       0.0       0.2
 0 C  dz2             0.1       0.0       0.0       0.0       0.0       0.0
 0 C  dx2y2           0.6       0.0       0.1       0.0       0.0       0.0
 1 N  s               0.3       0.0      11.2       0.2       0.0       0.0
 1 N  px              3.0       0.0       2.7       0.1       0.0       0.0
 1 N  py              0.0      18.2       0.0       0.0       0.0       0.0
 1 N  dz2             0.1       0.0       7.0       0.0       0.0       0.0
 1 N  dxz             0.1       0.0       0.1       0.0       0.0       0.0
 1 N  dyz             0.0       0.2       0.0       0.0       0.0       0.0
 1 N  dx2y2          25.5       0.0       9.4       0.1       0.0       0.0
 1 N  dxy             0.0      19.5       0.0       0.0       0.0       0.0
 2 O  s               2.6       7.7      10.7       0.0       0.0       0.0
 2 O  px              3.1       1.2       2.6       0.0       0.0       0.0
 2 O  py              5.4       7.0       7.5       0.0       0.0       0.0
 2 O  dz2             0.3       2.2       4.2       0.0       0.0       0.0
 2 O  dx2y2          13.9       6.8       2.3       0.0       0.0       0.0
 2 O  dxy             8.9       6.0       7.2       0.0       0.0       0.0
 3 O  s               2.6       7.7      10.7       0.0       0.0       0.0
 3 O  px              3.1       1.3       2.6       0.0       0.0       0.0
 3 O  py              5.5       7.0       7.5       0.0       0.0       0.0
 3 O  dz2             0.3       2.2       4.2       0.0       0.0       0.0
 3 O  dx2y2          14.1       6.7       2.3       0.0       0.0       0.0
 3 O  dxy             8.8       6.1       7.3       0.0       0.0       0.0
 4 Cl s               0.0       0.0       0.0       0.0      43.3      50.0
 5 Cl s               0.0       0.0       0.0       0.0      43.4      49.6
 6 Cl s               0.1       0.0       0.0       0.1      12.2       0.0
 6 Cl pz              0.3       0.0       0.0       0.0       0.0       0.0

                    168       169       170       171   
                  25.46062  31.89052  43.82661  43.92196
                   0.00000   0.00000   0.00000   0.00000
                  --------  --------  --------  --------
 0 C  s               0.2       0.0       0.0       0.0
 0 C  pz              0.1       0.0       0.0       0.0
 1 N  s               0.0      99.5       0.1       0.0
 2 O  s               0.0       0.1      50.0      49.8
 3 O  s               0.0       0.1      49.8      50.0
 4 Cl s               6.1       0.0       0.0       0.0
 5 Cl s               6.3       0.0       0.0       0.0
 6 Cl s              86.9       0.0       0.0       0.0
 6 Cl pz              0.1       0.0       0.0       0.0


                      *****************************
                      * MAYER POPULATION ANALYSIS *
                      *****************************

  NA   - Mulliken gross atomic population
  ZA   - Total nuclear charge
  QA   - Mulliken gross atomic charge
  VA   - Mayer's total valence
  BVA  - Mayer's bonded valence
  FA   - Mayer's free valence

  ATOM       NA         ZA         QA         VA         BVA        FA
  0 C      5.9357     6.0000     0.0643     4.2292     4.2292     0.0000
  1 N      6.8030     7.0000     0.1970     4.6670     4.6670     0.0000
  2 O      8.1291     8.0000    -0.1291     2.3088     2.3088    -0.0000
  3 O      8.1291     8.0000    -0.1291     2.3090     2.3090    -0.0000
  4 Cl    16.9928    17.0000     0.0072     1.2356     1.2356    -0.0000
  5 Cl    16.9926    17.0000     0.0074     1.2358     1.2358     0.0000
  6 Cl    17.0177    17.0000    -0.0177     1.2249     1.2249     0.0000

  Mayer bond orders larger than 0.100000
B(  0-C ,  1-N ) :   0.7307 B(  0-C ,  4-Cl) :   1.1365 B(  0-C ,  5-Cl) :   1.1367 
B(  0-C ,  6-Cl) :   1.0658 B(  1-N ,  2-O ) :   1.9085 B(  1-N ,  3-O ) :   1.9085 
B(  2-O ,  3-O ) :   0.3074 

-------
TIMINGS
-------

Total SCF time: 0 days 0 hours 0 min 6 sec 

Total time                  ....       6.242 sec
Sum of individual times     ....       6.219 sec  ( 99.6%)

SCF preparation             ....       0.027 sec  (  0.4%)
Fock matrix formation       ....       6.085 sec  ( 97.5%)
  Startup                   ....       0.002 sec  (  0.0% of F)
  Split-RI-J                ....       1.115 sec  ( 18.3% of F)
  XC integration            ....       4.955 sec  ( 81.4% of F)
    Basis function eval.    ....       0.789 sec  ( 15.9% of XC)
    Density eval.           ....       1.628 sec  ( 32.9% of XC)
    XC-Functional eval.     ....       0.590 sec  ( 11.9% of XC)
    XC-Potential eval.      ....       1.867 sec  ( 37.7% of XC)
Diagonalization             ....       0.000 sec  (  0.0%)
Density matrix formation    ....       0.016 sec  (  0.2%)
Total Energy calculation    ....       0.001 sec  (  0.0%)
Population analysis         ....       0.041 sec  (  0.7%)
Orbital Transformation      ....       0.006 sec  (  0.1%)
Orbital Orthonormalization  ....       0.000 sec  (  0.0%)
DIIS solution               ....       0.037 sec  (  0.6%)
  MO trafo                  ....       0.000 sec  (  0.0 % of DIIS)
  Orb grad                  ....       0.000 sec  (  0.0 % of DIIS)
  Energy W gradient         ....       0.000 sec  (  0.0 % of DIIS)
  DIIS error                ....       0.004 sec  ( 11.5 % of DIIS)
  DIIS work                 ....       0.029 sec  ( 79.5 % of DIIS)
  Form Q                    ....       0.000 sec  (  0.0 % of DIIS)
  Form QpQm                 ....       0.000 sec  (  0.0 % of DIIS)
  Exp/Cayley                ....       0.000 sec  (  0.0 % of DIIS)
  Orb update                ....       0.000 sec  (  0.0 % of DIIS)
  Wake-sleep                ....       0.000 sec  (  1.2 % of DIIS)
SOSCF solution              ....       0.007 sec  (  0.1%)
  MO trafo                  ....       0.004 sec  ( 64.1 % of SOSCF)
  Orb grad                  ....       0.000 sec  (  1.0 % of SOSCF)
  Rot update                ....       0.000 sec  (  2.5 % of SOSCF)
  Step                      ....       0.002 sec  ( 31.9 % of SOSCF)
Finished LeanSCF after   6.2 sec

Maximum memory used throughout the entire LEANSCF-calculation: 16.8 MB


-------------------------------------------------------------------------------
                          DFT DISPERSION CORRECTION                            
                                                                               
                                DFTD4 V3.4.0                                   
-------------------------------------------------------------------------------
The R2SCAN3C composite method is recognized
Using three-body term ABC
Active option DFTDOPT                   ...         5   

-------------------------   ----------------
Dispersion correction           -0.002908233
-------------------------   ----------------

------------------   -----------------
gCP correction             0.014354979
------------------   -----------------

-------------------------   --------------------
FINAL SINGLE POINT ENERGY     -1623.683167983309
-------------------------   --------------------


------------------------------------------------------------------------------
                              ORCA PROPERTY CALCULATIONS
------------------------------------------------------------------------------

GBWName                                 ... sp.gbw
Number of atoms                         ...      7
Number of basis functions               ...    172
Max core memory                         ...   1024 MB

Electric properties:
Dipole moment                           ... YES
Quadrupole moment                       ...  NO
Static polarizability (Dipole/Dipole)   ...  NO
Static polarizability (Dipole/Quad.)    ...  NO
Static polarizability (Quad./Quad.)     ...  NO
Static polarizability (Velocity)        ...  NO

Atomic electric properties:
Dipole moment                           ...  NO
Quadrupole moment                       ...  NO
Static polarizability                   ...  NO

Choice of electric origin               ... Center of mass
Position of electric origin             ...     0.000012    -0.000000     0.000002

General magnetic properties:
Magnetizability                         ...  NO

EPR properties:
g-Tensor (aka g-matrix)                 ...  NO
Zero-Field splitting spin-orbit         ...  NO
Zero-field splitting spin-spin          ...  NO
Hyperfine couplings                     ...  NO (   0 nuclei)
Quadrupole couplings                    ...  NO (   0 nuclei)
Contact density                         ...  NO (   0 nuclei)

NMR properties:
Chemical shifts                         ...  NO (   0 nuclei)
Spin-rotation constants                 ...  NO (   0 nuclei)
Spin-spin couplings                     ...  NO (   0 nuclei,    0 pairs)

Choice of magnetic origin               ... GIAO
Position of magnetic origin             ...     0.000000     0.000000     0.000000

Properties with geometric perturbations:
SCF Hessian                             ...  NO
IR spectrum                             ...  NO
VCD spectrum                            ...  NO
X-ray spectroscopy properties:
SCF XES/XAS/RIXS spectra                ...  NO


-------------
DIPOLE MOMENT
-------------

Method             : SCF
Type of density    : Electron Density
Multiplicity       :   1
Irrep              :   0
Energy             : -1623.6946147289302189 Eh
Relativity type    : 
Basis              : AO
                                X                 Y                 Z
Electronic contribution:      3.547543063      -0.006570485       0.474501337
Nuclear contribution   :     -2.918540886       0.005700150      -0.436470291
                        -----------------------------------------
Total Dipole Moment    :      0.629002177      -0.000870335       0.038031046
                        -----------------------------------------
Magnitude (a.u.)       :      0.630151455
Magnitude (Debye)      :      1.601717708



--------------------
Rotational spectrum 
--------------------
 
Rotational constants in cm-1:             0.049981             0.049136             0.044208 
Rotational constants in MHz :          1498.399639          1473.060183          1325.312972 

Dipole components along the rotational axes: 
x,y,z [a.u.] :    -0.629002    -0.000871     0.038035 
x,y,z [Debye]:    -1.598796    -0.002213     0.096678 

 

Dipole moment calculation done in   0.0 sec 

Maximum memory used throughout the entire PROP-calculation: 10.7 MB

--------------------------------
SUGGESTED CITATIONS FOR THIS RUN
--------------------------------

Below you find a list of papers that are relevant to this ORCA run
We neither can nor want to force you to cite these papers, but we appreciate if you do
You receive ORCA, which is the product of decades of hard work by many enthusiastic individuals, for free
The only thing we kindly ask in return is that you cite our papers,
We deeply appreciate it, if you show your appreciation for ORCA by not just citing the generic ORCA reference.

Please note that relegating all ORCA citations to the supporting information does *not* help us.
SI sections are not indexed - citations you put there will not count into any citation statistics
But we need these citations in order to attract the funding resources that allow us to do what we are doing

Therefore, if you are a happy ORCA user, please consider citing a few of the papers listed below in the main body of your paper

In addition to the list printed below, the program has created the file sp.bibtex that contains the list in bibtex format
You can import this file easily into all common literature databanks and citation aid programs


List of essential papers. We consider these as the minimum necessary citations

  1. Neese,F.
     Software update: the ORCA program system, version 5.0
     WIRES Comput. Molec. Sci., 2022 12(1)e1606
     doi.org/10.1002/wcms.1606
  2. Grimme,S.; Hansen,A.; Ehlert,S.; Mewes,J.
     r2SCAN-3c: A 'Swiss army knife' composite electronic-structure method
     J. Chem. Phys., 2021 154 064103
     doi.org/10.1063/5.0040021

List of papers to cite with high priority. The work reported in these papers was absolutely
necessary for this run to complete.
Our perspective: the developers of density functionals and basis sets usually get cited in chemistry papers
Good! But without the algorithms to do something with them, the functionals or basis sets would not do anything.
Hence, in our opinion, the algorithm design and method developments papers are equally worthy of getting cited

  1. Neese,F.
     An improvement of the resolution of the identity approximation for the formation of the Coulomb matrix
     J. Comp. Chem., 2003 24(14)1740-1747
     doi.org/10.1002/jcc.10318
  2. Neese,F.
     The SHARK Integral Generation and Digestion System
     J. Comp. Chem., 2022  1-16
     doi.org/10.1002/jcc.26942
  3. Lehtola,S.; Steigemann,C.; Oliveira,M.; Marques,M.
     Recent developments in Libxc - A comprehensive library of functionals for density functional theory
     Software X, 2018 7 
     doi.org/10.1016/j.softx.2017.11.002
  4. Caldeweyher,E.; Bannwarth,C.; Grimme,S.
     Extension of the D3 dispersion coefficient model
     J. Chem. Phys., 2017 147 034112
     doi.org/10.1063/1.4993215
  5. Caldeweyher,E.; Ehlert,S.; Hansen,A.; Neugebauer,H.; Spicher,S.; Bannwarth,C.; Grimme,S.
     A generally applicable atomic-charge dependent London dispersion correction
     J. Chem. Phys., 2019 150 154122
     doi.org/10.1063/1.5090222
  6. Caldeweyher,E.; Mewes,J.; Ehlert,S.; Grimme,S.
     Extension and evaluation of the D4 London-dispersion model for periodic systems
     Phys. Chem. Chem. Phys., 2020 22(16)8499-8512
     doi.org/10.1039/D0CP00502A
  7. Wittmann,L.; Gordiy,I.; Friede,M.; Helmich-Paris,B.; Grimme,S.; Hansen,A.; Bursch,M.
     Extension of the D3 and D4 London Dispersion Corrections to the full Actinides Series
     Phys. Chem. Chem. Phys., 2024 26(32)21379-21394
     doi.org/https://doi.org/10.1039/D4CP01514B 

List of suggested additional citations. These are papers that are important in the 'surrounding' of 
of this run, or papers that preceded the highly important papers. If you like your results we are grateful for a citation.

  1. Neese,F.
     The ORCA program system
     WIRES Comput. Molec. Sci., 2012 2(1)73-78
     doi.org/10.1002/wcms.81
  2. Neese,F.
     Software update: the ORCA program system, version 4.0
     WIRES Comput. Molec. Sci., 2018 8(1)1-6
     doi.org/10.1002/wcms.1327
  3. Neese,F.; Wennmohs,F.; Becker,U.; Riplinger,C.
     The ORCA quantum chemistry program package
     J. Chem. Phys., 2020 152 Art. No. L224108
     doi.org/10.1063/5.0004608

List of optional additional citations

  1. Neese,F.
     Approximate second-order SCF convergence for spin unrestricted wavefunctions
     Chem. Phys. Lett., 2000 325(1-3)93-98
     doi.org/10.1016/s0009-2614(00)00662-x

Timings for individual modules:

Sum of individual times          ...        6.636 sec (=   0.111 min)
Startup calculation              ...        0.300 sec (=   0.005 min)   4.5 %
SCF iterations                   ...        6.300 sec (=   0.105 min)  94.9 %
Property calculations            ...        0.036 sec (=   0.001 min)   0.5 %
                             ****ORCA TERMINATED NORMALLY****
TOTAL RUN TIME: 0 days 0 hours 0 minutes 6 seconds 701 msec
