 Entering Gaussian System
 *********************************************
 Gaussian 98:
 frequency output generated by the xtb code
 *********************************************
                         Standard orientation:
 --------------------------------------------------------------------
  Center     Atomic     Atomic              Coordinates (Angstroms)
  Number     Number      Type              X           Y           Z
 --------------------------------------------------------------------
    1          6             0       -2.595108    1.404347   -0.013918
    2          6             0       -1.610114    0.286569   -0.036198
    3          6             0       -1.871246   -1.048861   -0.104412
    4          7             0       -0.700536   -1.764028   -0.103101
    5          6             0        0.347569   -0.894142   -0.033468
    6          6             0       -0.186899    0.416605    0.010680
    7          6             0        0.680300    1.506152    0.085094
    8          6             0        2.035932    1.269186    0.113274
    9          6             0        2.548662   -0.030423    0.068977
   10          6             0        1.716717   -1.126618   -0.004676
   11          1             0       -3.610178    1.017312   -0.059909
   12          1             0       -2.484942    1.991712    0.897620
   13          1             0       -2.435429    2.070262   -0.861850
   14          1             0       -2.817998   -1.552855   -0.154541
   15          1             0       -0.629244   -2.765742   -0.146816
   16          1             0        0.291700    2.513185    0.119698
   17          1             0        2.724436    2.099827    0.170778
   18          1             0        3.618916   -0.174752    0.093146
   19          1             0        2.112650   -2.131467   -0.038936
 --------------------------------------------------------------------
     1 basis functions        1 primitive gaussians
     1 alpha electrons        1 beta electrons

 Harmonic frequencies (cm**-1), IR intensities (km*mol⁻¹),
 Raman scattering activities (A**4/amu), Raman depolarization ratios,
 reduced masses (AMU), force constants (mDyne/A) and normal coordinates:
                      1                      2                      3
                        a                      a                      a 
 Frequencies --   102.4352               149.3945               210.0494
 Red. masses --     1.0241                 3.2718                 3.8843
 Frc consts  --     0.0000                 0.0000                 0.0000
 IR Inten    --     0.0704                 0.6217                 1.9213
 Raman Activ --     0.0000                 0.0000                 0.0000
 Depolar     --     0.0000                 0.0000                 0.0000
 Atom AN      X      Y      Z        X      Y      Z        X      Y      Z
   1   6    -0.00  -0.00   0.04    -0.01  -0.02   0.46     0.00   0.00  -0.06
   2   6     0.00   0.00  -0.02     0.00   0.00  -0.10     0.00   0.00  -0.05
   3   6     0.00  -0.00   0.00     0.00   0.00  -0.10    -0.01  -0.02   0.43
   4   7    -0.00  -0.00   0.06     0.01   0.01  -0.20    -0.00  -0.01   0.15
   5   6    -0.00  -0.00   0.04     0.00   0.01  -0.12     0.01   0.02  -0.35
   6   6    -0.00  -0.00   0.00     0.01   0.01  -0.25     0.01   0.02  -0.41
   7   6     0.00   0.00  -0.05     0.01   0.02  -0.41     0.00   0.01  -0.12
   8   6     0.00   0.00  -0.08     0.00   0.01  -0.11    -0.01  -0.02   0.39
   9   6     0.00   0.00  -0.03    -0.01  -0.02   0.36    -0.01  -0.01   0.18
  10   6    -0.00  -0.00   0.03    -0.01  -0.01   0.30     0.01   0.01  -0.33
  11   1     0.02   0.02  -0.55    -0.01  -0.01   0.21     0.00   0.00  -0.06
  12   1    -0.38  -0.35   0.28     0.09  -0.07   0.17    -0.03  -0.02  -0.00
  13   1     0.36   0.32   0.33    -0.10   0.06   0.17     0.03   0.02   0.00
  14   1     0.00   0.00  -0.01     0.00   0.00  -0.01    -0.01  -0.01   0.27
  15   1    -0.00  -0.00   0.01     0.00   0.00  -0.02    -0.00  -0.01   0.12
  16   1     0.00   0.00  -0.02     0.01   0.01  -0.20     0.00   0.00  -0.01
  17   1     0.00   0.00  -0.04     0.00   0.00  -0.05    -0.01  -0.01   0.26
  18   1     0.00   0.00  -0.01    -0.01  -0.01   0.22    -0.00  -0.01   0.13
  19   1    -0.00  -0.00   0.02    -0.00  -0.01   0.17     0.00   0.01  -0.13
                      4                      5                      6
                        a                      a                      a 
 Frequencies --   218.7392               306.9856               395.5210
 Red. masses --     2.9430                 4.2711                 2.9932
 Frc consts  --     0.0000                 0.0000                 0.0000
 IR Inten    --     0.4245                 0.0158                 6.2376
 Raman Activ --     0.0000                 0.0000                 0.0000
 Depolar     --     0.0000                 0.0000                 0.0000
 Atom AN      X      Y      Z        X      Y      Z        X      Y      Z
   1   6    -0.54  -0.32  -0.03    -0.01  -0.01   0.19    -0.00  -0.00   0.01
   2   6    -0.00   0.14   0.01     0.02   0.02  -0.54    -0.00  -0.01   0.11
   3   6     0.05   0.12   0.01     0.01   0.01  -0.29     0.01   0.01  -0.20
   4   7     0.03   0.16   0.01    -0.01  -0.02   0.51    -0.00  -0.01   0.15
   5   6    -0.00   0.16   0.01    -0.01  -0.01   0.18    -0.01  -0.01   0.30
   6   6     0.03   0.19   0.01     0.01   0.01  -0.20    -0.01  -0.01   0.33
   7   6     0.25   0.05   0.01    -0.00  -0.00   0.10     0.01   0.02  -0.43
   8   6     0.23  -0.14  -0.00    -0.01  -0.01   0.17    -0.00  -0.01   0.17
   9   6     0.12  -0.18  -0.01     0.01   0.01  -0.22    -0.01  -0.01   0.23
  10   6    -0.04  -0.05  -0.00     0.00   0.00  -0.05     0.01   0.02  -0.43
  11   1    -0.09  -0.27  -0.02    -0.00  -0.01   0.16     0.00   0.00  -0.00
  12   1    -0.27  -0.07  -0.01     0.13  -0.12   0.11    -0.01   0.02  -0.01
  13   1    -0.27  -0.07  -0.01    -0.13   0.11   0.12     0.01  -0.02  -0.01
  14   1     0.01   0.04   0.00     0.00   0.00  -0.11     0.00   0.01  -0.15
  15   1     0.02   0.04   0.00    -0.00  -0.00   0.09     0.00   0.00  -0.11
  16   1     0.13   0.04   0.01    -0.00  -0.00   0.06     0.01   0.02  -0.35
  17   1     0.09  -0.06  -0.00    -0.00  -0.00   0.11    -0.00  -0.00   0.03
  18   1     0.03  -0.09  -0.00     0.00   0.01  -0.15    -0.00  -0.00   0.07
  19   1    -0.07  -0.03  -0.00     0.00   0.00  -0.04     0.01   0.02  -0.34
                      7                      8                      9
                        a                      a                      a 
 Frequencies --   447.6821               453.9511               522.6794
 Red. masses --     3.6480                 1.6120                 5.9969
 Frc consts  --     0.0000                 0.0000                 0.0000
 IR Inten    --     1.2079                72.8319                 0.4604
 Raman Activ --     0.0000                 0.0000                 0.0000
 Depolar     --     0.0000                 0.0000                 0.0000
 Atom AN      X      Y      Z        X      Y      Z        X      Y      Z
   1   6    -0.07  -0.12  -0.01     0.00   0.00  -0.01     0.20  -0.22  -0.00
   2   6     0.26   0.19   0.02    -0.00  -0.01   0.14     0.33   0.04   0.01
   3   6    -0.10   0.29   0.01     0.00   0.00  -0.12     0.19   0.10   0.01
   4   7    -0.35  -0.11  -0.01    -0.01  -0.02   0.47     0.10   0.06   0.01
   5   6     0.01  -0.39  -0.02     0.01   0.02  -0.33     0.02   0.04   0.00
   6   6     0.27  -0.26  -0.00     0.00   0.00  -0.05     0.19   0.13   0.01
   7   6     0.02  -0.09  -0.00    -0.00  -0.00   0.07    -0.16   0.38   0.01
   8   6     0.05   0.25   0.01     0.00   0.01  -0.15    -0.27  -0.02  -0.01
   9   6    -0.04   0.22   0.01    -0.00  -0.01   0.12    -0.46  -0.13  -0.02
  10   6     0.13   0.02   0.00    -0.00  -0.00   0.01    -0.15  -0.32  -0.02
  11   1     0.04  -0.19  -0.01     0.00   0.00  -0.02     0.09  -0.15  -0.00
  12   1    -0.12  -0.02  -0.00    -0.03   0.03  -0.02     0.00  -0.05  -0.00
  13   1    -0.12  -0.02  -0.01     0.03  -0.03  -0.02     0.00  -0.05  -0.00
  14   1    -0.08   0.18   0.01     0.00   0.00  -0.04     0.03   0.07   0.00
  15   1    -0.22  -0.04  -0.01     0.02   0.03  -0.74     0.05   0.02   0.00
  16   1    -0.10  -0.07  -0.01    -0.00  -0.00   0.10    -0.06   0.10   0.00
  17   1    -0.01   0.09   0.00     0.00   0.00  -0.05     0.02  -0.08  -0.00
  18   1    -0.01   0.07   0.00    -0.00  -0.01   0.12    -0.12   0.01  -0.00
  19   1     0.15   0.05   0.01    -0.00  -0.00   0.08    -0.05  -0.09  -0.01
                     10                     11                     12
                        a                      a                      a 
 Frequencies --   545.7432               548.8034               575.8440
 Red. masses --     2.6884                 5.7541                 2.8202
 Frc consts  --     0.0000                 0.0000                 0.0000
 IR Inten    --    11.9784                 0.8227                 6.1406
 Raman Activ --     0.0000                 0.0000                 0.0000
 Depolar     --     0.0000                 0.0000                 0.0000
 Atom AN      X      Y      Z        X      Y      Z        X      Y      Z
   1   6    -0.00   0.00  -0.01     0.24  -0.27  -0.01     0.00   0.00  -0.05
   2   6     0.00   0.01  -0.13     0.08  -0.23  -0.01     0.02   0.03  -0.56
   3   6     0.00   0.01  -0.09    -0.16  -0.18  -0.01    -0.01  -0.02   0.45
   4   7    -0.00  -0.01   0.16    -0.18  -0.16  -0.01     0.01   0.01  -0.21
   5   6     0.01   0.01  -0.24    -0.30   0.06  -0.01    -0.01  -0.01   0.21
   6   6    -0.01  -0.01   0.17     0.05   0.15   0.01    -0.01  -0.01   0.22
   7   6    -0.01  -0.01   0.30     0.30   0.13   0.02    -0.00  -0.01   0.12
   8   6     0.01   0.02  -0.42     0.34   0.23   0.02     0.00   0.01  -0.12
   9   6    -0.01  -0.02   0.42    -0.09   0.07   0.00    -0.00  -0.01   0.13
  10   6     0.01   0.01  -0.32    -0.34   0.26   0.00     0.00   0.00  -0.06
  11   1    -0.00  -0.00   0.02     0.05  -0.03   0.00    -0.00  -0.00   0.05
  12   1     0.03  -0.03   0.02     0.10  -0.08  -0.00     0.09  -0.10   0.04
  13   1    -0.03   0.03   0.02     0.10  -0.08   0.00    -0.09   0.09   0.04
  14   1     0.00   0.00  -0.06    -0.07  -0.00  -0.00    -0.01  -0.01   0.22
  15   1    -0.01  -0.02   0.42     0.01  -0.04   0.00     0.01   0.02  -0.41
  16   1    -0.00  -0.01   0.11     0.09   0.04   0.01     0.00   0.00  -0.06
  17   1     0.01   0.01  -0.22     0.13   0.04   0.00     0.00   0.01  -0.14
  18   1    -0.01  -0.01   0.26    -0.04  -0.11  -0.00     0.00   0.00  -0.01
  19   1     0.00   0.00  -0.07    -0.10   0.07   0.00     0.00   0.01  -0.12
                     13                     14                     15
                        a                      a                      a 
 Frequencies --   698.3963               708.3074               767.9266
 Red. masses --     7.7259                 5.5138                 1.2665
 Frc consts  --     0.0000                 0.0000                 0.0000
 IR Inten    --     0.1895                 0.4927                15.9696
 Raman Activ --     0.0000                 0.0000                 0.0000
 Depolar     --     0.0000                 0.0000                 0.0000
 Atom AN      X      Y      Z        X      Y      Z        X      Y      Z
   1   6     0.00   0.00  -0.03    -0.30   0.37   0.01    -0.00  -0.00   0.01
   2   6     0.01   0.01  -0.20    -0.06   0.13   0.00    -0.00  -0.00   0.07
   3   6    -0.00  -0.00   0.10     0.37  -0.08   0.01     0.00   0.01  -0.16
   4   7    -0.00  -0.00   0.09     0.23  -0.42  -0.01    -0.00  -0.00   0.05
   5   6     0.02   0.03  -0.58    -0.08  -0.16  -0.01     0.01   0.01  -0.18
   6   6    -0.02  -0.03   0.60     0.07  -0.03   0.00     0.00   0.01  -0.13
   7   6     0.01   0.01  -0.22     0.14  -0.00   0.00    -0.01  -0.01   0.20
   8   6    -0.01  -0.01   0.22     0.17   0.20   0.01    -0.00  -0.01   0.15
   9   6     0.01   0.01  -0.21    -0.32   0.03  -0.01    -0.00  -0.01   0.16
  10   6    -0.01  -0.01   0.22    -0.20  -0.05  -0.01    -0.01  -0.01   0.22
  11   1    -0.00  -0.00   0.02    -0.09   0.12   0.00     0.00   0.00  -0.01
  12   1     0.04  -0.05   0.02    -0.08   0.10   0.00    -0.02   0.02  -0.01
  13   1    -0.04   0.05   0.02    -0.08   0.10   0.00     0.02  -0.02  -0.01
  14   1     0.00   0.01  -0.12     0.11  -0.03   0.00    -0.01  -0.01   0.28
  15   1    -0.00  -0.01   0.11     0.06  -0.11  -0.00    -0.00  -0.00   0.04
  16   1     0.00   0.00  -0.10    -0.01  -0.02  -0.00     0.01   0.02  -0.36
  17   1     0.00   0.00  -0.00     0.09   0.01   0.00     0.01   0.02  -0.46
  18   1     0.00   0.00  -0.03    -0.10  -0.07  -0.01     0.01   0.02  -0.45
  19   1    -0.00  -0.00   0.06    -0.01   0.01  -0.00     0.01   0.02  -0.39
                     16                     17                     18
                        a                      a                      a 
 Frequencies --   778.1118               789.3484               856.4441
 Red. masses --     4.7180                 1.2625                 5.3269
 Frc consts  --     0.0000                 0.0000                 0.0000
 IR Inten    --     2.5865                19.0909                 0.4542
 Raman Activ --     0.0000                 0.0000                 0.0000
 Depolar     --     0.0000                 0.0000                 0.0000
 Atom AN      X      Y      Z        X      Y      Z        X      Y      Z
   1   6    -0.16   0.08  -0.00    -0.00  -0.00   0.01    -0.04   0.07   0.00
   2   6    -0.20  -0.18  -0.01    -0.00  -0.00   0.01     0.07   0.04   0.00
   3   6    -0.33  -0.20  -0.02    -0.01  -0.02   0.39     0.08  -0.03   0.00
   4   7    -0.14   0.06  -0.00     0.00   0.00  -0.01    -0.15  -0.51  -0.03
   5   6     0.17  -0.11  -0.00     0.00   0.00  -0.03    -0.10  -0.09  -0.01
   6   6     0.11   0.09   0.01     0.01   0.01  -0.21     0.01   0.19   0.01
   7   6     0.12   0.41   0.02    -0.00  -0.00   0.08    -0.12   0.46   0.02
   8   6     0.14   0.20   0.01    -0.00  -0.00   0.02    -0.19  -0.26  -0.02
   9   6    -0.10  -0.00  -0.00    -0.00  -0.00   0.10     0.40  -0.06   0.01
  10   6     0.33  -0.40  -0.01    -0.00  -0.00   0.05     0.07   0.16   0.01
  11   1    -0.09   0.15   0.00     0.00  -0.00  -0.00    -0.01   0.02   0.00
  12   1     0.03   0.01  -0.00    -0.01   0.01  -0.00    -0.02   0.02   0.00
  13   1     0.03   0.01   0.01     0.01  -0.01  -0.00    -0.02   0.02   0.00
  14   1    -0.06  -0.12  -0.01     0.02   0.04  -0.84    -0.06   0.14   0.00
  15   1    -0.04   0.01  -0.00     0.00   0.00  -0.02    -0.10  -0.14  -0.01
  16   1     0.05   0.12   0.01     0.00   0.00  -0.08     0.09   0.18   0.01
  17   1     0.14  -0.03   0.00     0.00   0.01  -0.12    -0.03  -0.08  -0.01
  18   1    -0.01   0.07   0.00     0.01   0.01  -0.18     0.12   0.05   0.01
  19   1     0.19  -0.07   0.00     0.00   0.01  -0.15    -0.02   0.02   0.00
                     19                     20                     21
                        a                      a                      a 
 Frequencies --   865.4209               898.3115               919.9285
 Red. masses --     1.2679                 1.3252                 1.2055
 Frc consts  --     0.0000                 0.0000                 0.0000
 IR Inten    --     0.0096                 0.3898                 0.0059
 Raman Activ --     0.0000                 0.0000                 0.0000
 Depolar     --     0.0000                 0.0000                 0.0000
 Atom AN      X      Y      Z        X      Y      Z        X      Y      Z
   1   6     0.00   0.00  -0.00    -0.00  -0.00   0.01     0.00   0.00  -0.00
   2   6     0.00   0.00  -0.01    -0.00  -0.00   0.01     0.00   0.00  -0.00
   3   6     0.00   0.00  -0.02    -0.00  -0.00   0.00     0.00   0.00  -0.01
   4   7    -0.00  -0.00   0.00    -0.00  -0.00   0.01    -0.00  -0.00   0.00
   5   6     0.00   0.00  -0.04     0.00   0.00  -0.02     0.00   0.00  -0.09
   6   6    -0.00  -0.00   0.05     0.00   0.00  -0.06    -0.00  -0.00   0.08
   7   6     0.01   0.01  -0.23    -0.01  -0.01   0.30    -0.00  -0.01   0.15
   8   6     0.01   0.01  -0.23     0.00   0.01  -0.17     0.01   0.01  -0.29
   9   6    -0.00  -0.01   0.14     0.01   0.01  -0.29    -0.01  -0.01   0.23
  10   6    -0.01  -0.01   0.30    -0.01  -0.01   0.23     0.00   0.00  -0.08
  11   1    -0.00  -0.00   0.00     0.00   0.00  -0.01     0.00   0.00  -0.00
  12   1     0.00  -0.00   0.00    -0.01   0.01  -0.00     0.00  -0.00   0.00
  13   1    -0.00   0.00   0.00     0.01  -0.01  -0.00    -0.00   0.00   0.00
  14   1    -0.00  -0.00   0.04     0.00   0.00  -0.02    -0.00  -0.00   0.02
  15   1    -0.00  -0.00   0.02     0.00  -0.00  -0.00    -0.00  -0.00   0.00
  16   1    -0.01  -0.02   0.50     0.01   0.02  -0.49     0.01   0.02  -0.36
  17   1    -0.01  -0.02   0.34    -0.01  -0.01   0.30    -0.02  -0.03   0.60
  18   1     0.01   0.01  -0.17    -0.01  -0.02   0.52     0.01   0.02  -0.51
  19   1     0.02   0.03  -0.61     0.01   0.02  -0.38    -0.01  -0.01   0.26
                     22                     23                     24
                        a                      a                      a 
 Frequencies --   997.2697              1040.1410              1064.7001
 Red. masses --     1.5405                 1.3896                 1.6984
 Frc consts  --     0.0000                 0.0000                 0.0000
 IR Inten    --     4.9417                 4.0453                 1.3000
 Raman Activ --     0.0000                 0.0000                 0.0000
 Depolar     --     0.0000                 0.0000                 0.0000
 Atom AN      X      Y      Z        X      Y      Z        X      Y      Z
   1   6    -0.16  -0.37  -0.02     0.01   0.02  -0.43    -0.17  -0.01  -0.01
   2   6    -0.14   0.05  -0.00    -0.01  -0.02   0.33     0.10  -0.05   0.00
   3   6     0.28   0.27   0.02     0.00   0.00  -0.00    -0.05   0.01  -0.00
   4   7    -0.02  -0.04  -0.00     0.00   0.00  -0.01     0.02   0.08   0.00
   5   6     0.03  -0.03  -0.00    -0.00  -0.00   0.00    -0.02   0.01  -0.00
   6   6    -0.12   0.09   0.00     0.00   0.00  -0.04     0.26  -0.18  -0.00
   7   6     0.01  -0.07  -0.00    -0.00  -0.00   0.01    -0.19   0.16   0.00
   8   6     0.04   0.01   0.00     0.00  -0.00   0.00     0.06   0.25   0.01
   9   6    -0.06   0.04   0.00    -0.00   0.00  -0.00     0.33  -0.18   0.00
  10   6     0.04  -0.07  -0.00    -0.00  -0.00   0.01    -0.14  -0.05  -0.01
  11   1    -0.23   0.42   0.01    -0.01  -0.01   0.22    -0.12   0.20   0.01
  12   1     0.35  -0.14  -0.02     0.32  -0.44   0.15     0.08  -0.01  -0.01
  13   1     0.34  -0.14   0.03    -0.33   0.43   0.17     0.08  -0.01   0.01
  14   1    -0.01   0.24   0.01     0.00   0.00  -0.01    -0.01   0.01  -0.00
  15   1    -0.22  -0.02  -0.01    -0.00   0.00  -0.02     0.11   0.03   0.00
  16   1     0.06   0.01   0.00     0.00   0.00  -0.01    -0.47  -0.11  -0.02
  17   1    -0.00   0.01   0.00     0.00   0.00  -0.00    -0.03   0.12   0.00
  18   1    -0.01   0.03   0.00     0.00   0.00  -0.00     0.08  -0.20  -0.01
  19   1     0.06  -0.00   0.00     0.00   0.00  -0.01    -0.40  -0.16  -0.02
                     25                     26                     27
                        a                      a                      a 
 Frequencies --  1070.9388              1085.7553              1159.0885
 Red. masses --     2.9792                 1.2459                 1.2667
 Frc consts  --     0.0000                 0.0000                 0.0000
 IR Inten    --     5.4402                12.3952                 2.0991
 Raman Activ --     0.0000                 0.0000                 0.0000
 Depolar     --     0.0000                 0.0000                 0.0000
 Atom AN      X      Y      Z        X      Y      Z        X      Y      Z
   1   6     0.25  -0.01   0.01     0.06  -0.03   0.00     0.11  -0.04   0.00
   2   6    -0.17   0.08  -0.00    -0.08   0.02  -0.00    -0.18   0.04  -0.00
   3   6     0.15   0.04   0.01     0.25  -0.02   0.01     0.00   0.09   0.00
   4   7    -0.03  -0.19  -0.01    -0.12   0.20   0.01     0.10  -0.00   0.00
   5   6    -0.02   0.12   0.00    -0.00  -0.16  -0.01     0.04  -0.06  -0.00
   6   6    -0.42   0.17  -0.00    -0.00  -0.05  -0.00    -0.18  -0.02  -0.01
   7   6    -0.06  -0.05  -0.00    -0.05   0.16   0.01    -0.20   0.14   0.00
   8   6     0.17   0.35   0.02     0.02  -0.01   0.00     0.14   0.01   0.00
   9   6     0.15  -0.05   0.00     0.06  -0.04  -0.00     0.00  -0.14  -0.01
  10   6     0.11  -0.38  -0.01    -0.08   0.12   0.00     0.05   0.13   0.01
  11   1     0.16  -0.26  -0.01     0.03  -0.04  -0.00     0.06  -0.09  -0.00
  12   1    -0.09   0.00   0.02    -0.00  -0.01   0.00    -0.01  -0.02   0.01
  13   1    -0.09   0.00  -0.02    -0.00  -0.01  -0.00    -0.01  -0.02  -0.01
  14   1    -0.01   0.10   0.00     0.36  -0.55  -0.01    -0.07   0.17   0.01
  15   1    -0.19  -0.06  -0.01    -0.57   0.02  -0.02     0.10   0.00   0.00
  16   1    -0.07  -0.03  -0.00    -0.02   0.04   0.00    -0.30  -0.05  -0.01
  17   1    -0.07   0.20   0.01     0.06  -0.04  -0.00     0.26  -0.17  -0.00
  18   1     0.05   0.01   0.00    -0.00  -0.13  -0.01    -0.06  -0.53  -0.03
  19   1    -0.17  -0.19  -0.01    -0.02   0.03   0.00     0.45   0.21   0.02
                     28                     29                     30
                        a                      a                      a 
 Frequencies --  1178.3558              1209.9290              1238.3773
 Red. masses --     1.1166                 1.4229                 1.6781
 Frc consts  --     0.0000                 0.0000                 0.0000
 IR Inten    --     1.8824                 1.9414                14.2819
 Raman Activ --     0.0000                 0.0000                 0.0000
 Depolar     --     0.0000                 0.0000                 0.0000
 Atom AN      X      Y      Z        X      Y      Z        X      Y      Z
   1   6     0.04   0.02   0.00     0.07  -0.15  -0.00     0.08  -0.05  -0.00
   2   6    -0.10  -0.07  -0.01    -0.08   0.29   0.01    -0.25   0.07  -0.00
   3   6     0.00  -0.01  -0.00    -0.02   0.22   0.01    -0.13   0.20   0.01
   4   7     0.04  -0.05  -0.00    -0.10  -0.08  -0.01     0.21   0.01   0.01
   5   6     0.09   0.15   0.01    -0.25  -0.18  -0.02     0.16  -0.27  -0.01
   6   6     0.00  -0.06  -0.00    -0.11   0.04  -0.00    -0.05  -0.30  -0.01
   7   6     0.01  -0.02  -0.00    -0.01   0.03   0.00    -0.14   0.12   0.00
   8   6     0.08  -0.11  -0.00     0.06   0.01   0.00     0.01   0.09   0.00
   9   6    -0.09   0.09   0.00     0.12   0.01   0.00    -0.01   0.10   0.00
  10   6     0.05   0.11   0.01    -0.00  -0.10  -0.00    -0.01   0.11   0.00
  11   1     0.03  -0.04  -0.00     0.02  -0.02  -0.00     0.05  -0.10  -0.00
  12   1    -0.03   0.00   0.01     0.09  -0.05  -0.00     0.02  -0.03   0.01
  13   1    -0.03   0.00  -0.01     0.09  -0.05   0.00     0.02  -0.03  -0.01
  14   1    -0.08   0.14   0.00     0.23  -0.38  -0.01    -0.03   0.05   0.00
  15   1    -0.24  -0.03  -0.01     0.53   0.02   0.02     0.12   0.00   0.00
  16   1    -0.34  -0.14  -0.02    -0.13  -0.03  -0.01     0.46   0.23   0.02
  17   1     0.50  -0.43  -0.01     0.15  -0.11  -0.00     0.17  -0.12  -0.00
  18   1     0.02   0.42   0.02     0.08   0.33   0.02    -0.03  -0.17  -0.01
  19   1    -0.24  -0.07  -0.01     0.09   0.00   0.00    -0.42  -0.14  -0.02
                     31                     32                     33
                        a                      a                      a 
 Frequencies --  1300.4685              1327.0740              1363.8141
 Red. masses --     3.2554                 2.4316                 8.6864
 Frc consts  --     0.0000                 0.0000                 0.0000
 IR Inten    --    62.3354                18.1997                17.4754
 Raman Activ --     0.0000                 0.0000                 0.0000
 Depolar     --     0.0000                 0.0000                 0.0000
 Atom AN      X      Y      Z        X      Y      Z        X      Y      Z
   1   6    -0.02   0.09   0.00    -0.10  -0.01  -0.00     0.04   0.00   0.00
   2   6     0.06  -0.20  -0.01     0.41   0.08   0.02    -0.29   0.02  -0.01
   3   6     0.45  -0.24   0.00     0.06  -0.12  -0.00     0.15   0.07   0.01
   4   7    -0.22   0.41   0.01    -0.34  -0.09  -0.01    -0.12  -0.06  -0.01
   5   6    -0.22  -0.25  -0.02     0.03   0.24   0.01    -0.17   0.31   0.01
   6   6    -0.16  -0.15  -0.01    -0.20   0.02  -0.00     0.11  -0.43  -0.02
   7   6    -0.08   0.07   0.00    -0.07  -0.19  -0.01     0.35   0.14   0.02
   8   6     0.03   0.12   0.01    -0.16   0.18   0.00    -0.28   0.18   0.00
   9   6     0.16  -0.03   0.00    -0.05   0.05   0.00    -0.09  -0.39  -0.02
  10   6    -0.11  -0.06  -0.01     0.33   0.02   0.01     0.26   0.17   0.02
  11   1    -0.01   0.02   0.00    -0.07   0.12   0.00     0.04  -0.09  -0.00
  12   1    -0.07   0.03   0.00     0.02   0.05  -0.03     0.03  -0.05   0.03
  13   1    -0.07   0.03  -0.00     0.01   0.04   0.04     0.03  -0.05  -0.03
  14   1    -0.06   0.30   0.01     0.08  -0.15  -0.00     0.03   0.04   0.00
  15   1     0.14   0.13   0.01     0.12  -0.01   0.00     0.04  -0.01   0.00
  16   1     0.16   0.09   0.01     0.15   0.01   0.00     0.01   0.00   0.00
  17   1     0.14  -0.07   0.00     0.28  -0.23  -0.00    -0.07   0.04  -0.00
  18   1     0.07   0.19   0.01    -0.06  -0.33  -0.02    -0.01   0.04   0.00
  19   1     0.08   0.02   0.00    -0.14  -0.08  -0.01     0.03   0.03   0.00
                     34                     35                     36
                        a                      a                      a 
 Frequencies --  1392.1038              1404.6432              1429.4438
 Red. masses --     3.0977                 1.2963                 4.3655
 Frc consts  --     0.0000                 0.0000                 0.0000
 IR Inten    --     4.7104                 1.9574                31.7792
 Raman Activ --     0.0000                 0.0000                 0.0000
 Depolar     --     0.0000                 0.0000                 0.0000
 Atom AN      X      Y      Z        X      Y      Z        X      Y      Z
   1   6     0.07   0.05   0.00     0.31  -0.34  -0.01    -0.02  -0.02  -0.00
   2   6    -0.34  -0.12  -0.02    -0.12   0.01  -0.00     0.15   0.16   0.01
   3   6     0.30   0.00   0.01     0.02   0.06   0.00    -0.07  -0.17  -0.01
   4   7    -0.43   0.02  -0.01    -0.01  -0.02  -0.00     0.17   0.16   0.01
   5   6     0.19  -0.06   0.00     0.01  -0.01  -0.00    -0.08  -0.46  -0.02
   6   6     0.19   0.17   0.01     0.02  -0.03  -0.00    -0.36   0.16  -0.00
   7   6     0.08   0.02   0.00     0.05   0.04   0.00     0.38   0.12   0.02
   8   6     0.05  -0.28  -0.01    -0.01  -0.02  -0.00    -0.13  -0.06  -0.01
   9   6    -0.12   0.32   0.01    -0.03  -0.01  -0.00    -0.15  -0.10  -0.01
  10   6     0.12   0.02   0.00     0.03   0.03   0.00     0.28   0.22   0.02
  11   1     0.05  -0.09  -0.00    -0.16   0.46   0.02    -0.00  -0.00  -0.00
  12   1    -0.02  -0.07   0.05    -0.37   0.30  -0.17     0.04   0.01  -0.01
  13   1    -0.01  -0.06  -0.06    -0.38   0.29   0.17     0.04   0.01   0.02
  14   1     0.06   0.05   0.00     0.02  -0.00   0.00    -0.08   0.06   0.00
  15   1     0.26   0.03   0.01     0.04  -0.00   0.00    -0.01   0.03   0.00
  16   1    -0.17  -0.07  -0.01    -0.02  -0.00  -0.00    -0.24  -0.10  -0.01
  17   1    -0.14   0.04  -0.00    -0.04   0.02  -0.00    -0.12   0.05  -0.00
  18   1    -0.08  -0.22  -0.01    -0.01  -0.00  -0.00    -0.05  -0.04  -0.00
  19   1    -0.22  -0.09  -0.01    -0.03  -0.01  -0.00    -0.24  -0.07  -0.01
                     37                     38                     39
                        a                      a                      a 
 Frequencies --  1480.6370              1489.0872              1499.1703
 Red. masses --     1.0569                 1.1475                 3.8072
 Frc consts  --     0.0000                 0.0000                 0.0000
 IR Inten    --     3.1531                 6.7099                 5.9893
 Raman Activ --     0.0000                 0.0000                 0.0000
 Depolar     --     0.0000                 0.0000                 0.0000
 Atom AN      X      Y      Z        X      Y      Z        X      Y      Z
   1   6    -0.01  -0.01   0.22     0.16   0.13   0.01     0.00  -0.05  -0.00
   2   6    -0.00  -0.00   0.04     0.03  -0.05  -0.00    -0.21  -0.00  -0.01
   3   6    -0.00  -0.00   0.00    -0.04   0.08   0.00    -0.01  -0.03  -0.00
   4   7    -0.00  -0.00  -0.00     0.10   0.01   0.00     0.19   0.06   0.01
   5   6     0.00   0.00   0.00    -0.12  -0.06  -0.01    -0.34  -0.08  -0.01
   6   6    -0.00  -0.00  -0.00     0.03   0.09   0.00     0.28   0.20   0.02
   7   6    -0.00   0.00  -0.00     0.07  -0.06  -0.00     0.22  -0.16  -0.00
   8   6     0.00  -0.00   0.00    -0.14   0.07  -0.00    -0.44   0.13  -0.01
   9   6    -0.00  -0.00   0.00     0.06   0.04   0.00     0.24   0.27   0.02
  10   6    -0.00   0.00   0.00     0.02  -0.05  -0.00    -0.03  -0.23  -0.01
  11   1     0.02   0.03  -0.72    -0.11   0.32   0.01     0.05  -0.12  -0.00
  12   1     0.46   0.04  -0.07    -0.28  -0.43   0.32     0.07   0.12  -0.09
  13   1    -0.45  -0.03  -0.09    -0.27  -0.40  -0.37     0.06   0.11   0.10
  14   1    -0.00   0.00  -0.00     0.02  -0.02  -0.00    -0.03   0.04   0.00
  15   1     0.00  -0.00  -0.00    -0.03  -0.00  -0.00    -0.09   0.01  -0.00
  16   1    -0.00  -0.00   0.00     0.02  -0.02  -0.00     0.01  -0.07  -0.00
  17   1    -0.00   0.00  -0.00     0.05  -0.06  -0.00     0.15  -0.19  -0.00
  18   1    -0.00   0.00  -0.00     0.01  -0.05  -0.00     0.03  -0.22  -0.01
  19   1     0.00   0.00  -0.00     0.01  -0.02  -0.00     0.05  -0.05  -0.00
                     40                     41                     42
                        a                      a                      a 
 Frequencies --  1581.0105              1593.5319              1626.4683
 Red. masses --     8.0466                 8.0929                 8.5006
 Frc consts  --     0.0000                 0.0000                 0.0000
 IR Inten    --     0.8705                 0.7685                 9.2665
 Raman Activ --     0.0000                 0.0000                 0.0000
 Depolar     --     0.0000                 0.0000                 0.0000
 Atom AN      X      Y      Z        X      Y      Z        X      Y      Z
   1   6    -0.02  -0.00  -0.00    -0.08   0.11   0.00    -0.06   0.07   0.00
   2   6     0.14   0.08   0.01     0.09  -0.60  -0.02     0.13  -0.36  -0.01
   3   6    -0.02  -0.02  -0.00     0.00   0.47   0.02    -0.02   0.33   0.01
   4   7     0.13   0.02   0.00     0.12  -0.00   0.00    -0.07  -0.07  -0.01
   5   6    -0.35   0.23   0.00    -0.37  -0.06  -0.01     0.39  -0.01   0.01
   6   6    -0.19  -0.45  -0.03     0.01   0.14   0.01    -0.34  -0.12  -0.02
   7   6     0.10   0.26   0.01    -0.14  -0.04  -0.01     0.40   0.12   0.02
   8   6     0.17  -0.32  -0.01     0.13  -0.03   0.00    -0.26   0.06  -0.00
   9   6     0.01   0.47   0.02    -0.11  -0.08  -0.01     0.14   0.10   0.01
  10   6     0.08  -0.23  -0.01     0.33   0.08   0.01    -0.35  -0.10  -0.01
  11   1    -0.02   0.03   0.00     0.01  -0.06  -0.00    -0.00  -0.01  -0.00
  12   1     0.00  -0.02   0.01    -0.01   0.08  -0.04    -0.01   0.04  -0.02
  13   1     0.00  -0.02  -0.01    -0.01   0.08   0.05    -0.01   0.04   0.02
  14   1    -0.01   0.00  -0.00     0.11  -0.04   0.00     0.08  -0.04   0.00
  15   1    -0.07   0.00  -0.00     0.00   0.00   0.00     0.07  -0.01   0.00
  16   1    -0.07   0.03  -0.00     0.01   0.01   0.00    -0.09  -0.04  -0.00
  17   1    -0.09   0.03  -0.00    -0.02   0.03   0.00     0.02  -0.05  -0.00
  18   1    -0.03  -0.13  -0.01    -0.02   0.00  -0.00     0.03  -0.03  -0.00
  19   1     0.02  -0.06  -0.00    -0.07  -0.04  -0.00     0.06   0.04   0.00
                     43                     44                     45
                        a                      a                      a 
 Frequencies --  2995.2934              3009.5843              3039.7920
 Red. masses --     1.0923                 1.0524                 1.0674
 Frc consts  --     0.0000                 0.0000                 0.0000
 IR Inten    --    32.7012                29.0154                37.1686
 Raman Activ --     0.0000                 0.0000                 0.0000
 Depolar     --     0.0000                 0.0000                 0.0000
 Atom AN      X      Y      Z        X      Y      Z        X      Y      Z
   1   6    -0.01  -0.01   0.29     0.06   0.20   0.01    -0.23  -0.08  -0.01
   2   6    -0.00  -0.00   0.01    -0.00   0.01   0.00    -0.01  -0.00  -0.00
   3   6    -0.00  -0.00   0.00    -0.00  -0.00  -0.00     0.01   0.00   0.00
   4   7    -0.00   0.00  -0.00    -0.00  -0.00  -0.00     0.00  -0.00   0.00
   5   6     0.00   0.00   0.00     0.00   0.00   0.00    -0.00  -0.00  -0.00
   6   6     0.00   0.00  -0.00     0.00  -0.00   0.00     0.00   0.00   0.00
   7   6     0.00  -0.00  -0.00     0.00  -0.01  -0.00    -0.00   0.00   0.00
   8   6    -0.00  -0.00   0.00     0.00  -0.00  -0.00    -0.00  -0.00  -0.00
   9   6    -0.00   0.00  -0.00    -0.00   0.00   0.00    -0.00  -0.00  -0.00
  10   6    -0.00  -0.00  -0.00     0.00  -0.00  -0.00    -0.00   0.00   0.00
  11   1    -0.00  -0.00   0.04    -0.04   0.01  -0.00     0.90   0.36   0.04
  12   1    -0.08  -0.39  -0.56    -0.07  -0.34  -0.58    -0.04  -0.03  -0.03
  13   1     0.11   0.42  -0.50    -0.10  -0.40   0.56    -0.04  -0.04   0.03
  14   1     0.00   0.00   0.00     0.00  -0.00   0.00    -0.01  -0.01  -0.00
  15   1     0.00   0.00  -0.00    -0.00   0.00   0.00     0.00   0.00   0.00
  16   1    -0.00   0.00   0.00    -0.01   0.02   0.00     0.00  -0.01  -0.00
  17   1     0.00  -0.00  -0.00    -0.00  -0.00  -0.00     0.00   0.00   0.00
  18   1     0.00  -0.00  -0.00     0.00  -0.00   0.00     0.00  -0.00   0.00
  19   1    -0.00   0.00   0.00     0.00   0.00   0.00     0.00  -0.01  -0.00
                     46                     47                     48
                        a                      a                      a 
 Frequencies --  3067.4695              3072.3721              3081.9433
 Red. masses --     1.0763                 1.0774                 1.0842
 Frc consts  --     0.0000                 0.0000                 0.0000
 IR Inten    --    13.9563                18.7438                85.1738
 Raman Activ --     0.0000                 0.0000                 0.0000
 Depolar     --     0.0000                 0.0000                 0.0000
 Atom AN      X      Y      Z        X      Y      Z        X      Y      Z
   1   6     0.00   0.00   0.00     0.00   0.00   0.00    -0.00  -0.00  -0.00
   2   6    -0.00   0.00  -0.00    -0.00  -0.00  -0.00    -0.00  -0.00  -0.00
   3   6    -0.00   0.00   0.00    -0.00   0.00  -0.00     0.00  -0.00   0.00
   4   7     0.00  -0.00  -0.00     0.00   0.00   0.00     0.00   0.00   0.00
   5   6     0.00   0.01   0.00    -0.00  -0.00  -0.00    -0.00  -0.00  -0.00
   6   6    -0.00  -0.00  -0.00    -0.00   0.00   0.00     0.01  -0.00   0.00
   7   6    -0.01   0.02   0.00    -0.05   0.11   0.00     0.07  -0.18  -0.01
   8   6    -0.04  -0.05  -0.00    -0.13  -0.16  -0.01    -0.02  -0.03  -0.00
   9   6     0.12  -0.02   0.00     0.05  -0.01   0.00     0.17  -0.02   0.00
  10   6    -0.08   0.21   0.01     0.04  -0.10  -0.00     0.03  -0.08  -0.00
  11   1    -0.01  -0.00  -0.00    -0.00  -0.00  -0.00     0.01   0.00   0.00
  12   1     0.00  -0.00  -0.00    -0.00  -0.00  -0.01     0.00   0.01   0.01
  13   1     0.00  -0.00   0.00    -0.00  -0.00   0.01     0.00   0.01  -0.01
  14   1    -0.00  -0.00  -0.00     0.00   0.00   0.00    -0.00  -0.00  -0.00
  15   1    -0.00   0.00  -0.00     0.00  -0.00   0.00     0.00   0.00   0.00
  16   1     0.03  -0.08  -0.00     0.16  -0.42  -0.01    -0.25   0.65   0.02
  17   1     0.15   0.18   0.01     0.47   0.57   0.04     0.08   0.10   0.01
  18   1    -0.47   0.06  -0.01    -0.19   0.03  -0.00    -0.58   0.08  -0.01
  19   1     0.30  -0.75  -0.03    -0.14   0.34   0.01    -0.11   0.28   0.01
                     49                     50                     51
                        a                      a                      a 
 Frequencies --  3090.5525              3145.1693              3489.6963
 Red. masses --     1.0898                 1.0857                 1.0737
 Frc consts  --     0.0000                 0.0000                 0.0000
 IR Inten    --    60.8608                29.5147                10.0081
 Raman Activ --     0.0000                 0.0000                 0.0000
 Depolar     --     0.0000                 0.0000                 0.0000
 Atom AN      X      Y      Z        X      Y      Z        X      Y      Z
   1   6     0.00   0.00   0.00    -0.00  -0.00  -0.00    -0.00  -0.00  -0.00
   2   6    -0.00   0.00  -0.00    -0.01   0.01   0.00     0.00   0.00   0.00
   3   6     0.00   0.00   0.00    -0.24  -0.14  -0.01    -0.01  -0.01  -0.00
   4   7     0.00   0.00   0.00    -0.00  -0.00  -0.00     0.02  -0.26  -0.01
   5   6    -0.00  -0.00  -0.00     0.00   0.00   0.00     0.00  -0.00  -0.00
   6   6    -0.01   0.00  -0.00     0.00   0.00   0.00    -0.00   0.00  -0.00
   7   6    -0.05   0.13   0.00    -0.00   0.00   0.00     0.00   0.00   0.00
   8   6     0.11   0.13   0.01     0.00   0.00   0.00    -0.00   0.00   0.00
   9   6     0.17  -0.02   0.00     0.00   0.00   0.00    -0.00  -0.00  -0.00
  10   6     0.03  -0.07  -0.00    -0.00  -0.00  -0.00     0.00   0.00   0.00
  11   1     0.00  -0.00   0.00     0.02   0.00   0.00    -0.00   0.00  -0.00
  12   1    -0.00  -0.00  -0.01    -0.00  -0.00   0.00    -0.00   0.00   0.00
  13   1    -0.00  -0.00   0.01    -0.00  -0.00  -0.00    -0.00   0.00  -0.00
  14   1    -0.01  -0.00  -0.00     0.85   0.45   0.04     0.01   0.00   0.00
  15   1     0.00  -0.00  -0.00    -0.00  -0.01  -0.00    -0.07   0.96   0.04
  16   1     0.17  -0.45  -0.02     0.00  -0.00  -0.00    -0.00  -0.00  -0.00
  17   1    -0.35  -0.42  -0.03    -0.00  -0.00  -0.00    -0.00  -0.00  -0.00
  18   1    -0.57   0.08  -0.01    -0.01   0.00  -0.00     0.00   0.00   0.00
  19   1    -0.08   0.21   0.01    -0.00   0.00   0.00    -0.00   0.00   0.00
